Title
81330
    1CHL1    C3    1   1.838   5.316  10.202 -0.5459  0.5830  0.6579
    1CHL1    H3    2   1.884   5.409  10.160 -2.8314  1.0371 -0.9224
    1CHL1    O3    3   1.795   5.335  10.335  1.0720  0.0273  0.1903
    1CHL1   H3'    4   1.786   5.245  10.367  0.1968  0.3011  0.7191
    1CHL1    C4    5   1.713   5.300  10.115  1.0372  0.5336 -0.4880
    1CHL1   H4A    6   1.662   5.211  10.158  1.0115  1.1074  0.6952
    1CHL1   H4B    7   1.634   5.375  10.137  1.6167  1.4837 -1.5864
    1CHL1    C5    8   1.745   5.279   9.974  0.2260  0.9501  0.6518
    1CHL1    C6    9   1.696   5.355   9.876 -0.5547 -0.5185 -0.3697
    1CHL1    H6   10   1.640   5.444   9.908 -0.1344 -0.5686  0.5209
    1CHL1    C7   11   1.725   5.337   9.731 -0.1504  0.5676  0.2369
    1CHL1   H7A   12   1.640   5.360   9.663  0.9656  0.5420 -1.1752
    1CHL1   H7B   13   1.795   5.419   9.707 -0.8721  1.3739  0.8152
    1CHL1    C8   14   1.789   5.201   9.694  0.2035  0.1348 -0.3777
    1CHL1    H8   15   1.703   5.131   9.705  1.0043 -0.6524  1.2772
    1CHL1   C14   16   1.847   5.198   9.556  0.4829  0.2128  0.3422
    1CHL1   H14   17   1.922   5.279   9.552 -0.0906  0.7087 -0.4212
    1CHL1   C15   18   1.754   5.245   9.445  0.1294  0.1138  0.0048
    1CHL1  H15A   19   1.660   5.188   9.460 -0.1949  0.5407 -0.3710
    1CHL1  H15B   20   1.731   5.354   9.450 -0.9725 -0.1072  0.0128
    1CHL1   C16   21   1.831   5.204   9.315  0.0023 -0.2217  0.1138
    1CHL1  H16A   22   1.756   5.145   9.258  1.5136  0.0399 -2.2105
    1CHL1  H16B   23   1.882   5.279   9.251 -1.3871  0.6241 -0.0144
    1CHL1   C17   24   1.946   5.106   9.365 -0.7832  0.6832 -0.2737
    1CHL1   H17   25   2.044   5.159   9.365  0.2400 -1.1672  0.2784
    1CHL1   C13   26   1.909   5.067   9.513 -0.1088 -0.4904 -0.7066
    1CHL1   C18   27   1.811   4.957   9.512 -0.0767 -0.6417  0.5142
    1CHL1  H18A   28   1.838   4.860   9.467 -2.0183 -1.0097  0.1113
    1CHL1  H18B   29   1.770   4.936   9.613 -2.4157  1.0094 -0.0360
    1CHL1  H18C   30   1.720   4.984   9.454 -0.2774  1.3232  1.6950
    1CHL1   C12   31   2.027   5.048   9.612  0.1673 -0.1360  0.0114
    1CHL1  H12A   32   2.082   4.955   9.588 -1.6548 -1.4435  0.8206
    1CHL1  H12B   33   2.099   5.133   9.606  0.5767 -0.4971 -0.3057
    1CHL1   C11   34   1.979   5.036   9.755 -0.2142  0.3598  0.5551
    1CHL1  H11A   35   1.927   4.939   9.771 -0.0133  0.3109  0.9084
    1CHL1  H11B   36   2.076   5.038   9.809  1.7346 -1.2169 -2.7012
    1CHL1    C9   37   1.899   5.162   9.791  0.1127  0.5187  0.2483
    1CHL1    H9   38   1.979   5.239   9.790  0.0051  0.6298  0.1747
    1CHL1   C10   39   1.846   5.160   9.939  0.8497 -0.1263 -0.4097
    1CHL1   C19   40   1.764   5.035   9.973 -0.5798 -0.1948 -0.0347
    1CHL1  H19A   41   1.824   4.949   9.935 -0.6235 -0.5444  0.6818
    1CHL1  H19B   42   1.733   5.030  10.079  2.9716 -1.4639  1.0233
    1CHL1  H19C   43   1.669   5.032   9.915 -1.0798 -0.9737  0.8100
    1CHL1    C1   44   1.971   5.172  10.044  0.4249  0.5921  1.0608
    1CHL1   H1A   45   2.023   5.074  10.037 -2.8392 -1.0365 -1.8346
    1CHL1   H1B   46   2.031   5.256  10.005  1.3335  0.1674  1.5162
    1CHL1    C2   47   1.934   5.202  10.191  0.1153  0.2371 -0.3043
    1CHL1   H2A   48   2.029   5.223  10.245 -0.1238 -0.4266  0.3937
    1CHL1   H2B   49   1.884   5.113  10.236 -2.3524  1.1460 -1.1358
    1CHL1   C20   50   1.974   4.995   9.259  0.5207 -0.5121  0.2316
    1CHL1   H20   51   1.886   4.928   9.269  1.2521 -1.9863 -2.4939
    1CHL1   C21   52   2.095   4.908   9.294 -0.8086  0.0537  0.2965
    1CHL1  H21A   53   2.062   4.813   9.342 -1.0921 -0.0657 -0.1343
    1CHL1  H21B   54   2.162   4.965   9.361 -1.8312 -0.1378  1.5062
    1CHL1  H21C   55   2.160   4.869   9.213 -1.6594 -0.7704  0.0009
    1CHL1   C22   56   1.971   5.047   9.114  0.0904 -0.1677  0.1711
    1CHL1  H22A   57   1.878   5.096   9.079  1.5667  0.8978 -2.3668
    1CHL1  H22B   58   2.063   5.109   9.101  0.5962 -1.0139 -0.3276
    1CHL1   C23   59   1.970   4.937   9.013 -0.7100  0.3210  0.7251
    1CHL1  H23A   60   2.057   4.870   9.029 -0.0859  0.1292 -3.0541
    1CHL1  H23B   61   1.881   4.875   9.038 -1.1681  1.6971  2.6448
    1CHL1   C24   62   1.982   4.993   8.875 -0.0254  0.0678 -0.4274
    1CHL1  H24A   63   1.901   5.067   8.855  0.0477  0.2048 -0.2131
    1CHL1  H24B   64   2.070   5.059   8.859 -0.7971  0.8581 -1.4657
    1CHL1   C25   65   1.985   4.891   8.765  0.2663 -0.4629 -0.6554
    1CHL1   H25   66   2.021   4.796   8.809 -0.2235 -0.7846 -0.9393
    1CHL1   C26   67   1.844   4.868   8.711  0.1993 -0.7835 -0.0243
    1CHL1  H26A   68   1.803   4.953   8.652 -0.8461 -0.7683  0.7224
    1CHL1  H26B   69   1.849   4.779   8.644 -3.7453 -1.6552  0.7332
    1CHL1  H26C   70   1.777   4.847   8.797 -0.3413  1.4733  0.1127
    1CHL1   C27   71   2.077   4.935   8.651  0.2265  0.7396 -0.0178
    1CHL1  H27A   72   2.091   4.866   8.566 -0.2572 -0.7247  1.0639
    1CHL1  H27B   73   2.037   5.025   8.600 -0.8113 -0.2853 -1.0325
    1CHL1  H27C   74   2.180   4.969   8.678  0.3551 -1.0059  1.7920
    2CHL1    C3   75   2.686   2.805   9.865  0.8204 -0.3857  0.8793
    2CHL1    H3   76   2.638   2.711   9.902  2.1631 -2.0617 -1.4735
    2CHL1    O3   77   2.661   2.906   9.962  0.7120  0.0043  0.2515
    2CHL1   H3'   78   2.692   2.875  10.047  2.1267 -0.1948 -0.3175
    2CHL1    C4   79   2.828   2.772   9.847  0.0342 -0.6047  0.8737
    2CHL1   H4A   80   2.876   2.867   9.813 -1.7392  0.0075  0.0445
    2CHL1   H4B   81   2.867   2.748   9.948  0.5955  0.8193  1.0111
    2CHL1    C5   82   2.854   2.660   9.742  0.3394 -0.4903 -0.3249
    2CHL1    C6   83   2.919   2.548   9.762  0.3737  0.1718  0.8925
    2CHL1    H6   84   2.954   2.530   9.865  2.1908  1.0504  0.4318
    2CHL1    C7   85   2.936   2.431   9.669 -0.0743 -0.7400 -0.1999
    2CHL1   H7A   86   3.040   2.399   9.687  0.5796  0.8338 -1.0225
    2CHL1   H7B   87   2.876   2.340   9.692 -1.4479  0.1958  0.0089
    2CHL1    C8   88   2.907   2.479   9.520 -0.5992  0.9995  0.2761
    2CHL1    H8   89   2.991   2.546   9.491 -1.2349  0.6521 -2.4919
    2CHL1   C14   90   2.891   2.348   9.437  0.5665  0.1815 -0.0954
    2CHL1   H14   91   2.820   2.288   9.498 -0.7363  0.0173 -1.7130
    2CHL1   C15   92   3.010   2.255   9.422  0.1220 -0.2185  0.2986
    2CHL1  H15A   93   3.096   2.321   9.395  1.3259 -2.5098 -1.5964
    2CHL1  H15B   94   3.050   2.189   9.502 -1.7247 -1.1998  0.4325
    2CHL1   C16   95   2.985   2.167   9.299  0.4187  0.9032  0.3311
    2CHL1  H16A   96   3.065   2.173   9.222 -0.2434 -2.0525 -0.6640
    2CHL1  H16B   97   2.976   2.058   9.317  0.4509  0.8253 -0.1079
    2CHL1   C17   98   2.859   2.222   9.229 -0.8467  0.0985  0.2047
    2CHL1   H17   99   2.774   2.166   9.274  0.8275 -2.2216  0.5887
    2CHL1   C13  100   2.842   2.368   9.292 -0.0178 -0.2547  0.1783
    2CHL1   C18  101   2.943   2.458   9.219 -0.0527 -0.1394 -0.3474
    2CHL1  H18A  102   3.046   2.415   9.211  0.5062  1.4249 -1.9634
    2CHL1  H18B  103   2.906   2.470   9.116  0.7077 -1.5363 -0.7993
    2CHL1  H18C  104   2.972   2.552   9.272  2.1884 -0.2009 -1.3822
    2CHL1   C12  105   2.702   2.436   9.306  0.0196 -0.2782  0.3780
    2CHL1  H12A  106   2.649   2.452   9.209  0.2908  0.4119  0.3406
    2CHL1  H12B  107   2.631   2.364   9.351 -0.4812  1.7807  3.0075
    2CHL1   C11  108   2.706   2.570   9.376 -0.1471  0.2468  0.0937
    2CHL1  H11A  109   2.769   2.630   9.307 -1.2749  2.4437  0.9096
    2CHL1  H11B  110   2.601   2.608   9.374  0.1553  1.1080  0.2815
    2CHL1    C9  111   2.772   2.559   9.520 -0.3765  0.2662 -0.3614
    2CHL1    H9  112   2.701   2.490   9.570  0.6937  0.6317  1.7212
    2CHL1   C10  113   2.790   2.682   9.604  0.0932 -0.0510  0.2361
    2CHL1   C19  114   2.870   2.791   9.539  0.0015  0.0423  0.1963
    2CHL1  H19A  115   2.828   2.825   9.442  0.4095 -0.5620 -0.1974
    2CHL1  H19B  116   2.884   2.882   9.601 -1.1867 -0.8728  1.8276
    2CHL1  H19C  117   2.975   2.759   9.517  0.7528  2.8170 -0.4660
    2CHL1    C1  118   2.655   2.750   9.619 -0.6480  0.3054 -0.6857
    2CHL1   H1A  119   2.634   2.795   9.519  1.3731  2.1331 -0.3143
    2CHL1   H1B  120   2.590   2.664   9.648  0.7185 -0.8200 -0.8725
    2CHL1    C2  121   2.645   2.858   9.726  0.2151 -0.5613 -0.0552
    2CHL1   H2A  122   2.541   2.898   9.725  0.4485  0.0413 -0.3108
    2CHL1   H2B  123   2.703   2.951   9.708 -2.5911  0.9868 -1.5289
    2CHL1   C20  124   2.847   2.203   9.075 -0.0640  0.1528  0.4756
    2CHL1   H20  125   2.928   2.258   9.022 -0.3183 -1.2143 -1.3692
    2CHL1   C21  126   2.710   2.253   9.029  0.1536  0.2672  0.1829
    2CHL1  H21A  127   2.629   2.211   9.093 -0.4011  0.4906 -0.3610
    2CHL1  H21B  128   2.680   2.216   8.928  0.5320 -0.4739  0.3464
    2CHL1  H21C  129   2.703   2.364   9.026  0.3762  0.2613 -0.6560
    2CHL1   C22  130   2.866   2.054   9.039  0.3816 -0.7068 -0.1894
    2CHL1  H22A  131   2.950   2.021   9.103  1.4700  3.1357  0.5167
    2CHL1  H22B  132   2.777   1.997   9.071  0.2541  0.5233  1.7372
    2CHL1   C23  133   2.885   2.011   8.884 -0.5952  0.1229 -0.8831
    2CHL1  H23A  134   2.928   1.909   8.888  0.5894  0.6148 -1.0589
    2CHL1  H23B  135   2.783   2.016   8.840 -0.8943 -0.9528 -0.3217
    2CHL1   C24  136   2.983   2.093   8.802  0.1648 -0.0463  0.2273
    2CHL1  H24A  137   2.951   2.196   8.774  1.9879  0.5700  0.3574
    2CHL1  H24B  138   3.062   2.130   8.871  1.7435 -1.6128 -0.7298
    2CHL1   C25  139   3.049   2.020   8.682 -0.2656 -0.5030 -0.1523
    2CHL1   H25  140   3.106   2.096   8.626 -0.9392  1.2190  1.4680
    2CHL1   C26  141   3.158   1.917   8.721 -0.1078  0.1041  0.6901
    2CHL1  H26A  142   3.248   1.981   8.725  0.1478 -0.0898 -1.4368
    2CHL1  H26B  143   3.135   1.850   8.807 -0.2965  1.4403  1.7067
    2CHL1  H26C  144   3.186   1.857   8.632 -1.2144  1.4610 -0.5949
    2CHL1   C27  145   2.951   1.952   8.590  0.1993  0.6236  0.3297
    2CHL1  H27A  146   2.909   1.856   8.627 -5.1766  2.2639 -1.0790
    2CHL1  H27B  147   2.861   2.011   8.560 -0.6072  0.0193  1.4892
    2CHL1  H27C  148   3.001   1.929   8.494 -1.6198  3.0060 -1.2552
    3CHL1    C3  149   3.947   2.427  10.201 -0.2824 -0.0150  0.1173
    3CHL1    H3  150   3.914   2.533  10.194  1.2323  0.9609  5.5601
    3CHL1    O3  151   3.949   2.390  10.336 -0.3009  0.3995  0.2111
    3CHL1   H3'  152   3.949   2.474  10.382 -0.1730  1.8951 -2.4158
    3CHL1    C4  153   3.840   2.330  10.140  0.1385  0.1019 -0.1856
    3CHL1   H4A  154   3.867   2.224  10.162 -0.2782  0.6325  3.1242
    3CHL1   H4B  155   3.739   2.341  10.186  0.1371 -0.2106 -0.1103
    3CHL1    C5  156   3.828   2.361   9.994 -0.7930 -0.7895  0.4904
    3CHL1    C6  157   3.719   2.401   9.928  0.4161 -0.0680 -0.0755
    3CHL1    H6  158   3.632   2.427   9.991  0.6151  1.3389 -0.3464
    3CHL1    C7  159   3.695   2.413   9.779  0.3975 -0.0672 -0.4290
    3CHL1   H7A  160   3.600   2.362   9.753  1.0009 -2.3301  1.5966
    3CHL1   H7B  161   3.685   2.519   9.748 -0.2383  0.1107  0.3809
    3CHL1    C8  162   3.811   2.363   9.690 -0.2186  0.1127  0.1527
    3CHL1    H8  163   3.819   2.252   9.684 -1.8124 -0.0034 -0.2112
    3CHL1   C14  164   3.819   2.426   9.550 -0.6467  0.0687 -0.1566
    3CHL1   H14  165   3.818   2.536   9.566 -0.0573  0.4169 -2.2861
    3CHL1   C15  166   3.689   2.410   9.467 -0.3394  0.1531  1.0427
    3CHL1  H15A  167   3.639   2.312   9.485  0.5596 -0.5229 -0.0496
    3CHL1  H15B  168   3.615   2.488   9.498 -0.1572  1.2126 -1.1040
    3CHL1   C16  169   3.740   2.417   9.323 -0.1472  0.6269  0.0217
    3CHL1  H16A  170   3.723   2.317   9.279  1.4864  0.7239 -0.8531
    3CHL1  H16B  171   3.690   2.501   9.270  2.2589  2.5523  0.6635
    3CHL1   C17  172   3.893   2.453   9.334  0.3734  0.4017  0.2568
    3CHL1   H17  173   3.895   2.561   9.361 -0.9937  0.9347 -1.6544
    3CHL1   C13  174   3.937   2.383   9.462  0.2157  0.3439  0.3479
    3CHL1   C18  175   3.940   2.234   9.437  0.2626  0.6586  0.7707
    3CHL1  H18A  176   3.840   2.192   9.416  0.5534 -0.3588  1.3871
    3CHL1  H18B  177   4.014   2.203   9.360  0.3011 -0.9144  1.4236
    3CHL1  H18C  178   3.967   2.184   9.533  0.2202 -0.3109  0.2781
    3CHL1   C12  179   4.063   2.435   9.540 -0.2782  1.3145  0.5864
    3CHL1  H12A  180   4.160   2.416   9.489  0.3605  0.4545  2.0801
    3CHL1  H12B  181   4.056   2.544   9.562  0.6145  1.6378 -0.6336
    3CHL1   C11  182   4.069   2.380   9.681  0.9015  0.2968  0.2921
    3CHL1  H11A  183   4.077   2.270   9.668  3.3096  0.6570 -1.5638
    3CHL1  H11B  184   4.160   2.427   9.725  0.6621  1.4469 -0.4236
    3CHL1    C9  185   3.940   2.404   9.760 -0.4310  0.1281  0.3567
    3CHL1    H9  186   3.943   2.514   9.771 -2.5389  0.2120  0.2962
    3CHL1   C10  187   3.954   2.351   9.907  0.0489  0.3306 -0.4259
    3CHL1   C19  188   3.996   2.204   9.908  0.4026 -0.3831  0.2986
    3CHL1  H19A  189   4.100   2.191   9.871 -0.6594 -1.1070 -2.5860
    3CHL1  H19B  190   3.998   2.156  10.008 -0.6403 -1.4246 -0.1581
    3CHL1  H19C  191   3.924   2.143   9.850 -2.4237  0.6071  2.6297
    3CHL1    C1  192   4.079   2.426   9.980  0.6932  0.3410  0.6130
    3CHL1   H1A  193   4.174   2.404   9.929 -1.3121 -1.4310 -2.4992
    3CHL1   H1B  194   4.049   2.532   9.964  2.4418  0.5068 -1.7696
    3CHL1    C2  195   4.083   2.394  10.131  0.6820 -1.0490  0.0987
    3CHL1   H2A  196   4.159   2.462  10.176 -0.5318  0.5884 -0.2874
    3CHL1   H2B  197   4.118   2.290  10.152  0.7853 -1.7775 -3.2891
    3CHL1   C20  198   3.977   2.438   9.204  0.5194  0.0903 -0.4444
    3CHL1   H20  199   3.977   2.332   9.169 -1.3027 -0.1545  0.2570
    3CHL1   C21  200   4.114   2.501   9.215 -0.2778 -0.2622 -0.0977
    3CHL1  H21A  201   4.179   2.425   9.264  0.4200 -0.3783 -1.1756
    3CHL1  H21B  202   4.123   2.600   9.264  0.5345 -0.3675 -0.0251
    3CHL1  H21C  203   4.160   2.517   9.115 -1.6469  0.2080 -0.6670
    3CHL1   C22  204   3.900   2.503   9.089  0.5267 -0.3208  0.1884
    3CHL1  H22A  205   3.936   2.473   8.988 -1.2812 -0.9201 -0.2792
    3CHL1  H22B  206   3.799   2.458   9.085  0.6533 -0.7799  1.7188
    3CHL1   C23  207   3.888   2.657   9.073  0.2953 -0.5579 -0.5703
    3CHL1  H23A  208   3.901   2.694   9.177 -1.0443 -3.0673  0.5520
    3CHL1  H23B  209   3.975   2.701   9.021  0.1923 -2.5162 -2.4837
    3CHL1   C24  210   3.762   2.699   8.998 -0.1256  0.2574  0.6698
    3CHL1  H24A  211   3.773   2.664   8.893  1.0189 -1.4920  1.3493
    3CHL1  H24B  212   3.673   2.643   9.035  0.0042  1.0119  2.1494
    3CHL1   C25  213   3.716   2.843   9.015 -0.0615 -0.2685 -0.5919
    3CHL1   H25  214   3.805   2.905   8.994 -0.0622  0.1151  0.5003
    3CHL1   C26  215   3.603   2.889   8.914  0.2879 -0.2626  0.8242
    3CHL1  H26A  216   3.596   2.999   8.903 -0.1427 -0.2808  0.9096
    3CHL1  H26B  217   3.636   2.862   8.812  2.4967 -2.9641  2.1766
    3CHL1  H26C  218   3.507   2.836   8.934  0.5107 -1.4370 -1.1156
    3CHL1   C27  219   3.660   2.867   9.159 -0.0646 -0.0902 -0.9723
    3CHL1  H27A  220   3.746   2.871   9.229  0.7797 -0.0354 -2.0045
    3CHL1  H27B  221   3.609   2.966   9.166 -0.2279 -0.1638 -1.1354
    3CHL1  H27C  222   3.590   2.787   9.193  0.2472  0.6833  1.6518
    4CHL1    C3  223   2.480   4.774  10.522 -0.1229  0.3950  0.1237
    4CHL1    H3  224   2.387   4.784  10.463  0.3814  1.4782 -0.4840
    4CHL1    O3  225   2.462   4.832  10.651  0.4264 -0.4142  0.1846
    4CHL1   H3'  226   2.550   4.831  10.688 -0.3223  2.2993  2.1699
    4CHL1    C4  227   2.521   4.626  10.540  0.5733 -0.8772  1.1606
    4CHL1   H4A  228   2.617   4.638  10.595  1.6178 -1.0794 -0.5714
    4CHL1   H4B  229   2.449   4.570  10.603 -0.1005  1.2371  2.3170
    4CHL1    C5  230   2.545   4.569  10.398  0.6615 -0.4622 -0.5491
    4CHL1    C6  231   2.483   4.461  10.357  0.3651 -0.6123 -0.1564
    4CHL1    H6  232   2.412   4.411  10.424 -0.2160 -0.8399 -0.9308
    4CHL1    C7  233   2.486   4.412  10.213 -0.0705  0.5055  0.2308
    4CHL1   H7A  234   2.474   4.302  10.206 -1.8715  0.8146 -1.7948
    4CHL1   H7B  235   2.393   4.455  10.171 -0.8004  1.0987  2.3559
    4CHL1    C8  236   2.609   4.455  10.138 -0.4226  0.0134 -0.0330
    4CHL1    H8  237   2.693   4.408  10.193  1.9789  1.3763 -2.4022
    4CHL1   C14  238   2.595   4.415   9.994 -0.1560 -0.8650 -0.1296
    4CHL1   H14  239   2.505   4.464   9.951  0.7991 -0.7044 -2.0616
    4CHL1   C15  240   2.597   4.268   9.970  0.0430 -0.1022 -0.8566
    4CHL1  H15A  241   2.660   4.206  10.037 -1.9201 -0.8126  0.3979
    4CHL1  H15B  242   2.496   4.226   9.987  0.2027  0.5158  1.9078
    4CHL1   C16  243   2.638   4.252   9.824  0.2705 -0.0205 -0.1022
    4CHL1  H16A  244   2.714   4.171   9.816  0.5141 -0.1492  3.0339
    4CHL1  H16B  245   2.549   4.212   9.771  0.5838 -2.8946  1.4466
    4CHL1   C17  246   2.699   4.390   9.772  0.1805  0.2586 -0.3125
    4CHL1   H17  247   2.615   4.448   9.729  0.2386  0.0859 -0.6610
    4CHL1   C13  248   2.715   4.469   9.904 -0.1071  0.0909  0.4951
    4CHL1   C18  249   2.842   4.411   9.970 -0.4267 -0.7339 -0.5108
    4CHL1  H18A  250   2.858   4.441  10.076  1.1023  2.1842 -1.5145
    4CHL1  H18B  251   2.856   4.300   9.970  0.4115 -0.6544 -2.1997
    4CHL1  H18C  252   2.926   4.435   9.901 -1.6503  1.2095 -1.3602
    4CHL1   C12  253   2.711   4.620   9.909 -0.1666 -0.0206 -0.1000
    4CHL1  H12A  254   2.780   4.666   9.834  1.0703 -2.2208 -0.3556
    4CHL1  H12B  255   2.611   4.646   9.869  1.0178  1.5958 -2.1385
    4CHL1   C11  256   2.727   4.666  10.053  0.7332 -0.9453 -0.4982
    4CHL1  H11A  257   2.824   4.626  10.089  0.0206 -1.1067  1.2815
    4CHL1  H11B  258   2.724   4.777  10.058  0.8829 -1.0151  1.6568
    4CHL1    C9  259   2.623   4.606  10.156 -0.1465  0.2152  0.1834
    4CHL1    H9  260   2.528   4.661  10.135  0.8345  2.3363  1.0992
    4CHL1   C10  261   2.636   4.651  10.296  0.0858 -0.2618 -0.1636
    4CHL1   C19  262   2.778   4.618  10.350 -1.3868  0.0422  0.2833
    4CHL1  H19A  263   2.803   4.641  10.456 -2.5229  1.8127  0.1834
    4CHL1  H19B  264   2.798   4.511  10.327  1.3972  0.4760  0.5311
    4CHL1  H19C  265   2.850   4.668  10.283 -2.1066  1.4805  0.5636
    4CHL1    C1  266   2.599   4.798  10.296 -0.3811 -1.2034  0.0439
    4CHL1   H1A  267   2.674   4.853  10.236 -0.7375 -1.4099 -0.5939
    4CHL1   H1B  268   2.498   4.812  10.253 -0.5617 -0.2333  0.7485
    4CHL1    C2  269   2.583   4.854  10.439 -0.1120  0.2603 -0.1995
    4CHL1   H2A  270   2.548   4.959  10.429  1.1502  0.6611 -0.5206
    4CHL1   H2B  271   2.679   4.858  10.496 -1.4260  1.3466  1.9789
    4CHL1   C20  272   2.806   4.377   9.663 -0.2581 -0.0848  0.2312
    4CHL1   H20  273   2.900   4.345   9.714 -0.5559  1.6424  1.9356
    4CHL1   C21  274   2.843   4.516   9.595  0.0951 -0.4233  0.2107
    4CHL1  H21A  275   2.907   4.572   9.666  0.7652 -2.4133  1.2015
    4CHL1  H21B  276   2.754   4.575   9.562  0.6297 -0.4815 -1.3984
    4CHL1  H21C  277   2.902   4.499   9.503 -1.0687 -1.4326 -0.3642
    4CHL1   C22  278   2.775   4.259   9.565  0.1661 -0.4278  0.5525
    4CHL1  H22A  279   2.867   4.240   9.507  0.0581 -1.0946  0.5884
    4CHL1  H22B  280   2.755   4.160   9.612  0.7780 -0.0059  1.7247
    4CHL1   C23  281   2.661   4.300   9.457 -0.4516 -0.5426  0.3008
    4CHL1  H23A  282   2.567   4.248   9.487 -0.3032 -0.7566  0.3954
    4CHL1  H23B  283   2.632   4.407   9.458  0.6571 -0.2441  0.7520
    4CHL1   C24  284   2.691   4.257   9.311  0.3013 -0.3980 -0.2604
    4CHL1  H24A  285   2.604   4.290   9.251 -0.3629 -0.6662  0.5565
    4CHL1  H24B  286   2.783   4.316   9.289  0.0534 -0.4660 -1.4956
    4CHL1   C25  287   2.704   4.105   9.283  0.0559 -0.4850  0.7308
    4CHL1   H25  288   2.799   4.075   9.332  0.0594  0.2741  1.1826
    4CHL1   C26  289   2.586   4.028   9.342  0.4452 -0.2716  0.0681
    4CHL1  H26A  290   2.592   3.922   9.309 -1.3475 -0.5992  0.7652
    4CHL1  H26B  291   2.597   4.027   9.452  1.9560  1.3782 -0.0339
    4CHL1  H26C  292   2.488   4.069   9.310  0.7378  0.6027  0.2823
    4CHL1   C27  293   2.720   4.072   9.133 -0.5389  0.3409 -0.3997
    4CHL1  H27A  294   2.662   4.146   9.074  1.2136  0.1913 -2.3847
    4CHL1  H27B  295   2.824   4.100   9.106  0.0749 -2.7059 -1.3865
    4CHL1  H27C  296   2.698   3.966   9.108  0.5765  0.0200 -0.0700
    5CHL1    C3  297   4.281   1.789  10.099  0.5355 -0.2463  0.5587
    5CHL1    H3  298   4.245   1.771   9.995 -0.5031  1.0904  0.6730
    5CHL1    O3  299   4.236   1.690  10.195 -0.3067  0.2600 -0.1344
    5CHL1   H3'  300   4.275   1.709  10.281 -2.2260 -1.8395  1.2743
    5CHL1    C4  301   4.441   1.787  10.087  0.3930  0.1098 -0.1941
    5CHL1   H4A  302   4.485   1.853  10.165  1.1464 -0.1382 -0.4042
    5CHL1   H4B  303   4.471   1.680  10.086  0.0034 -0.0220  0.8122
    5CHL1    C5  304   4.476   1.859   9.952 -0.2598 -0.1204  0.1996
    5CHL1    C6  305   4.530   1.788   9.854  0.1678 -0.1458  0.0566
    5CHL1    H6  306   4.566   1.689   9.885 -0.3725 -0.0956  0.8391
    5CHL1    C7  307   4.561   1.850   9.719  0.7219 -0.2927 -0.2242
    5CHL1   H7A  308   4.658   1.811   9.680  0.6201 -0.3716 -0.3958
    5CHL1   H7B  309   4.487   1.807   9.648  0.4467 -0.1387 -0.0275
    5CHL1    C8  310   4.553   2.010   9.729 -0.0060  0.3583  0.9465
    5CHL1    H8  311   4.645   2.037   9.786 -0.6222  2.4196  1.0048
    5CHL1   C14  312   4.554   2.072   9.583  0.5141 -0.7447  0.1982
    5CHL1   H14  313   4.456   2.036   9.545  1.6048 -3.5880  0.0122
    5CHL1   C15  314   4.653   2.030   9.485 -0.0574 -1.0914  0.3747
    5CHL1  H15A  315   4.748   2.010   9.538  1.5717  2.1008 -1.1968
    5CHL1  H15B  316   4.607   1.936   9.448 -1.4228 -1.1668  2.1825
    5CHL1   C16  317   4.656   2.142   9.375 -0.1742 -0.3198 -0.4757
    5CHL1  H16A  318   4.755   2.192   9.366  0.0021 -0.4800  0.5459
    5CHL1  H16B  319   4.618   2.107   9.276 -1.8625  2.4488 -0.8516
    5CHL1   C17  320   4.554   2.250   9.424 -0.1198  0.1561  0.3903
    5CHL1   H17  321   4.455   2.221   9.383  0.6914  1.4243 -2.6456
    5CHL1   C13  322   4.550   2.229   9.574 -0.3085 -0.5086 -0.5832
    5CHL1   C18  323   4.679   2.288   9.638  0.2476  0.1328 -0.4629
    5CHL1  H18A  324   4.764   2.260   9.573 -0.0933 -1.0318 -0.4208
    5CHL1  H18B  325   4.682   2.399   9.645 -1.2075  0.0639  2.3733
    5CHL1  H18C  326   4.693   2.253   9.742 -0.7695 -0.0450 -0.3746
    5CHL1   C12  327   4.420   2.272   9.644 -0.0667 -0.0861  0.2741
    5CHL1  H12A  328   4.402   2.382   9.655  4.1261  0.6995 -0.1280
    5CHL1  H12B  329   4.335   2.232   9.585  1.2942 -0.7472 -1.2343
    5CHL1   C11  330   4.410   2.221   9.793 -0.0977  0.2625  0.0695
    5CHL1  H11A  331   4.487   2.281   9.845  1.0914 -0.0658 -1.2612
    5CHL1  H11B  332   4.312   2.253   9.834  0.0695  0.5770  0.2288
    5CHL1    C9  333   4.431   2.063   9.803 -0.2505  0.5974 -0.2285
    5CHL1    H9  334   4.342   2.018   9.754  0.1151 -0.2268 -0.1414
    5CHL1   C10  335   4.420   2.004   9.942  0.6647  0.1484 -0.0521
    5CHL1   C19  336   4.514   2.079  10.039  0.0711  0.2852  0.2572
    5CHL1  H19A  337   4.621   2.049  10.033  0.4647  1.8514 -0.8263
    5CHL1  H19B  338   4.497   2.188  10.024  2.2703  0.6991  0.5344
    5CHL1  H19C  339   4.496   2.064  10.147  0.6694  0.3347  0.3657
    5CHL1    C1  340   4.270   2.012   9.993  0.3536 -0.0796 -0.3039
    5CHL1   H1A  341   4.244   2.118  10.011 -1.3360 -0.5293  0.0067
    5CHL1   H1B  342   4.192   1.982   9.920 -1.2593 -2.9822  2.4974
    5CHL1    C2  343   4.240   1.935  10.131 -0.3620  0.0107  0.2020
    5CHL1   H2A  344   4.132   1.940  10.153 -0.7624  1.0529 -1.8569
    5CHL1   H2B  345   4.304   1.972  10.214  2.3956 -1.2392 -1.2712
    5CHL1   C20  346   4.580   2.396   9.371  0.5935  0.3747  0.3129
    5CHL1   H20  347   4.671   2.443   9.415  1.1105 -2.1008  1.9956
    5CHL1   C21  348   4.458   2.489   9.402  0.0224 -0.0202  0.3952
    5CHL1  H21A  349   4.363   2.461   9.351  2.3174 -5.3265 -1.2177
    5CHL1  H21B  350   4.481   2.593   9.370 -0.2562 -0.3616 -0.9262
    5CHL1  H21C  351   4.439   2.501   9.511 -2.7055  0.6584 -0.1099
    5CHL1   C22  352   4.602   2.395   9.213  0.3913 -0.5768 -0.1174
    5CHL1  H22A  353   4.690   2.332   9.186  1.0161  0.5413 -0.7398
    5CHL1  H22B  354   4.513   2.363   9.155  0.6015  1.9749 -1.9212
    5CHL1   C23  355   4.642   2.531   9.167  0.1211 -0.1234 -0.3623
    5CHL1  H23A  356   4.551   2.595   9.164 -1.1913 -1.9084  0.2405
    5CHL1  H23B  357   4.726   2.575   9.225 -0.2982  0.6129 -0.2983
    5CHL1   C24  358   4.680   2.511   9.014 -0.0688  0.6711  0.0093
    5CHL1  H24A  359   4.776   2.455   9.016 -0.0778  0.6270 -0.8514
    5CHL1  H24B  360   4.608   2.445   8.962 -1.3956  2.8831 -1.0685
    5CHL1   C25  361   4.705   2.639   8.936 -0.3282 -0.1676  0.5026
    5CHL1   H25  362   4.612   2.699   8.948 -0.1723  0.1088  0.3269
    5CHL1   C26  363   4.821   2.732   8.987  0.3703 -0.5228 -0.2650
    5CHL1  H26A  364   4.793   2.769   9.088 -0.7571  0.7624 -1.0318
    5CHL1  H26B  365   4.918   2.679   8.983  1.4068  1.3495 -0.5188
    5CHL1  H26C  366   4.823   2.822   8.922  0.4875 -1.0709 -1.0161
    5CHL1   C27  367   4.721   2.599   8.786  0.0509  0.0753  0.2101
    5CHL1  H27A  368   4.633   2.546   8.744  1.4363 -0.7702 -1.6731
    5CHL1  H27B  369   4.719   2.695   8.729 -0.5970  0.8461  1.4849
    5CHL1  H27C  370   4.810   2.533   8.778 -0.2902 -0.8796  3.5773
    6CHL1    C3  371   1.419   0.141  10.309 -0.2025 -0.0254  0.0744
    6CHL1    H3  372   1.309   0.159  10.310 -0.3930 -1.0577 -1.2077
    6CHL1    O3  373   1.476   0.168  10.435  0.2399 -0.0079  0.3489
    6CHL1   H3'  374   1.571   0.171  10.419  0.3629 -0.9764  0.8507
    6CHL1    C4  375   1.441  -0.001  10.275  0.1383  0.0244  0.0444
    6CHL1   H4A  376   1.548  -0.029  10.291 -0.0671 -1.3160 -0.8414
    6CHL1   H4B  377   1.381  -0.053  10.354  0.9336 -2.7440 -1.1001
    6CHL1    C5  378   1.388  -0.055  10.145 -0.1197  0.1126  0.5226
    6CHL1    C6  379   1.314  -0.166  10.133  0.4455 -0.3607  0.0107
    6CHL1    H6  380   1.283  -0.214  10.227 -0.4012 -0.1592 -0.1575
    6CHL1    C7  381   1.263  -0.216  10.002  0.1284  0.0900  0.0537
    6CHL1   H7A  382   1.269  -0.327   9.991 -0.6163  0.1688 -1.2383
    6CHL1   H7B  383   1.153  -0.200  10.002  0.5895  3.7879 -0.5733
    6CHL1    C8  384   1.329  -0.150   9.875  0.2426  0.1295  0.1669
    6CHL1    H8  385   1.431  -0.193   9.862  0.7379  1.2793  0.1213
    6CHL1   C14  386   1.233  -0.175   9.758  0.1046 -0.4969  0.2536
    6CHL1   H14  387   1.139  -0.123   9.787 -0.3780 -1.6170  0.7075
    6CHL1   C15  388   1.194  -0.323   9.717 -0.4885 -0.1785 -0.3408
    6CHL1  H15A  389   1.296  -0.366   9.703 -1.3870 -2.6539  0.4671
    6CHL1  H15B  390   1.122  -0.381   9.778 -0.1050 -0.8351 -0.5044
    6CHL1   C16  391   1.132  -0.307   9.577  0.5290  0.0737 -0.3319
    6CHL1  H16A  392   1.189  -0.376   9.511 -0.5693 -0.5492 -0.6458
    6CHL1  H16B  393   1.027  -0.338   9.556  1.1713 -1.3842 -1.4725
    6CHL1   C17  394   1.167  -0.152   9.537  0.0603  0.8927  0.1107
    6CHL1   H17  395   1.077  -0.099   9.577 -1.2979  2.0127 -4.2215
    6CHL1   C13  396   1.280  -0.105   9.627 -0.5437  0.4579  0.8877
    6CHL1   C18  397   1.414  -0.157   9.571  0.1450  0.4068  0.2396
    6CHL1  H18A  398   1.412  -0.268   9.565 -0.9394  0.2475  2.6660
    6CHL1  H18B  399   1.445  -0.107   9.477  1.4076  0.2564  0.5612
    6CHL1  H18C  400   1.497  -0.134   9.642 -1.4632  0.7244  2.0577
    6CHL1   C12  401   1.291   0.046   9.655  0.1410 -0.4769 -0.0605
    6CHL1  H12A  402   1.326   0.090   9.559  3.3712  1.2239  1.7946
    6CHL1  H12B  403   1.194   0.097   9.674  0.1984  0.0411 -1.1248
    6CHL1   C11  404   1.393   0.075   9.772 -0.4923 -0.2093  0.5768
    6CHL1  H11A  405   1.496   0.045   9.744 -1.2007  0.8777 -3.4352
    6CHL1  H11B  406   1.392   0.186   9.780  2.0408 -0.0953 -0.1989
    6CHL1    C9  407   1.347   0.005   9.899  0.2707 -0.2218 -0.0299
    6CHL1    H9  408   1.243   0.041   9.913  0.4103  0.9931 -1.9026
    6CHL1   C10  409   1.430   0.036  10.029 -0.0060 -0.7497  0.0082
    6CHL1   C19  410   1.583   0.014   9.995 -0.1897 -0.6035 -0.3421
    6CHL1  H19A  411   1.629   0.071   9.911 -0.0874  1.1623  0.9007
    6CHL1  H19B  412   1.638   0.037  10.089 -0.5306 -0.6383 -0.1361
    6CHL1  H19C  413   1.605  -0.093   9.976  0.9238 -0.3556 -0.5180
    6CHL1    C1  414   1.421   0.189  10.070 -0.3722 -0.0543  0.0667
    6CHL1   H1A  415   1.464   0.253   9.990 -1.3252 -0.9506 -1.1761
    6CHL1   H1B  416   1.314   0.217  10.084 -0.1318 -0.3133  2.7043
    6CHL1    C2  417   1.483   0.234  10.204 -0.1892  0.2119 -1.0064
    6CHL1   H2A  418   1.470   0.344  10.216  0.2349  0.0361  1.3686
    6CHL1   H2B  419   1.593   0.222  10.215 -0.4646 -0.4536  1.1820
    6CHL1   C20  420   1.178  -0.127   9.387 -0.0239  0.6600 -0.7266
    6CHL1   H20  421   1.233  -0.031   9.380  0.8070  0.2330 -0.2211
    6CHL1   C21  422   1.026  -0.096   9.344 -0.6289  0.0502 -0.6966
    6CHL1  H21A  423   1.018  -0.116   9.235 -2.2953 -0.3844 -0.5096
    6CHL1  H21B  424   1.000   0.010   9.367  2.5783  0.3489  1.8892
    6CHL1  H21C  425   0.948  -0.158   9.393  1.0275 -2.4500 -1.1208
    6CHL1   C22  426   1.252  -0.227   9.300 -0.1697 -0.0555 -0.4691
    6CHL1  H22A  427   1.350  -0.254   9.346  0.3223  0.4073 -1.2413
    6CHL1  H22B  428   1.189  -0.317   9.285 -0.4765  0.1913 -0.6463
    6CHL1   C23  429   1.287  -0.168   9.162 -0.1223  0.3749  0.1176
    6CHL1  H23A  430   1.312  -0.250   9.092  1.9755  0.1966  1.0603
    6CHL1  H23B  431   1.201  -0.123   9.108 -1.9915 -2.6043  0.4922
    6CHL1   C24  432   1.408  -0.066   9.155  0.4145  0.1901 -0.4608
    6CHL1  H24A  433   1.390   0.031   9.206  0.3921 -0.7455  1.3693
    6CHL1  H24B  434   1.490  -0.118   9.209 -0.1773 -0.5428 -0.2563
    6CHL1   C25  435   1.447  -0.025   9.015 -0.9091 -0.1659  0.0896
    6CHL1   H25  436   1.359   0.003   8.954  0.0274  1.4809 -0.5546
    6CHL1   C26  437   1.547   0.096   9.008 -0.2310  0.3729 -0.6972
    6CHL1  H26A  438   1.488   0.189   9.024  0.5951  0.7384  0.3219
    6CHL1  H26B  439   1.613   0.092   9.098 -0.6104 -0.6670 -0.4521
    6CHL1  H26C  440   1.603   0.099   8.913  2.5948  1.7594  0.9427
    6CHL1   C27  441   1.508  -0.144   8.944  0.5839 -0.7359 -0.7026
    6CHL1  H27A  442   1.589  -0.191   9.005 -0.9243  0.3083  2.1826
    6CHL1  H27B  443   1.432  -0.224   8.932 -0.6291  0.0902  1.1448
    6CHL1  H27C  444   1.529  -0.122   8.838 -1.5336 -0.5346 -1.0826
    7CHL1    C3  445   5.007   3.196  10.350 -0.2080 -0.0900  0.7836
    7CHL1    H3  446   5.099   3.249  10.382  0.5491  0.0323 -1.4862
    7CHL1    O3  447   4.938   3.124  10.455 -0.7293 -0.4652 -0.4339
    7CHL1   H3'  448   4.892   3.195  10.500 -0.2867 -0.3940 -0.0853
    7CHL1    C4  449   4.906   3.306  10.301  0.4880  0.2912  0.7761
    7CHL1   H4A  450   4.798   3.284  10.295  0.4843  0.9275 -1.6909
    7CHL1   H4B  451   4.912   3.380  10.384 -0.3501  1.5196 -0.2405
    7CHL1    C5  452   4.958   3.382  10.181 -0.1710  0.8126  0.4681
    7CHL1    C6  453   4.969   3.517  10.184 -0.6360  0.1007 -0.2494
    7CHL1    H6  454   4.930   3.572  10.271 -0.2094  1.4281 -0.8906
    7CHL1    C7  455   5.013   3.596  10.069 -0.1480  0.0457  0.0157
    7CHL1   H7A  456   4.947   3.685  10.055  0.8735  1.0154  1.3196
    7CHL1   H7B  457   5.116   3.636  10.079  0.1314  0.0805 -2.6692
    7CHL1    C8  458   5.004   3.513   9.936 -0.1308  0.3483 -0.4686
    7CHL1    H8  459   4.896   3.510   9.907  0.0273  0.7045 -1.0923
    7CHL1   C14  460   5.092   3.585   9.829  0.1593  0.4404 -0.0552
    7CHL1   H14  461   5.198   3.575   9.860  0.7807  0.8955 -1.9896
    7CHL1   C15  462   5.064   3.733   9.803 -1.0615 -0.2031  0.3515
    7CHL1  H15A  463   4.956   3.758   9.804 -0.6370  1.7112  0.4560
    7CHL1  H15B  464   5.104   3.792   9.889 -1.4212  1.1809 -0.4177
    7CHL1   C16  465   5.118   3.762   9.664 -0.5409 -1.1196 -0.8611
    7CHL1  H16A  466   5.033   3.807   9.608  0.0165  0.7401 -0.2388
    7CHL1  H16B  467   5.205   3.831   9.676 -0.3199 -1.7538  1.2542
    7CHL1   C17  468   5.162   3.619   9.612  0.9903 -0.2886 -0.4469
    7CHL1   H17  469   5.264   3.610   9.654  0.5433 -3.9872  0.0005
    7CHL1   C13  470   5.079   3.518   9.694 -0.5641  0.3206  0.1771
    7CHL1   C18  471   4.936   3.508   9.637  0.1624 -0.4081  0.7851
    7CHL1  H18A  472   4.878   3.428   9.687 -0.4613 -0.1984  0.3924
    7CHL1  H18B  473   4.890   3.609   9.650  2.0255  0.9553 -2.5496
    7CHL1  H18C  474   4.927   3.475   9.532  1.0785  0.1680  0.5142
    7CHL1   C12  475   5.138   3.378   9.705 -0.1583 -0.0823  0.9385
    7CHL1  H12A  476   5.118   3.320   9.613 -1.5815 -1.1105  1.8831
    7CHL1  H12B  477   5.248   3.382   9.719 -0.1577  0.6579  0.7411
    7CHL1   C11  478   5.067   3.304   9.819  0.1616  0.3231  0.5259
    7CHL1  H11A  479   4.961   3.284   9.790  0.2947  2.3138 -1.5142
    7CHL1  H11B  480   5.116   3.206   9.834 -1.1232 -0.6461 -1.3494
    7CHL1    C9  481   5.061   3.375   9.957  0.6291  0.4971 -0.3360
    7CHL1    H9  482   5.167   3.388   9.988 -0.0584  1.3741  1.8308
    7CHL1   C10  483   4.993   3.288  10.069  0.4080  1.1273  0.5687
    7CHL1   C19  484   4.853   3.235  10.027 -0.2661 -0.6969 -0.1522
    7CHL1  H19A  485   4.789   3.320   9.993  1.2308 -0.1445 -1.6476
    7CHL1  H19B  486   4.867   3.166   9.942 -0.7112  0.1271 -0.9058
    7CHL1  H19C  487   4.801   3.184  10.111 -3.4017  2.7992  0.1994
    7CHL1    C1  488   5.095   3.175  10.108 -0.3851 -0.8582 -0.3178
    7CHL1   H1A  489   5.115   3.099  10.030 -3.7147 -1.0128 -1.0491
    7CHL1   H1B  490   5.190   3.227  10.136 -0.0033 -1.9419  0.4400
    7CHL1    C2  491   5.039   3.102  10.237  0.1899  0.1720  0.2371
    7CHL1   H2A  492   5.098   3.021  10.283 -0.8900  0.1120  1.5547
    7CHL1   H2B  493   4.948   3.045  10.208  1.2496 -1.4356  0.0396
    7CHL1   C20  494   5.176   3.595   9.457  0.0870 -0.4855  0.4612
    7CHL1   H20  495   5.135   3.494   9.437  0.5484 -0.3244 -1.3830
    7CHL1   C21  496   5.323   3.585   9.417 -0.5194 -0.5196  0.0378
    7CHL1  H21A  497   5.337   3.563   9.309  1.8288  1.0384 -0.0189
    7CHL1  H21B  498   5.372   3.504   9.474 -0.4787 -0.5938 -0.1029
    7CHL1  H21C  499   5.369   3.684   9.440 -3.3623  0.7700  0.3915
    7CHL1   C22  500   5.089   3.706   9.384  0.0829 -0.8099  0.6715
    7CHL1  H22A  501   4.986   3.710   9.427 -1.0875 -1.2959 -2.0168
    7CHL1  H22B  502   5.140   3.804   9.394  0.7752 -1.0867 -0.0842
    7CHL1   C23  503   5.060   3.666   9.237 -0.4205 -0.4931 -0.0059
    7CHL1  H23A  504   5.154   3.666   9.179 -0.1554  0.1203  0.4128
    7CHL1  H23B  505   5.026   3.560   9.235 -1.9779  0.0005 -1.2855
    7CHL1   C24  506   4.957   3.762   9.162 -0.1320  0.2559  0.2062
    7CHL1  H24A  507   4.871   3.795   9.224 -1.1538 -1.3410 -0.3371
    7CHL1  H24B  508   5.022   3.849   9.137  1.3648 -1.2625 -1.2885
    7CHL1   C25  509   4.892   3.702   9.036  0.5157 -0.0954  0.2517
    7CHL1   H25  510   4.972   3.651   8.977  0.4171 -1.2583  1.1185
    7CHL1   C26  511   4.779   3.597   9.064 -0.4995  0.1720 -0.0797
    7CHL1  H26A  512   4.733   3.546   8.977 -1.1103  0.3406  0.1412
    7CHL1  H26B  513   4.819   3.520   9.134  0.4432  0.1072 -0.6834
    7CHL1  H26C  514   4.697   3.649   9.118 -0.1302  1.3380 -0.6310
    7CHL1   C27  515   4.856   3.825   8.950 -0.2712 -0.3749  0.8019
    7CHL1  H27A  516   4.940   3.895   8.928 -2.8612  2.4123 -0.5287
    7CHL1  H27B  517   4.816   3.782   8.856  1.6551  3.1529 -1.7726
    7CHL1  H27C  518   4.780   3.883   9.006 -0.2603  0.9447 -0.5067
    8CHL1    C3  519   5.234   4.830  10.390 -0.2792  0.4801  0.1772
    8CHL1    H3  520   5.315   4.894  10.348 -0.1409 -1.2889 -2.4037
    8CHL1    O3  521   5.246   4.816  10.532  0.3297  0.9172 -0.2086
    8CHL1   H3'  522   5.164   4.779  10.565  0.9289  0.1063  0.3893
    8CHL1    C4  523   5.093   4.892  10.367 -0.1231  0.3695  0.6857
    8CHL1   H4A  524   5.028   4.808  10.401 -0.3487  0.8381  1.4181
    8CHL1   H4B  525   5.085   4.986  10.426  1.1534  2.0624 -1.7283
    8CHL1    C5  526   5.061   4.916  10.225  0.2489  0.1623 -0.1279
    8CHL1    C6  527   5.035   5.036  10.166 -0.8692  0.2414 -0.1230
    8CHL1    H6  528   5.037   5.124  10.231  0.6395 -0.4992  0.8403
    8CHL1    C7  529   4.993   5.048  10.021  0.9697 -0.5238  0.0342
    8CHL1   H7A  530   4.896   5.100  10.006  1.3070  0.4692  1.2516
    8CHL1   H7B  531   5.073   5.105   9.970  2.3216 -2.6110 -0.2600
    8CHL1    C8  532   4.985   4.913   9.942 -0.5452  0.7037 -0.3610
    8CHL1    H8  533   4.884   4.869   9.957  0.1740 -1.3507 -1.4454
    8CHL1   C14  534   4.988   4.936   9.798 -0.1416  0.0991  0.3734
    8CHL1   H14  535   5.085   4.985   9.778  0.2100 -0.9709 -0.6312
    8CHL1   C15  536   4.868   5.021   9.752 -0.3581  0.5010  0.2172
    8CHL1  H15A  537   4.778   4.977   9.800  0.6389 -1.0763  0.6883
    8CHL1  H15B  538   4.884   5.128   9.777 -0.5760  0.8718 -1.1963
    8CHL1   C16  539   4.869   4.998   9.599  0.2872 -0.9439 -0.1014
    8CHL1  H16A  540   4.767   4.958   9.578  0.1857 -0.5398 -0.3693
    8CHL1  H16B  541   4.895   5.090   9.543  0.1199 -0.6474  0.3119
    8CHL1   C17  542   4.970   4.879   9.569  0.5094 -0.2618  0.5102
    8CHL1   H17  543   5.070   4.921   9.546 -0.1995  0.9876 -0.3337
    8CHL1   C13  544   4.983   4.811   9.709 -0.2727  0.2758  0.4598
    8CHL1   C18  545   4.861   4.727   9.734 -0.1121  0.1420 -0.5329
    8CHL1  H18A  546   4.765   4.776   9.707 -0.7935 -1.1361 -0.4784
    8CHL1  H18B  547   4.883   4.639   9.671  3.2051  0.1617  0.5042
    8CHL1  H18C  548   4.843   4.683   9.835 -1.9103 -0.0992 -0.9416
    8CHL1   C12  549   5.115   4.729   9.740 -0.2412  0.2091 -0.1797
    8CHL1  H12A  550   5.136   4.648   9.668  0.6373  0.9985 -0.8212
    8CHL1  H12B  551   5.200   4.800   9.732 -0.0998 -0.1156 -1.6545
    8CHL1   C11  552   5.104   4.693   9.893  0.0447  0.1842 -0.8221
    8CHL1  H11A  553   5.029   4.613   9.905  0.6192 -0.2359  0.0377
    8CHL1  H11B  554   5.199   4.642   9.919  0.0910  0.8680  0.3662
    8CHL1    C9  555   5.087   4.810   9.985 -0.2621 -0.0817  0.4352
    8CHL1    H9  556   5.182   4.868   9.976 -1.4559  1.9598  0.7025
    8CHL1   C10  557   5.083   4.782  10.139 -0.4584  0.1239 -0.1712
    8CHL1   C19  558   4.971   4.689  10.160 -0.3537 -0.0220  0.3248
    8CHL1  H19A  559   5.003   4.596  10.109  0.3447  1.4159 -1.9533
    8CHL1  H19B  560   4.968   4.653  10.265  1.5511  0.0221  0.4047
    8CHL1  H19C  561   4.873   4.725  10.123  0.7216  2.4480 -0.2072
    8CHL1    C1  562   5.217   4.711  10.174  0.7246  0.2962  0.1021
    8CHL1   H1A  563   5.213   4.611  10.124 -0.1610  0.4763 -0.1965
    8CHL1   H1B  564   5.295   4.775  10.129 -1.7976  3.1264 -0.3352
    8CHL1    C2  565   5.255   4.696  10.323 -0.0429 -0.0993  0.4825
    8CHL1   H2A  566   5.365   4.678  10.317  0.0432  0.9276 -1.4635
    8CHL1   H2B  567   5.194   4.615  10.368  0.2847 -1.9946 -2.3873
    8CHL1   C20  568   4.918   4.795   9.447  0.2065 -0.0176 -0.6804
    8CHL1   H20  569   4.819   4.755   9.476 -0.2415  0.8552 -0.9808
    8CHL1   C21  570   5.010   4.683   9.404 -0.7934  0.6761 -0.4203
    8CHL1  H21A  571   5.032   4.597   9.470  0.8117  0.5771 -1.0406
    8CHL1  H21B  572   5.114   4.721   9.387 -0.2336  0.1009  1.5996
    8CHL1  H21C  573   4.974   4.635   9.311  1.5523 -1.2391 -0.3950
    8CHL1   C22  574   4.890   4.882   9.320 -0.1305 -0.5104  0.1781
    8CHL1  H22A  575   4.849   4.813   9.243 -1.1150 -0.4961  0.6939
    8CHL1  H22B  576   4.823   4.970   9.328  0.2847  0.0014 -1.6623
    8CHL1   C23  577   5.018   4.945   9.255  0.0166  0.3671 -0.0228
    8CHL1  H23A  578   5.043   5.035   9.315  1.5437  1.1036 -1.7010
    8CHL1  H23B  579   5.106   4.878   9.256  0.0238  0.1968 -4.0844
    8CHL1   C24  580   4.984   5.003   9.115  0.3621 -0.0161  0.5784
    8CHL1  H24A  581   4.951   4.919   9.050 -1.9627  0.5024  1.0496
    8CHL1  H24B  582   4.904   5.078   9.131 -1.0474 -1.4270  0.2392
    8CHL1   C25  583   5.106   5.066   9.043  0.4079  0.1553 -0.8176
    8CHL1   H25  584   5.169   4.979   9.016 -1.7910 -1.3318 -1.2839
    8CHL1   C26  585   5.064   5.136   8.910  0.7305 -0.1726 -0.0418
    8CHL1  H26A  586   4.985   5.206   8.943  0.8889 -0.7262  1.5761
    8CHL1  H26B  587   5.156   5.184   8.870 -0.2543 -0.3284 -2.6138
    8CHL1  H26C  588   5.028   5.066   8.832  2.0138 -0.2177 -0.6181
    8CHL1   C27  589   5.189   5.169   9.130  0.4669 -0.5718  0.2013
    8CHL1  H27A  590   5.280   5.202   9.075  0.2296 -0.4737 -0.1388
    8CHL1  H27B  591   5.124   5.255   9.154 -0.4735 -0.9421 -0.9791
    8CHL1  H27C  592   5.199   5.115   9.227 -1.0141 -3.1818 -1.0414
    9CHL1    C3  593   1.018   1.056  10.172  0.0606  0.5564  0.3602
    9CHL1    H3  594   0.959   1.137  10.124  0.2433  1.2232  1.2375
    9CHL1    O3  595   1.006   1.047  10.310 -0.1833 -0.0152  0.3190
    9CHL1   H3'  596   1.079   0.990  10.336 -0.3186 -0.6997 -0.8246
    9CHL1    C4  597   0.979   0.917  10.110 -0.3733  0.5571  0.0961
    9CHL1   H4A  598   1.047   0.835  10.145  1.0421  2.1267  1.0947
    9CHL1   H4B  599   0.878   0.883  10.141 -0.1592 -0.3043 -0.1218
    9CHL1    C5  600   0.983   0.925   9.961 -0.4441 -0.1776  1.2164
    9CHL1    C6  601   0.874   0.905   9.884 -0.4181 -0.0382 -0.9112
    9CHL1    H6  602   0.779   0.875   9.930 -0.7083 -0.2007 -1.6188
    9CHL1    C7  603   0.857   0.926   9.733 -0.0568  0.3237  1.2101
    9CHL1   H7A  604   0.808   0.838   9.686 -0.4538  1.0542  0.2484
    9CHL1   H7B  605   0.791   1.013   9.713  1.0790  1.4559  2.3292
    9CHL1    C8  606   0.995   0.941   9.670 -0.7119  0.1252 -0.9026
    9CHL1    H8  607   1.035   0.838   9.658  0.1972  0.4834 -0.9461
    9CHL1   C14  608   0.976   0.995   9.527  0.0334  0.0295 -0.8040
    9CHL1   H14  609   0.954   1.104   9.537 -1.4675 -0.2185 -1.2168
    9CHL1   C15  610   0.854   0.948   9.441 -0.7881  1.2516 -0.5660
    9CHL1  H15A  611   0.843   0.837   9.437  1.9809  0.8132  2.1604
    9CHL1  H15B  612   0.752   0.980   9.472 -0.6479  0.5939  0.5739
    9CHL1   C16  613   0.896   1.010   9.304 -0.2142 -0.5219 -0.1600
    9CHL1  H16A  614   0.875   0.927   9.233 -1.5742 -0.5018  0.1948
    9CHL1  H16B  615   0.833   1.099   9.283 -1.2870 -0.7894  1.7686
    9CHL1   C17  616   1.039   1.054   9.304 -0.4105 -0.1601 -0.8460
    9CHL1   H17  617   1.036   1.162   9.327 -0.7898 -0.3220 -0.0984
    9CHL1   C13  618   1.104   0.990   9.435 -0.0325  0.1997 -0.2526
    9CHL1   C18  619   1.135   0.842   9.401  0.4905  0.5389 -0.1673
    9CHL1  H18A  620   1.147   0.789   9.498  0.0359  1.6952  0.5327
    9CHL1  H18B  621   1.065   0.784   9.338 -0.4009  1.2673  0.1344
    9CHL1  H18C  622   1.229   0.830   9.344 -0.4463 -0.2971 -1.5619
    9CHL1   C12  623   1.211   1.071   9.516  0.1513 -0.7880  0.5009
    9CHL1  H12A  624   1.309   1.040   9.473  0.4058 -0.2993  0.7247
    9CHL1  H12B  625   1.188   1.175   9.485  2.6539 -0.0018  1.1360
    9CHL1   C11  626   1.229   1.037   9.663 -0.1383  0.1027  1.1604
    9CHL1  H11A  627   1.292   0.947   9.670 -2.1777 -1.5514 -1.0246
    9CHL1  H11B  628   1.285   1.123   9.705  0.0641  0.7583 -0.4067
    9CHL1    C9  629   1.093   1.030   9.749 -0.7835  0.2593 -0.1153
    9CHL1    H9  630   1.053   1.133   9.749  1.2304  1.0926 -1.9830
    9CHL1   C10  631   1.113   0.973   9.899 -0.2823 -0.0133  0.0053
    9CHL1   C19  632   1.221   0.860   9.886  0.1770 -0.3201 -0.1203
    9CHL1  H19A  633   1.325   0.900   9.881  1.2011 -2.6923  1.2398
    9CHL1  H19B  634   1.218   0.797   9.978  0.8020 -1.8818 -1.1501
    9CHL1  H19C  635   1.203   0.784   9.807 -0.1406 -1.1522  0.7508
    9CHL1    C1  636   1.173   1.096   9.982 -0.9450  0.4876  0.9095
    9CHL1   H1A  637   1.279   1.105   9.950 -1.1279  1.1329  0.4682
    9CHL1   H1B  638   1.124   1.192   9.959  0.6219  1.4831  1.5894
    9CHL1    C2  639   1.161   1.088  10.139  0.3254 -0.7779  0.3543
    9CHL1   H2A  640   1.187   1.189  10.177  0.6801 -0.1191 -1.5844
    9CHL1   H2B  641   1.229   1.011  10.178 -0.6957  0.4166  4.7139
    9CHL1   C20  642   1.119   1.035   9.174  0.3409  0.2341  0.6248
    9CHL1   H20  643   1.140   0.927   9.155 -0.7890  0.2606 -0.8626
    9CHL1   C21  644   1.255   1.101   9.183  0.2078 -0.5038  0.4295
    9CHL1  H21A  645   1.309   1.043   9.260 -2.4268 -0.3035  2.5070
    9CHL1  H21B  646   1.245   1.205   9.219  1.6623 -0.1507 -0.1768
    9CHL1  H21C  647   1.300   1.107   9.082  0.9041  1.0211  0.8320
    9CHL1   C22  648   1.030   1.078   9.054  0.0376 -0.6994 -0.4796
    9CHL1  H22A  649   0.940   1.014   9.060  1.9226 -3.4719 -0.9364
    9CHL1  H22B  650   0.999   1.183   9.072  0.1757 -1.1210  2.4693
    9CHL1   C23  651   1.109   1.067   8.918 -0.1205  0.0515 -0.7023
    9CHL1  H23A  652   1.187   1.146   8.921 -0.2558  0.1454  0.3555
    9CHL1  H23B  653   1.160   0.969   8.915 -1.2992 -0.5457 -2.0096
    9CHL1   C24  654   1.037   1.079   8.780  0.2293  0.3886 -0.2341
    9CHL1  H24A  655   0.957   1.004   8.760 -0.8200  1.4752 -0.1577
    9CHL1  H24B  656   0.980   1.174   8.794  0.2256  0.7242 -2.3087
    9CHL1   C25  657   1.128   1.095   8.661  1.0172 -0.0810  0.8613
    9CHL1   H25  658   1.182   1.191   8.674  2.6081 -0.7965 -0.3529
    9CHL1   C26  659   1.235   0.984   8.646  0.1952 -0.3723 -0.7734
    9CHL1  H26A  660   1.316   1.013   8.716 -0.2012  1.6360 -1.1178
    9CHL1  H26B  661   1.185   0.887   8.670  0.8297 -0.5493 -0.1528
    9CHL1  H26C  662   1.278   0.979   8.544 -1.3606  0.0597 -1.4653
    9CHL1   C27  663   1.032   1.112   8.530  0.1872  0.4098  0.5211
    9CHL1  H27A  664   0.967   1.202   8.542 -1.0569 -0.4633  0.4893
    9CHL1  H27B  665   1.101   1.124   8.444  0.7275 -1.1260  0.7348
    9CHL1  H27C  666   0.979   1.018   8.505  0.6917  0.5062 -0.9035
   10CHL1    C3  667   0.122   5.165  10.240  0.3297 -0.2140 -0.4204
   10CHL1    H3  668   0.161   5.067  10.276  0.6567 -0.3506 -1.1343
   10CHL1    O3  669   0.071   5.237  10.356  0.1303 -0.0746 -0.1875
   10CHL1   H3'  670   0.117   5.194  10.428  1.3917 -1.4866 -1.7831
   10CHL1    C4  671   0.241   5.251  10.196  0.4136 -0.2539  0.6732
   10CHL1   H4A  672   0.201   5.355  10.203  1.4957  0.2576 -0.4946
   10CHL1   H4B  673   0.314   5.239  10.278  1.4577 -1.3955 -0.4061
   10CHL1    C5  674   0.303   5.228  10.060 -0.0412  0.5869  0.4950
   10CHL1    C6  675   0.433   5.211  10.037  0.2009  0.3995  0.6016
   10CHL1    H6  676   0.502   5.215  10.123  1.1477 -0.0748 -0.1208
   10CHL1    C7  677   0.496   5.184   9.902 -0.2677  0.4282 -0.0648
   10CHL1   H7A  678   0.578   5.255   9.878  0.4712 -0.8959 -1.5564
   10CHL1   H7B  679   0.545   5.085   9.907  1.1425  1.0224 -1.5832
   10CHL1    C8  680   0.393   5.186   9.788  0.0211 -0.4695 -0.0372
   10CHL1    H8  681   0.379   5.293   9.761  2.0149  0.1306  1.1721
   10CHL1   C14  682   0.453   5.111   9.666  0.1277  0.1192  1.0090
   10CHL1   H14  683   0.471   5.003   9.688 -0.8222  0.0671  1.5833
   10CHL1   C15  684   0.595   5.163   9.621  0.6537  0.6746 -0.0143
   10CHL1  H15A  685   0.604   5.273   9.634 -2.7136  1.1942 -1.4610
   10CHL1  H15B  686   0.679   5.122   9.682  1.4535  2.4872  0.1426
   10CHL1   C16  687   0.594   5.118   9.471 -0.6633  0.0599 -0.8545
   10CHL1  H16A  688   0.605   5.212   9.414  0.3954  0.1851 -0.4669
   10CHL1  H16B  689   0.679   5.050   9.448 -1.1781 -1.0084  0.3015
   10CHL1   C17  690   0.463   5.050   9.444 -0.3431  0.3631  0.2535
   10CHL1   H17  691   0.466   4.942   9.471  3.4625 -0.7998 -4.1334
   10CHL1   C13  692   0.367   5.111   9.545 -0.3287 -0.3217 -0.1202
   10CHL1   C18  693   0.331   5.251   9.508  0.2703  0.2590 -0.1877
   10CHL1  H18A  694   0.280   5.244   9.409  1.8848 -0.3505 -0.9878
   10CHL1  H18B  695   0.253   5.297   9.571 -0.4997  0.2350 -1.1010
   10CHL1  H18C  696   0.417   5.318   9.489  1.3313 -0.8816  0.5318
   10CHL1   C12  697   0.239   5.035   9.583  0.5108  0.5329 -0.6440
   10CHL1  H12A  698   0.167   5.030   9.498  0.4807  0.4980 -0.6161
   10CHL1  H12B  699   0.272   4.931   9.606  3.3178  1.1745 -1.6254
   10CHL1   C11  700   0.163   5.097   9.707  0.4840  0.1176  0.7702
   10CHL1  H11A  701   0.122   5.195   9.675 -1.2602  0.2667  3.3161
   10CHL1  H11B  702   0.077   5.028   9.720 -0.2332  0.5779 -1.3094
   10CHL1    C9  703   0.256   5.131   9.827 -0.6202  0.0827 -0.0993
   10CHL1    H9  704   0.297   5.039   9.873 -1.1037 -1.1493 -2.0314
   10CHL1   C10  705   0.189   5.197   9.952 -0.6238 -0.0104  0.0539
   10CHL1   C19  706   0.140   5.339   9.912  0.0074  0.1139 -0.3956
   10CHL1  H19A  707   0.116   5.403  10.000 -0.9769  0.8527 -1.1871
   10CHL1  H19B  708   0.215   5.397   9.854 -0.7065 -0.2172 -1.6564
   10CHL1  H19C  709   0.046   5.334   9.854 -0.1116  0.0763 -0.2003
   10CHL1    C1  710   0.074   5.100  10.002  0.4646 -0.4355 -0.1047
   10CHL1   H1A  711  -0.005   5.090   9.925 -0.8647  0.4225  1.1331
   10CHL1   H1B  712   0.105   4.998  10.034  2.0806  0.2788  0.6873
   10CHL1    C2  713   0.022   5.161  10.127 -0.5745 -0.0382  0.2093
   10CHL1   H2A  714  -0.055   5.095  10.172 -1.4043  0.5746 -0.2982
   10CHL1   H2B  715  -0.024   5.261  10.113 -3.2327 -0.9590  1.9703
   10CHL1   C20  716   0.436   5.054   9.289 -0.6834  0.0647  0.5966
   10CHL1   H20  717   0.400   5.156   9.264 -2.5388 -0.5456  0.6624
   10CHL1   C21  718   0.321   4.962   9.243  0.2520  0.2151 -0.4691
   10CHL1  H21A  719   0.231   4.995   9.300 -0.5852 -2.0761 -0.3911
   10CHL1  H21B  720   0.346   4.856   9.263  2.8844  0.9416  0.2331
   10CHL1  H21C  721   0.306   4.967   9.133 -0.2974  4.5744 -0.2897
   10CHL1   C22  722   0.557   5.004   9.204 -0.5292  0.1991 -0.1611
   10CHL1  H22A  723   0.647   5.065   9.226 -0.4724  0.0201  0.0975
   10CHL1  H22B  724   0.574   4.898   9.231  0.8321  1.0825  2.5656
   10CHL1   C23  725   0.557   5.000   9.048 -0.3705  0.7345 -0.4341
   10CHL1  H23A  726   0.496   4.917   9.007  0.8834  1.5321 -4.0523
   10CHL1  H23B  727   0.500   5.089   9.013 -1.8092 -0.0704 -0.1648
   10CHL1   C24  728   0.697   4.985   8.981  0.5313  1.1012 -0.6210
   10CHL1  H24A  729   0.762   5.056   9.036  1.2512  0.7167 -0.9761
   10CHL1  H24B  730   0.747   4.891   9.011 -1.1091  0.7542  1.1752
   10CHL1   C25  731   0.698   5.020   8.829 -0.3655  0.4736 -0.0250
   10CHL1   H25  732   0.644   5.113   8.800 -0.2334 -0.3429 -3.0000
   10CHL1   C26  733   0.839   5.046   8.767 -0.1320  0.6533  0.3276
   10CHL1  H26A  734   0.871   5.138   8.821 -0.2211  1.3191 -0.7525
   10CHL1  H26B  735   0.919   4.971   8.787  0.9867  2.2419  1.9559
   10CHL1  H26C  736   0.827   5.062   8.658  0.1744  0.4957  0.2677
   10CHL1   C27  737   0.635   4.914   8.746  0.0706  0.2165 -0.0653
   10CHL1  H27A  738   0.694   4.821   8.755  3.4061  2.5079  3.3369
   10CHL1  H27B  739   0.535   4.898   8.790  1.4345 -1.4583  2.5212
   10CHL1  H27C  740   0.626   4.954   8.642  1.3498 -3.3531 -1.6443
   11CHL1    C3  741   3.088   1.119  10.141 -0.1623  0.0990 -0.0298
   11CHL1    H3  742   3.190   1.163  10.138  0.3939 -1.1831 -0.4896
   11CHL1    O3  743   3.033   1.122  10.274 -0.1765 -0.1572  0.0012
   11CHL1   H3'  744   3.100   1.107  10.341 -0.9176  0.2625  0.8487
   11CHL1    C4  745   3.010   1.199  10.038  0.1699  0.2085  0.4998
   11CHL1   H4A  746   2.906   1.162  10.048  0.0039  0.2060 -1.2058
   11CHL1   H4B  747   3.017   1.303  10.076 -1.1945  1.3523 -2.2593
   11CHL1    C5  748   3.049   1.185   9.893 -0.3750  0.4483  0.0724
   11CHL1    C6  749   3.062   1.297   9.822 -0.4244  0.2289 -0.2505
   11CHL1    H6  750   3.048   1.400   9.859  1.5969  1.0181 -1.6080
   11CHL1    C7  751   3.114   1.293   9.681 -0.1110  0.0828  0.3197
   11CHL1   H7A  752   3.042   1.352   9.621 -1.0053  0.2992  1.5788
   11CHL1   H7B  753   3.217   1.336   9.673 -0.0258 -0.1829  0.0016
   11CHL1    C8  754   3.110   1.157   9.612 -0.5227 -0.3950  0.6387
   11CHL1    H8  755   3.004   1.127   9.592 -0.1383 -1.4724  0.1982
   11CHL1   C14  756   3.181   1.163   9.481  0.2994  0.0779  0.0191
   11CHL1   H14  757   3.286   1.183   9.511  0.2086  0.2202  0.2453
   11CHL1   C15  758   3.130   1.270   9.383 -0.2817  0.5604  0.9382
   11CHL1  H15A  759   3.020   1.264   9.375 -0.2041 -0.7339  0.7037
   11CHL1  H15B  760   3.162   1.375   9.398  0.4228  0.5405 -0.3137
   11CHL1   C16  761   3.189   1.216   9.252  0.5840 -0.1548  0.1524
   11CHL1  H16A  762   3.101   1.204   9.186 -0.0704  0.3925  0.9102
   11CHL1  H16B  763   3.260   1.289   9.208  0.8943 -0.6001 -0.0903
   11CHL1   C17  764   3.240   1.070   9.283  0.4177  0.1704 -0.7993
   11CHL1   H17  765   3.348   1.080   9.306  1.1295 -1.9017 -3.0332
   11CHL1   C13  766   3.175   1.028   9.414 -0.6761  0.0479  0.1682
   11CHL1   C18  767   3.034   0.986   9.385  0.0144 -0.7424 -0.8403
   11CHL1  H18A  768   2.980   0.956   9.477 -1.6767  1.5976 -1.0310
   11CHL1  H18B  769   2.976   1.067   9.336  1.4037  1.1945  0.6566
   11CHL1  H18C  770   3.028   0.900   9.315  2.7348 -1.1605 -0.6117
   11CHL1   C12  771   3.254   0.932   9.499 -0.3781 -0.7635  0.8046
   11CHL1  H12A  772   3.254   0.828   9.459  4.2211 -1.1560  1.6301
   11CHL1  H12B  773   3.363   0.949   9.502 -0.1003 -2.4012  0.6391
   11CHL1   C11  774   3.190   0.921   9.640 -0.1029  0.0853  0.5396
   11CHL1  H11A  775   3.095   0.867   9.617  0.7607 -1.4308  0.4830
   11CHL1  H11B  776   3.247   0.855   9.708 -0.4700 -1.4876 -0.6401
   11CHL1    C9  777   3.169   1.054   9.704  0.0294 -0.0158  0.8932
   11CHL1    H9  778   3.271   1.088   9.731  0.5734 -0.0610 -1.0582
   11CHL1   C10  779   3.088   1.046   9.839 -0.2623 -0.1938 -0.3472
   11CHL1   C19  780   2.950   0.977   9.820 -0.2365 -0.7876 -0.4063
   11CHL1  H19A  781   2.961   0.874   9.779 -2.3700 -1.2304  0.1013
   11CHL1  H19B  782   2.905   0.969   9.921 -0.1934  0.1686 -0.3110
   11CHL1  H19C  783   2.883   1.029   9.749 -0.7413  1.0608  1.3814
   11CHL1    C1  784   3.164   0.965   9.952  0.7634  0.8662 -0.3414
   11CHL1   H1A  785   3.162   0.857   9.926 -2.0194  0.7952  0.0419
   11CHL1   H1B  786   3.272   0.992   9.958  0.9025  0.2272  0.1399
   11CHL1    C2  787   3.104   0.971  10.093  0.7545 -0.4194  0.2505
   11CHL1   H2A  788   3.157   0.917  10.174 -2.3286 -1.3737  1.6781
   11CHL1   H2B  789   3.003   0.926  10.096 -0.2140  1.7325  0.8543
   11CHL1   C20  790   3.232   0.982   9.154 -1.1827 -0.3502  0.2021
   11CHL1   H20  791   3.128   0.968   9.118 -0.5571 -0.3541 -1.6385
   11CHL1   C21  792   3.294   0.845   9.186 -0.2187  0.0809  0.1623
   11CHL1  H21A  793   3.265   0.777   9.102 -1.1202  1.1179 -0.3666
   11CHL1  H21B  794   3.255   0.783   9.269 -0.1717 -0.8759 -0.5141
   11CHL1  H21C  795   3.403   0.854   9.208 -0.6008  1.7485  1.4460
   11CHL1   C22  796   3.313   1.057   9.043  0.2674 -0.2475 -0.0570
   11CHL1  H22A  797   3.266   1.153   9.014  0.1881 -0.4403 -0.5789
   11CHL1  H22B  798   3.415   1.085   9.077  1.0200  0.0390 -2.4140
   11CHL1   C23  799   3.342   0.969   8.923  0.7053 -0.7203 -0.0286
   11CHL1  H23A  800   3.416   0.890   8.948  0.3370 -1.5846 -1.5591
   11CHL1  H23B  801   3.247   0.919   8.898  1.0793 -1.3613 -0.1787
   11CHL1   C24  802   3.389   1.048   8.799  0.2548  0.1997 -0.4121
   11CHL1  H24A  803   3.310   1.125   8.790  0.7844  0.8614  0.5021
   11CHL1  H24B  804   3.495   1.078   8.816  0.8659 -1.0777 -1.8174
   11CHL1   C25  805   3.368   0.962   8.664 -0.0008 -0.4570  0.1373
   11CHL1   H25  806   3.402   0.862   8.696  0.2776 -0.4235 -0.0485
   11CHL1   C26  807   3.229   0.944   8.623  0.1309 -0.2940 -0.0643
   11CHL1  H26A  808   3.166   0.906   8.706  1.3316 -2.1316  0.0388
   11CHL1  H26B  809   3.177   1.039   8.599  3.6892  1.3129 -1.6227
   11CHL1  H26C  810   3.210   0.880   8.534  0.2995  0.9515 -1.0043
   11CHL1   C27  811   3.448   1.016   8.544 -0.2345 -0.4166  1.0328
   11CHL1  H27A  812   3.452   0.947   8.457 -2.7804 -0.4936  0.9187
   11CHL1  H27B  813   3.413   1.117   8.515  0.9099  0.1787  1.7042
   11CHL1  H27C  814   3.555   1.023   8.574  0.3673 -0.8113 -0.9748
   12CHL1    C3  815   6.262   4.463  10.192  0.4017 -0.0839 -0.0963
   12CHL1    H3  816   6.285   4.544  10.119 -0.7365 -1.0823 -1.5832
   12CHL1    O3  817   6.309   4.514  10.317 -0.2379  0.4067  0.1652
   12CHL1   H3'  818   6.280   4.459  10.390 -0.5480 -1.6170 -1.4291
   12CHL1    C4  819   6.115   4.414  10.200  0.2751 -0.9237 -0.2824
   12CHL1   H4A  820   6.116   4.324  10.266 -3.1011 -0.7148  0.1281
   12CHL1   H4B  821   6.054   4.498  10.239 -1.3131 -2.0992 -0.1999
   12CHL1    C5  822   6.060   4.368  10.063  0.3604 -0.4705  0.5842
   12CHL1    C6  823   5.943   4.425  10.019  0.2067  0.8656  0.1357
   12CHL1    H6  824   5.900   4.508  10.077 -1.0713 -1.6171  2.8770
   12CHL1    C7  825   5.872   4.382   9.892 -0.3754  0.1817 -0.0439
   12CHL1   H7A  826   5.766   4.353   9.907 -0.4841  0.3409 -0.4934
   12CHL1   H7B  827   5.872   4.473   9.828  0.0915 -1.6522 -2.7373
   12CHL1    C8  828   5.943   4.271   9.811  0.5600  0.5301  0.2750
   12CHL1    H8  829   5.902   4.176   9.850  0.2687  0.5281 -0.0335
   12CHL1   C14  830   5.907   4.278   9.662 -0.0587 -0.7690  0.3792
   12CHL1   H14  831   5.949   4.373   9.622  2.6207 -1.9811  0.2291
   12CHL1   C15  832   5.764   4.283   9.623  0.4500 -0.4319 -0.3870
   12CHL1  H15A  833   5.701   4.205   9.671  0.6283 -0.5855 -0.4043
   12CHL1  H15B  834   5.723   4.380   9.660  0.8051 -0.8292  1.0794
   12CHL1   C16  835   5.763   4.262   9.472 -0.2008  0.5478 -0.6186
   12CHL1  H16A  836   5.694   4.183   9.436  0.1862 -0.8907  1.6851
   12CHL1  H16B  837   5.743   4.357   9.419 -0.2732  0.7491 -0.2322
   12CHL1   C17  838   5.910   4.207   9.434  0.3069 -0.2093 -0.3524
   12CHL1   H17  839   5.962   4.297   9.395 -0.7891  0.0165 -1.3527
   12CHL1   C13  840   5.973   4.171   9.574  0.2396 -0.1444  0.5266
   12CHL1   C18  841   5.929   4.021   9.611  0.6325 -0.2828 -0.1635
   12CHL1  H18A  842   5.984   3.954   9.541  1.2239  0.2401 -0.2048
   12CHL1  H18B  843   5.941   4.000   9.719  1.8185  0.0318 -0.2195
   12CHL1  H18C  844   5.822   4.002   9.588  0.8002 -0.6090 -0.7007
   12CHL1   C12  845   6.126   4.191   9.587 -0.1276 -0.0066 -0.1655
   12CHL1  H12A  846   6.167   4.115   9.518  1.5611  0.6288  0.1228
   12CHL1  H12B  847   6.142   4.292   9.543  0.4365 -1.3354 -3.0909
   12CHL1   C11  848   6.179   4.173   9.734 -0.1611  0.6875  0.6074
   12CHL1  H11A  849   6.165   4.072   9.777 -0.1334  0.7084  0.6652
   12CHL1  H11B  850   6.283   4.209   9.746  0.0104  0.7748 -0.9732
   12CHL1    C9  851   6.096   4.261   9.830 -0.3808  0.9579 -0.3045
   12CHL1    H9  852   6.129   4.361   9.795  1.4334 -0.2792 -2.2238
   12CHL1   C10  853   6.144   4.257   9.990 -0.2049  0.3986 -0.6758
   12CHL1   C19  854   6.123   4.117  10.051 -0.2996  0.9701 -0.0344
   12CHL1  H19A  855   6.113   4.134  10.161 -1.9060  1.2279 -0.2112
   12CHL1  H19B  856   6.033   4.075  10.003  0.6378 -0.6333 -0.4087
   12CHL1  H19C  857   6.208   4.049  10.029 -1.7779 -1.5961  2.0440
   12CHL1    C1  858   6.293   4.296  10.003 -0.1863  1.0800 -0.2334
   12CHL1   H1A  859   6.359   4.211   9.975 -0.5497  1.6428 -2.8588
   12CHL1   H1B  860   6.328   4.376   9.935  1.4513 -0.7377 -1.5990
   12CHL1    C2  861   6.345   4.341  10.141  0.6658  0.2591 -0.0761
   12CHL1   H2A  862   6.450   4.377  10.133  0.8257 -0.0744  0.5144
   12CHL1   H2B  863   6.340   4.260  10.217  2.7443 -0.3667 -0.5565
   12CHL1   C20  864   5.917   4.117   9.310 -0.1716  0.2560  0.1890
   12CHL1   H20  865   5.861   4.024   9.331 -0.7500 -0.2201 -3.1678
   12CHL1   C21  866   6.067   4.087   9.276  0.0129 -0.3947 -0.1769
   12CHL1  H21A  867   6.070   4.012   9.194 -1.1345 -1.9057  1.1289
   12CHL1  H21B  868   6.109   4.035   9.364 -0.4508  1.1045  0.9564
   12CHL1  H21C  869   6.137   4.172   9.259  1.0108 -1.3168 -0.7259
   12CHL1   C22  870   5.845   4.180   9.187  0.2243 -0.4288  0.4590
   12CHL1  H22A  871   5.749   4.205   9.238  1.7221  1.5323  2.4014
   12CHL1  H22B  872   5.897   4.271   9.150 -1.6174  0.3177 -0.3596
   12CHL1   C23  873   5.827   4.086   9.066  0.6903 -0.4254  0.2157
   12CHL1  H23A  874   5.933   4.086   9.032  0.4331  0.8371 -0.6285
   12CHL1  H23B  875   5.802   3.984   9.101 -1.1972 -0.7538 -1.9593
   12CHL1   C24  876   5.723   4.127   8.961 -0.5647  0.0191 -0.7056
   12CHL1  H24A  877   5.625   4.130   9.013 -0.8230  0.4699 -1.2087
   12CHL1  H24B  878   5.746   4.226   8.915  0.8860  0.7030  1.4344
   12CHL1   C25  879   5.707   4.015   8.853  0.3074 -0.6023 -0.1826
   12CHL1   H25  880   5.754   3.920   8.886  1.4107 -0.4510 -1.2825
   12CHL1   C26  881   5.559   3.987   8.832  0.7601  0.2154 -0.2757
   12CHL1  H26A  882   5.505   3.945   8.919  2.0228 -2.2619 -0.6743
   12CHL1  H26B  883   5.501   4.075   8.797 -0.7465 -0.7679 -0.2764
   12CHL1  H26C  884   5.538   3.917   8.748 -1.3856 -0.3159  0.6682
   12CHL1   C27  885   5.769   4.059   8.719 -0.3849 -0.5316 -0.6128
   12CHL1  H27A  886   5.728   4.161   8.699 -1.0019 -1.0705 -2.2140
   12CHL1  H27B  887   5.880   4.065   8.720 -0.3794 -0.5541  1.7904
   12CHL1  H27C  888   5.738   3.992   8.636  2.7125 -0.6585 -1.7376
   13CHL1    C3  889   4.709   6.387   9.960 -0.2257  0.3252 -0.1520
   13CHL1    H3  890   4.631   6.465   9.948 -1.6414 -0.3692  3.8509
   13CHL1    O3  891   4.755   6.389  10.095 -0.5830  0.1022  0.2778
   13CHL1   H3'  892   4.848   6.367  10.084 -0.7875  0.3998 -2.6347
   13CHL1    C4  893   4.646   6.253   9.926  0.4541  0.2938  0.4238
   13CHL1   H4A  894   4.725   6.175   9.931  0.0133 -0.2869 -1.1426
   13CHL1   H4B  895   4.562   6.241   9.997  1.1061 -0.1573  1.1205
   13CHL1    C5  896   4.593   6.250   9.786 -0.6448  0.7035  0.8940
   13CHL1    C6  897   4.471   6.199   9.749  0.6565 -0.1278 -0.7055
   13CHL1    H6  898   4.396   6.168   9.823 -0.2182  0.0425 -1.5112
   13CHL1    C7  899   4.412   6.195   9.610 -0.0599  0.1112  0.5399
   13CHL1   H7A  900   4.351   6.103   9.593 -1.0196  1.2177 -2.2637
   13CHL1   H7B  901   4.339   6.278   9.600 -0.2119 -0.2862 -1.8871
   13CHL1    C8  902   4.524   6.209   9.503 -0.2108 -0.2177  0.0532
   13CHL1    H8  903   4.577   6.112   9.495 -0.8226 -0.5565  0.0724
   13CHL1   C14  904   4.466   6.254   9.368  0.0786 -0.5938  0.3264
   13CHL1   H14  905   4.415   6.349   9.394 -2.5430 -1.9079  0.2128
   13CHL1   C15  906   4.352   6.176   9.293 -0.1188 -0.3700 -0.6143
   13CHL1  H15A  907   4.356   6.068   9.318  2.1301 -0.7619 -2.4137
   13CHL1  H15B  908   4.254   6.199   9.338 -0.0224 -2.3588  0.6650
   13CHL1   C16  909   4.355   6.222   9.152  0.3734  0.5975  0.1090
   13CHL1  H16A  910   4.364   6.131   9.088 -4.7519 -0.5522  0.7883
   13CHL1  H16B  911   4.256   6.265   9.126 -0.6965 -1.5914  0.4473
   13CHL1   C17  912   4.475   6.318   9.140  0.4865 -0.4162  0.6265
   13CHL1   H17  913   4.426   6.414   9.167 -2.3309 -1.5505 -0.2768
   13CHL1   C13  914   4.571   6.281   9.257 -0.4364  0.2179 -0.4718
   13CHL1   C18  915   4.646   6.144   9.230 -0.0299  0.0475 -0.2017
   13CHL1  H18A  916   4.706   6.122   9.321 -1.4859 -0.9261  0.5428
   13CHL1  H18B  917   4.569   6.067   9.210  1.5483 -1.2384 -1.4993
   13CHL1  H18C  918   4.711   6.158   9.141 -0.6912  0.4859 -0.6144
   13CHL1   C12  919   4.656   6.398   9.303 -0.1954 -0.4357  0.3705
   13CHL1  H12A  920   4.742   6.425   9.238 -0.1453  0.9586  0.9959
   13CHL1  H12B  921   4.597   6.491   9.314 -0.9741 -0.5181 -2.8084
   13CHL1   C11  922   4.719   6.370   9.438 -0.3664 -0.3183 -0.4445
   13CHL1  H11A  923   4.797   6.294   9.420 -1.0741 -0.6939 -2.0360
   13CHL1  H11B  924   4.783   6.455   9.467  2.5275 -3.2149  1.9624
   13CHL1    C9  925   4.626   6.323   9.552 -0.0751  0.7335  0.4717
   13CHL1    H9  926   4.557   6.409   9.570  0.0821  0.7352  1.0761
   13CHL1   C10  927   4.701   6.298   9.684 -0.1974 -0.1565  0.3275
   13CHL1   C19  928   4.798   6.174   9.662 -0.4887  0.0995 -0.3314
   13CHL1  H19A  929   4.872   6.193   9.582  2.5678 -0.0212  2.3518
   13CHL1  H19B  930   4.842   6.153   9.762  0.6658  0.0122 -0.8504
   13CHL1  H19C  931   4.743   6.081   9.637  0.5730 -0.8126  0.6564
   13CHL1    C1  932   4.771   6.426   9.721 -0.3235 -0.2454 -0.0448
   13CHL1   H1A  933   4.857   6.451   9.654  0.2669 -0.8398  0.4910
   13CHL1   H1B  934   4.710   6.518   9.708  1.3223  1.1645  1.9548
   13CHL1    C2  935   4.825   6.417   9.865 -0.3935 -0.1598  0.8772
   13CHL1   H2A  936   4.860   6.518   9.895 -0.8573  0.5768 -1.0356
   13CHL1   H2B  937   4.917   6.355   9.857 -0.8830 -1.2653  3.2569
   13CHL1   C20  938   4.539   6.335   9.000  0.4315  0.3273 -0.0562
   13CHL1   H20  939   4.649   6.347   9.009  0.3667 -0.7329  2.3654
   13CHL1   C21  940   4.483   6.468   8.934  0.3747 -0.4774  0.1402
   13CHL1  H21A  941   4.386   6.450   8.882  0.8456 -1.4951 -0.4005
   13CHL1  H21B  942   4.559   6.506   8.862  0.8026 -0.5401  0.5556
   13CHL1  H21C  943   4.474   6.550   9.009 -1.7035 -0.4557 -0.0973
   13CHL1   C22  944   4.528   6.221   8.897  0.6125  1.0267  0.2349
   13CHL1  H22A  945   4.552   6.127   8.952 -0.9507  1.0090  0.9081
   13CHL1  H22B  946   4.419   6.221   8.876  1.1168  3.0936 -2.7278
   13CHL1   C23  947   4.619   6.234   8.775  0.0244  0.5258 -0.2054
   13CHL1  H23A  948   4.585   6.166   8.693  0.1466  1.0743 -0.7189
   13CHL1  H23B  949   4.603   6.331   8.723 -0.0965  1.1062  0.8981
   13CHL1   C24  950   4.760   6.195   8.815  0.0226  0.5028  0.2036
   13CHL1  H24A  951   4.808   6.267   8.885  1.3522 -0.9801  0.8683
   13CHL1  H24B  952   4.751   6.100   8.872 -0.6306  0.1317 -0.5184
   13CHL1   C25  953   4.853   6.165   8.696 -0.8597 -0.4554  0.5523
   13CHL1   H25  954   4.811   6.077   8.644  0.3194 -0.3751 -0.5707
   13CHL1   C26  955   4.864   6.289   8.597  0.4290  0.7156 -0.4895
   13CHL1  H26A  956   4.765   6.321   8.560 -1.4895 -1.7541  2.3367
   13CHL1  H26B  957   4.913   6.374   8.649  0.5296  1.2104 -1.3826
   13CHL1  H26C  958   4.924   6.253   8.510  1.6915 -0.0265  0.6732
   13CHL1   C27  959   4.994   6.135   8.746 -0.1930  0.1905 -0.0557
   13CHL1  H27A  960   4.993   6.061   8.830 -2.4677  3.2450  2.7745
   13CHL1  H27B  961   5.054   6.094   8.663  1.1801  1.4408  0.3099
   13CHL1  H27C  962   5.044   6.228   8.781  1.0732 -0.3381 -0.4377
   14CHL1    C3  963   4.635   2.912  10.155  0.2926 -0.2141  0.6991
   14CHL1    H3  964   4.693   3.005  10.169  0.1320 -0.3319  2.1396
   14CHL1    O3  965   4.586   2.865  10.280  0.7704  0.5258  0.3640
   14CHL1   H3'  966   4.491   2.861  10.272  1.0311 -1.6622 -2.0927
   14CHL1    C4  967   4.520   2.957  10.056 -0.2159  0.3319  0.5125
   14CHL1   H4A  968   4.468   2.859  10.052 -2.2573  1.4731 -1.3350
   14CHL1   H4B  969   4.453   3.023  10.114 -2.1868 -1.0252 -0.1722
   14CHL1    C5  970   4.566   2.997   9.921  0.3885 -0.4061  0.0831
   14CHL1    C6  971   4.521   3.113   9.872  0.2744 -0.2620 -0.3833
   14CHL1    H6  972   4.448   3.171   9.930 -0.9586 -1.1799 -0.9834
   14CHL1    C7  973   4.564   3.169   9.737  0.2631 -0.3609  0.6355
   14CHL1   H7A  974   4.472   3.205   9.687 -0.5036 -2.0154  0.8086
   14CHL1   H7B  975   4.637   3.252   9.748  0.3266 -0.5244  1.4520
   14CHL1    C8  976   4.630   3.054   9.650  0.0650 -0.1759  0.6698
   14CHL1    H8  977   4.554   2.984   9.609 -0.3480  0.1081  0.9397
   14CHL1   C14  978   4.714   3.125   9.538  0.1644  0.0051  0.8104
   14CHL1   H14  979   4.781   3.191   9.598  0.8059 -0.9024  1.1047
   14CHL1   C15  980   4.638   3.216   9.446 -0.3968  0.0473  0.2591
   14CHL1  H15A  981   4.549   3.160   9.411 -1.3608  0.6924  1.6000
   14CHL1  H15B  982   4.598   3.304   9.501 -0.9729 -0.7917  1.2045
   14CHL1   C16  983   4.752   3.246   9.348 -0.3202 -0.2721 -0.0026
   14CHL1  H16A  984   4.710   3.238   9.246 -0.8508  2.8793 -0.0590
   14CHL1  H16B  985   4.795   3.344   9.377 -1.1943  0.3410 -0.7832
   14CHL1   C17  986   4.867   3.137   9.360 -0.2708  0.1171 -0.1626
   14CHL1   H17  987   4.958   3.177   9.410  0.2670 -1.7890  0.4279
   14CHL1   C13  988   4.803   3.029   9.454 -0.3309  0.0842  0.0203
   14CHL1   C18  989   4.707   2.940   9.366  0.3330  0.1006 -0.1942
   14CHL1  H18A  990   4.639   2.884   9.435 -2.1414 -0.6374 -3.0935
   14CHL1  H18B  991   4.637   2.999   9.302  1.9891  3.3052  0.8748
   14CHL1  H18C  992   4.771   2.871   9.306  1.5553  1.3246 -0.3021
   14CHL1   C12  993   4.902   2.952   9.544  0.3143  0.8087  0.5803
   14CHL1  H12A  994   4.973   2.884   9.492 -2.0445  0.5557 -2.3992
   14CHL1  H12B  995   4.971   3.027   9.589  3.0525 -0.6971 -1.0370
   14CHL1   C11  996   4.825   2.878   9.652 -0.2645 -0.1094 -0.0093
   14CHL1  H11A  997   4.765   2.800   9.600 -0.5295 -1.4093  2.1861
   14CHL1  H11B  998   4.883   2.810   9.718 -0.0904  1.0498  1.0382
   14CHL1    C9  999   4.731   2.972   9.734  0.1492  0.3178  0.2681
   14CHL1    H9 1000   4.794   3.055   9.772  2.0839 -0.2520 -1.5600
   14CHL1   C10 1001   4.674   2.901   9.858  0.0389  0.6797 -0.5412
   14CHL1   C19 1002   4.594   2.773   9.821 -0.0112  0.4301 -0.1871
   14CHL1  H19A 1003   4.665   2.705   9.770  0.8519 -0.1826  1.7732
   14CHL1  H19B 1004   4.552   2.720   9.910  0.4677  0.3179 -0.0275
   14CHL1  H19C 1005   4.514   2.787   9.745 -0.1585 -0.4406 -0.1943
   14CHL1    C1 1006   4.783   2.865   9.957 -0.7230 -0.4748 -0.1154
   14CHL1   H1A 1007   4.854   2.787   9.920 -0.9434 -1.8575  2.2810
   14CHL1   H1B 1008   4.842   2.959   9.964  1.0735 -1.5273 -0.6802
   14CHL1    C2 1009   4.728   2.810  10.094 -0.2432 -0.7053 -0.4062
   14CHL1   H2A 1010   4.815   2.805  10.163 -0.0909  0.0597 -0.5286
   14CHL1   H2B 1011   4.687   2.708  10.085  1.0315 -1.4166  1.5210
   14CHL1   C20 1012   4.925   3.099   9.227  0.4464 -0.5264 -0.4725
   14CHL1   H20 1013   4.833   3.067   9.174  0.3333 -0.3423 -0.3933
   14CHL1   C21 1014   5.022   2.984   9.243  0.0828  0.3266  0.2889
   14CHL1  H21A 1015   5.112   3.023   9.296 -1.0123  1.6481  1.2176
   14CHL1  H21B 1016   5.045   2.950   9.139  1.1133  1.7087  0.0420
   14CHL1  H21C 1017   4.977   2.902   9.303 -0.1240  2.0194  2.4817
   14CHL1   C22 1018   4.980   3.218   9.146 -0.2772  0.1574 -0.1751
   14CHL1  H22A 1019   4.892   3.281   9.122  0.4187  2.0235  1.9643
   14CHL1  H22B 1020   5.052   3.277   9.207 -1.2678  0.9667  0.2135
   14CHL1   C23 1021   5.056   3.175   9.023  0.2968  0.0926  0.8807
   14CHL1  H23A 1022   5.148   3.122   9.054 -0.1197  0.0322  2.0380
   14CHL1  H23B 1023   4.991   3.114   8.957 -0.4109  1.6178  0.1310
   14CHL1   C24 1024   5.101   3.308   8.947 -0.1442  0.6581 -1.1956
   14CHL1  H24A 1025   5.126   3.268   8.847  0.0371 -1.7847 -0.2025
   14CHL1  H24B 1026   5.006   3.367   8.948 -0.1255  0.6918 -1.5059
   14CHL1   C25 1027   5.215   3.384   9.013 -0.7283 -0.7046  0.6106
   14CHL1   H25 1028   5.179   3.409   9.116  0.0913  1.6820  0.3452
   14CHL1   C26 1029   5.339   3.299   9.011  0.5865  0.1408  0.1848
   14CHL1  H26A 1030   5.371   3.269   8.909 -1.0770 -1.9709  0.2471
   14CHL1  H26B 1031   5.421   3.362   9.053  2.9510 -0.4171 -3.4083
   14CHL1  H26C 1032   5.334   3.200   9.062 -1.4394  1.0144  1.7468
   14CHL1   C27 1033   5.255   3.524   8.956 -0.3309  0.3417 -0.2482
   14CHL1  H27A 1034   5.322   3.579   9.025  0.3743 -2.4100  1.3051
   14CHL1  H27B 1035   5.305   3.515   8.857  3.2791 -0.1966  1.5455
   14CHL1  H27C 1036   5.174   3.600   8.950  1.3413  2.1816  0.1414
   15CHL1    C3 1037   5.002   1.682  10.151  0.3834 -0.6795  0.1173
   15CHL1    H3 1038   5.061   1.588  10.156 -0.5266 -1.1590  2.2265
   15CHL1    O3 1039   4.971   1.724  10.286  0.0016 -0.0271  0.3135
   15CHL1   H3' 1040   4.906   1.794  10.274 -2.0656 -2.0855 -1.0929
   15CHL1    C4 1041   5.093   1.793  10.099 -0.3764 -0.1146  0.7269
   15CHL1   H4A 1042   5.022   1.877  10.106  1.2424  1.3594 -0.1249
   15CHL1   H4B 1043   5.188   1.810  10.155  0.4174  2.5021 -1.3001
   15CHL1    C5 1044   5.129   1.782   9.956 -0.3588 -0.4714 -0.1867
   15CHL1    C6 1045   5.261   1.789   9.917 -0.2455 -0.2735 -0.0990
   15CHL1    H6 1046   5.343   1.795   9.990 -0.3104  0.9208 -0.1229
   15CHL1    C7 1047   5.292   1.798   9.770 -0.1560 -0.0862  0.3344
   15CHL1   H7A 1048   5.378   1.867   9.758 -0.2023  0.0920  0.9845
   15CHL1   H7B 1049   5.328   1.695   9.748  0.0529 -0.1421  0.9171
   15CHL1    C8 1050   5.173   1.825   9.672 -0.9676 -0.9270  0.5374
   15CHL1    H8 1051   5.153   1.934   9.657 -0.9170 -1.3910 -3.6118
   15CHL1   C14 1052   5.217   1.771   9.531  0.6798  0.7897  0.3791
   15CHL1   H14 1053   5.216   1.661   9.548  1.1947  0.9532  1.5326
   15CHL1   C15 1054   5.350   1.809   9.477 -0.1582  0.2720 -0.0726
   15CHL1  H15A 1055   5.381   1.915   9.489 -1.3912  0.4736  1.3772
   15CHL1  H15B 1056   5.429   1.750   9.528 -1.2264  0.0016  1.2916
   15CHL1   C16 1057   5.336   1.781   9.322  0.4778 -0.3541 -0.6137
   15CHL1  H16A 1058   5.364   1.876   9.271  1.3731 -0.6404 -0.6634
   15CHL1  H16B 1059   5.406   1.705   9.281  1.8775  0.4318  0.2622
   15CHL1   C17 1060   5.189   1.750   9.297 -1.1457  0.1378 -0.3350
   15CHL1   H17 1061   5.176   1.640   9.298 -0.3114  0.0362 -0.2974
   15CHL1   C13 1062   5.115   1.808   9.423 -0.1003 -0.3558  0.8363
   15CHL1   C18 1063   5.092   1.961   9.411 -0.3468  0.6315 -0.1747
   15CHL1  H18A 1064   5.190   2.014   9.413 -0.8683  1.7796 -2.9513
   15CHL1  H18B 1065   5.047   1.995   9.316  0.2216  2.7729  0.2820
   15CHL1  H18C 1066   5.033   2.006   9.494 -0.3783 -0.7027  0.5260
   15CHL1   C12 1067   4.981   1.731   9.457 -0.3911  0.1921  0.5244
   15CHL1  H12A 1068   4.902   1.763   9.386  0.7978 -2.0926 -1.9137
   15CHL1  H12B 1069   4.991   1.627   9.420 -0.9571  0.6161 -0.8538
   15CHL1   C11 1070   4.934   1.741   9.608  0.4206  0.1341 -0.1242
   15CHL1  H11A 1071   4.877   1.836   9.597 -2.9809 -1.7838  0.3579
   15CHL1  H11B 1072   4.860   1.659   9.624 -1.3808  2.2624  3.1617
   15CHL1    C9 1073   5.053   1.745   9.714  0.1811  0.2842 -0.1102
   15CHL1    H9 1074   5.088   1.640   9.729  1.1218  0.3455 -1.7205
   15CHL1   C10 1075   5.007   1.766   9.860  0.2796 -0.0322  0.1369
   15CHL1   C19 1076   4.938   1.904   9.851  0.5872 -0.1232  0.5110
   15CHL1  H19A 1077   4.915   1.950   9.950 -0.9277 -1.4803  0.8127
   15CHL1  H19B 1078   5.010   1.974   9.803  1.2440 -0.4661  0.9757
   15CHL1  H19C 1079   4.841   1.901   9.798  1.3516  0.1155 -0.9163
   15CHL1    C1 1080   4.910   1.658   9.915  0.0350  0.4844  0.6309
   15CHL1   H1A 1081   4.818   1.639   9.856 -0.7324  0.8319  1.6872
   15CHL1   H1B 1082   4.957   1.557   9.914  0.1200  0.5306  0.1196
   15CHL1    C2 1083   4.873   1.672  10.067 -0.3339 -0.3759 -0.5334
   15CHL1   H2A 1084   4.810   1.587  10.102 -1.7181  0.7052 -0.3770
   15CHL1   H2B 1085   4.816   1.764  10.092 -0.8459 -1.0901  0.9765
   15CHL1   C20 1086   5.144   1.788   9.154 -0.2380  0.0415  0.0760
   15CHL1   H20 1087   5.134   1.898   9.149  2.3041  0.3621  1.4079
   15CHL1   C21 1088   5.004   1.719   9.133  0.2327 -0.7556 -0.1491
   15CHL1  H21A 1089   4.916   1.746   9.195  0.0074  0.2974 -0.9069
   15CHL1  H21B 1090   5.023   1.610   9.124  0.7514 -0.7841  1.1349
   15CHL1  H21C 1091   4.962   1.761   9.039  0.3144 -0.7853 -0.1971
   15CHL1   C22 1092   5.251   1.739   9.054  0.1165 -0.0435 -0.5350
   15CHL1  H22A 1093   5.348   1.788   9.074 -0.3245  0.3744  0.6002
   15CHL1  H22B 1094   5.267   1.632   9.080  3.3731  0.5566  0.1325
   15CHL1   C23 1095   5.214   1.760   8.906 -0.0748 -0.6666 -0.3184
   15CHL1  H23A 1096   5.115   1.712   8.895 -0.5606 -0.8137  3.8679
   15CHL1  H23B 1097   5.200   1.869   8.891  0.7027 -0.3805  0.9265
   15CHL1   C24 1098   5.321   1.706   8.802 -0.2399  0.4923 -0.3443
   15CHL1  H24A 1099   5.399   1.784   8.796  1.2714 -0.6754  3.0548
   15CHL1  H24B 1100   5.366   1.613   8.843  1.5831  1.9359  1.0143
   15CHL1   C25 1101   5.274   1.678   8.654 -0.1436 -0.1986  0.2742
   15CHL1   H25 1102   5.211   1.768   8.636 -0.2589 -0.2279  0.5398
   15CHL1   C26 1103   5.384   1.675   8.552  0.2628  0.7883  0.4167
   15CHL1  H26A 1104   5.431   1.575   8.556 -1.0805  0.0482 -1.4847
   15CHL1  H26B 1105   5.351   1.701   8.449  0.7096 -1.9068 -0.4325
   15CHL1  H26C 1106   5.467   1.748   8.566  1.3044 -0.2261 -0.4183
   15CHL1   C27 1107   5.199   1.543   8.655 -0.0067  0.5635  0.2053
   15CHL1  H27A 1108   5.179   1.516   8.549 -2.2317  2.4538  0.0902
   15CHL1  H27B 1109   5.250   1.461   8.708 -0.6375 -0.2136 -0.3862
   15CHL1  H27C 1110   5.103   1.568   8.706 -0.0970  1.0962 -0.2140
   16CHL1    C3 1111   5.604   2.254  10.097 -0.5353 -0.4178 -0.4824
   16CHL1    H3 1112   5.506   2.298  10.124 -0.4002 -0.2194 -0.3135
   16CHL1    O3 1113   5.648   2.197  10.218  0.0543  0.4606  0.1825
   16CHL1   H3' 1114   5.732   2.155  10.198 -1.6319 -2.8707 -0.2529
   16CHL1    C4 1115   5.583   2.141  10.001  0.1381  0.2280 -0.2388
   16CHL1   H4A 1116   5.672   2.076   9.990  0.9981  1.0305  1.6342
   16CHL1   H4B 1117   5.506   2.072  10.043  1.3490  0.0188  1.7152
   16CHL1    C5 1118   5.548   2.185   9.863  1.1177  0.3109  0.2945
   16CHL1    C6 1119   5.446   2.130   9.788  0.2946 -0.2757 -0.5601
   16CHL1    H6 1120   5.378   2.059   9.838  0.2709  0.2347  0.1416
   16CHL1    C7 1121   5.418   2.171   9.647  0.0835  0.1395  0.7517
   16CHL1   H7A 1122   5.414   2.080   9.585  1.3651  0.9228 -0.5107
   16CHL1   H7B 1123   5.324   2.230   9.645 -0.3532 -0.5614  0.5147
   16CHL1    C8 1124   5.533   2.256   9.582 -0.4809 -0.2079 -0.1491
   16CHL1    H8 1125   5.617   2.186   9.561 -0.5279  0.2794 -2.0756
   16CHL1   C14 1126   5.480   2.304   9.448  0.3249  0.0654  0.1250
   16CHL1   H14 1127   5.395   2.368   9.482  0.7772 -0.1733  1.7488
   16CHL1   C15 1128   5.431   2.206   9.343  0.5597 -0.0633 -0.1857
   16CHL1  H15A 1129   5.499   2.122   9.320 -0.2602 -0.2317 -2.0697
   16CHL1  H15B 1130   5.330   2.169   9.372  0.7180 -1.0230 -0.8426
   16CHL1   C16 1131   5.419   2.291   9.215  0.5061 -0.3322  0.3007
   16CHL1  H16A 1132   5.469   2.236   9.133  0.6159  0.3742 -0.1057
   16CHL1  H16B 1133   5.312   2.306   9.188  0.5086 -0.3692  0.2725
   16CHL1   C17 1134   5.488   2.431   9.244  0.5613 -0.3363 -0.4299
   16CHL1   H17 1135   5.409   2.500   9.281  1.5255  2.0219 -2.5900
   16CHL1   C13 1136   5.570   2.401   9.370 -0.2109  0.2288  0.1844
   16CHL1   C18 1137   5.703   2.331   9.327 -0.2226  0.0087 -0.5359
   16CHL1  H18A 1138   5.760   2.311   9.420 -0.2615  2.1540 -0.0293
   16CHL1  H18B 1139   5.680   2.239   9.270 -0.4200 -0.2986  0.0394
   16CHL1  H18C 1140   5.776   2.393   9.270 -0.8992  1.3699  0.0433
   16CHL1   C12 1141   5.582   2.518   9.467 -0.3470  0.0069 -0.1395
   16CHL1  H12A 1142   5.658   2.596   9.445  1.1523 -1.0426  1.1929
   16CHL1  H12B 1143   5.482   2.565   9.479 -0.4425 -1.0104  3.5658
   16CHL1   C11 1144   5.641   2.482   9.607 -0.0813  0.1551 -0.6069
   16CHL1  H11A 1145   5.746   2.453   9.586  0.7860  2.1890  0.7448
   16CHL1  H11B 1146   5.650   2.572   9.672 -0.5705 -0.3615  0.1891
   16CHL1    C9 1147   5.577   2.361   9.681  0.0936 -0.3558  0.2085
   16CHL1    H9 1148   5.481   2.407   9.711  1.0499  2.9827 -1.5786
   16CHL1   C10 1149   5.638   2.302   9.804 -0.1492 -0.0295  0.2804
   16CHL1   C19 1150   5.777   2.249   9.774 -0.9372  0.1325 -0.1529
   16CHL1  H19A 1151   5.783   2.176   9.691 -1.4911 -0.4596  0.3249
   16CHL1  H19B 1152   5.839   2.337   9.743  0.4960 -1.0132 -0.5816
   16CHL1  H19C 1153   5.830   2.203   9.859  0.2253  0.3382 -0.7517
   16CHL1    C1 1154   5.653   2.414   9.903 -0.8332  0.2328  0.0254
   16CHL1   H1A 1155   5.730   2.482   9.861  0.2657 -0.2162  1.2742
   16CHL1   H1B 1156   5.559   2.469   9.921 -2.1411 -2.2569  0.9751
   16CHL1    C2 1157   5.694   2.360  10.044 -1.0727  0.4539 -0.2583
   16CHL1   H2A 1158   5.693   2.438  10.123 -1.5431  0.2272 -0.0338
   16CHL1   H2B 1159   5.798   2.322  10.038 -0.5363  2.0083 -1.1262
   16CHL1   C20 1160   5.557   2.487   9.121  0.0861  0.7853 -0.5605
   16CHL1   H20 1161   5.622   2.410   9.073 -2.8195 -0.3611 -2.8361
   16CHL1   C21 1162   5.638   2.618   9.163 -0.1425 -0.1466 -0.2827
   16CHL1  H21A 1163   5.567   2.692   9.206 -1.5170 -1.5312 -0.1219
   16CHL1  H21B 1164   5.701   2.664   9.084  0.8688  0.3556  0.7979
   16CHL1  H21C 1165   5.703   2.594   9.250 -1.8213 -0.0777  1.0135
   16CHL1   C22 1166   5.461   2.535   9.014 -0.3936  0.4930  0.4898
   16CHL1  H22A 1167   5.384   2.460   8.988 -0.8492  1.0495  0.2091
   16CHL1  H22B 1168   5.408   2.626   9.051 -2.2964  0.2629 -1.6088
   16CHL1   C23 1169   5.532   2.581   8.882  0.5769  0.4705  0.1091
   16CHL1  H23A 1170   5.610   2.657   8.904  0.6545  0.4279 -0.0197
   16CHL1  H23B 1171   5.585   2.497   8.833 -0.2362  0.5916 -1.0214
   16CHL1   C24 1172   5.440   2.640   8.778 -0.1838  0.6862 -0.2071
   16CHL1  H24A 1173   5.367   2.563   8.745  0.0856  0.0517  0.6382
   16CHL1  H24B 1174   5.383   2.724   8.823 -1.7734  0.1249 -1.1215
   16CHL1   C25 1175   5.517   2.707   8.652  0.3543 -0.4193  0.2908
   16CHL1   H25 1176   5.570   2.795   8.695 -0.3345  0.3864 -0.4906
   16CHL1   C26 1177   5.600   2.610   8.571 -0.4444  0.8384 -0.4938
   16CHL1  H26A 1178   5.536   2.521   8.552 -0.0542  0.0825  1.6707
   16CHL1  H26B 1179   5.638   2.655   8.476 -2.2799 -0.2625 -1.7745
   16CHL1  H26C 1180   5.687   2.577   8.632 -0.3515 -0.0153 -1.0857
   16CHL1   C27 1181   5.405   2.763   8.564 -0.2248 -0.4911 -0.4052
   16CHL1  H27A 1182   5.326   2.819   8.617 -0.0996 -1.7436  1.1547
   16CHL1  H27B 1183   5.449   2.823   8.481 -2.5747  1.1081 -0.5318
   16CHL1  H27C 1184   5.342   2.681   8.523 -3.0330  1.0549  0.6766
   17CHL1    C3 1185   0.977   5.604  10.245 -0.8162  0.0919  0.2855
   17CHL1    H3 1186   0.870   5.617  10.220 -1.1812  0.3919  1.9672
   17CHL1    O3 1187   0.999   5.627  10.385 -0.3000  0.3464  0.5002
   17CHL1   H3' 1188   1.094   5.640  10.384  0.3276 -3.5690 -0.6444
   17CHL1    C4 1189   1.036   5.475  10.206 -0.6251  0.6858 -0.0249
   17CHL1   H4A 1190   1.144   5.471  10.228 -0.0448 -1.1369 -2.8137
   17CHL1   H4B 1191   0.974   5.396  10.254  1.1707 -0.0391  1.1094
   17CHL1    C5 1192   1.017   5.458  10.056  0.4041 -0.7272  0.0923
   17CHL1    C6 1193   0.943   5.363   9.999 -0.4438 -0.0704 -0.0692
   17CHL1    H6 1194   0.892   5.288  10.061 -0.5015 -0.3800 -0.4940
   17CHL1    C7 1195   0.928   5.341   9.855 -0.3430  0.4964 -0.0749
   17CHL1   H7A 1196   0.951   5.236   9.828 -0.6915  0.6374 -0.9171
   17CHL1   H7B 1197   0.825   5.372   9.825 -0.2670 -0.0443 -0.9154
   17CHL1    C8 1198   1.034   5.414   9.778 -0.5457  0.6143  0.3808
   17CHL1    H8 1199   1.136   5.371   9.790 -0.2265  0.4178 -2.4775
   17CHL1   C14 1200   0.997   5.409   9.634  0.3087 -0.9200 -0.2550
   17CHL1   H14 1201   0.900   5.463   9.632 -0.2093 -1.8185  0.2992
   17CHL1   C15 1202   0.963   5.269   9.578  0.7654  0.5512 -0.1839
   17CHL1  H15A 1203   1.043   5.197   9.607 -1.7446 -2.1159  0.4238
   17CHL1  H15B 1204   0.863   5.233   9.613  1.0305  1.0969  1.1665
   17CHL1   C16 1205   0.975   5.300   9.428  0.5655  0.2339  0.0863
   17CHL1  H16A 1206   1.038   5.214   9.396 -1.7101 -1.4981  0.1730
   17CHL1  H16B 1207   0.878   5.278   9.379  0.8540  1.3793 -1.0426
   17CHL1   C17 1208   1.019   5.443   9.410  0.0662  0.0388 -0.0634
   17CHL1   H17 1209   0.929   5.509   9.407 -1.7683 -2.3832  0.1492
   17CHL1   C13 1210   1.088   5.479   9.541 -0.1020  1.3401 -0.7777
   17CHL1   C18 1211   1.225   5.418   9.526  0.0209  0.1942 -0.0633
   17CHL1  H18A 1212   1.269   5.405   9.628 -1.2765  1.5148  0.6870
   17CHL1  H18B 1213   1.224   5.320   9.475 -1.8191  2.2268 -4.1518
   17CHL1  H18C 1214   1.297   5.480   9.468 -0.9286 -0.1261 -1.5861
   17CHL1   C12 1215   1.081   5.629   9.580 -1.0965  0.2223  0.0617
   17CHL1  H12A 1216   1.158   5.684   9.522 -0.1150 -0.7168  0.4671
   17CHL1  H12B 1217   0.976   5.666   9.572 -1.6112 -1.6102 -2.2636
   17CHL1   C11 1218   1.125   5.642   9.729 -0.6198 -0.6396  0.7141
   17CHL1  H11A 1219   1.233   5.617   9.736 -0.7712 -2.6447 -3.1423
   17CHL1  H11B 1220   1.115   5.746   9.767 -0.9985 -0.3624 -0.1275
   17CHL1    C9 1221   1.039   5.557   9.826 -0.4407 -0.2694  0.1093
   17CHL1    H9 1222   0.935   5.597   9.826  0.1599  1.3126 -0.5516
   17CHL1   C10 1223   1.092   5.566   9.971  0.9492  0.4834 -1.5670
   17CHL1   C19 1224   1.245   5.556   9.987 -0.2894 -0.7494  0.2035
   17CHL1  H19A 1225   1.283   5.483   9.913 -2.3629 -0.7769 -0.8808
   17CHL1  H19B 1226   1.286   5.658   9.974  0.2148 -0.9414  0.2661
   17CHL1  H19C 1227   1.283   5.520  10.085  0.2164 -0.0479  0.2634
   17CHL1    C1 1228   1.029   5.699  10.019 -0.0690  0.3654 -0.7532
   17CHL1   H1A 1229   1.075   5.789   9.972  1.4327  0.2619  0.4757
   17CHL1   H1B 1230   0.922   5.710   9.992 -0.7699 -0.5640  1.5845
   17CHL1    C2 1231   1.042   5.720  10.173 -0.3539 -0.3766  0.6469
   17CHL1   H2A 1232   0.984   5.807  10.210 -2.3901 -1.3265 -0.2681
   17CHL1   H2B 1233   1.151   5.730  10.194 -0.2764  1.1631 -0.3436
   17CHL1   C20 1234   1.092   5.467   9.277  0.0679  0.0974 -0.0825
   17CHL1   H20 1235   1.191   5.418   9.284  0.5741  1.2644  1.0402
   17CHL1   C21 1236   1.119   5.618   9.249  0.0967  0.2489  0.2851
   17CHL1  H21A 1237   1.161   5.647   9.150  0.7553  0.8649  0.7332
   17CHL1  H21B 1238   1.189   5.658   9.325 -1.2898  2.4839  0.4232
   17CHL1  H21C 1239   1.022   5.670   9.252 -0.2800 -0.1736 -2.5564
   17CHL1   C22 1240   1.001   5.412   9.158 -0.4276 -0.2053 -0.3232
   17CHL1  H22A 1241   1.061   5.420   9.065  1.9561  1.6766  1.2974
   17CHL1  H22B 1242   0.965   5.310   9.184  1.4516 -1.0004 -0.7735
   17CHL1   C23 1243   0.871   5.487   9.137 -0.0686  0.0577  0.2033
   17CHL1  H23A 1244   0.799   5.460   9.217 -0.5437  2.1505  0.5075
   17CHL1  H23B 1245   0.869   5.597   9.127  0.7062  0.1289  0.8184
   17CHL1   C24 1246   0.794   5.428   9.013 -0.1029 -0.2441 -0.2643
   17CHL1  H24A 1247   0.866   5.426   8.929 -0.1870 -0.6947 -0.3288
   17CHL1  H24B 1248   0.746   5.333   9.048 -0.8271 -0.2336 -1.2043
   17CHL1   C25 1249   0.677   5.517   8.959 -0.4310 -0.5526  0.2724
   17CHL1   H25 1250   0.720   5.619   8.965  0.7472 -0.9651 -1.0516
   17CHL1   C26 1251   0.635   5.470   8.818  0.2196 -0.7677  0.7541
   17CHL1  H26A 1252   0.673   5.366   8.808  2.3188 -0.0603  0.9837
   17CHL1  H26B 1253   0.525   5.469   8.805  0.3435 -1.0689 -0.2522
   17CHL1  H26C 1254   0.683   5.540   8.747  0.7324  1.5572  3.2872
   17CHL1   C27 1255   0.555   5.529   9.058 -0.4207  0.6608  0.5234
   17CHL1  H27A 1256   0.474   5.593   9.016 -0.6862  0.9520  1.4677
   17CHL1  H27B 1257   0.513   5.428   9.073  0.6036  0.2764  0.8445
   17CHL1  H27C 1258   0.582   5.577   9.154  1.2267  0.5038  0.1583
   18CHL1    C3 1259   0.319   4.802  10.082  0.3948 -0.6623 -0.1467
   18CHL1    H3 1260   0.286   4.906  10.060 -1.7339 -0.8255  2.0617
   18CHL1    O3 1261   0.318   4.789  10.221 -0.3556  0.0356  0.3904
   18CHL1   H3' 1262   0.372   4.711  10.233 -1.5691 -0.9277 -0.3026
   18CHL1    C4 1263   0.216   4.703  10.014  0.2060  0.7428  1.4259
   18CHL1   H4A 1264   0.227   4.608  10.070  0.8976 -0.0502 -0.0262
   18CHL1   H4B 1265   0.108   4.727  10.027 -0.2107  0.8688 -1.7587
   18CHL1    C5 1266   0.248   4.684   9.867  0.0953  0.0576 -0.5959
   18CHL1    C6 1267   0.146   4.674   9.783 -0.3633  0.1967  0.2833
   18CHL1    H6 1268   0.046   4.670   9.827 -0.7919 -0.8349 -0.7550
   18CHL1    C7 1269   0.155   4.643   9.636  0.0296 -0.0156 -0.2465
   18CHL1   H7A 1270   0.084   4.565   9.601  0.8026 -0.2341 -1.3266
   18CHL1   H7B 1271   0.135   4.731   9.572  0.3374  2.0027  2.3180
   18CHL1    C8 1272   0.289   4.577   9.597  0.3021 -0.3298 -1.0398
   18CHL1    H8 1273   0.280   4.470   9.622  3.2474 -0.3368  0.1116
   18CHL1   C14 1274   0.303   4.596   9.449  0.1778 -1.0023 -0.2662
   18CHL1   H14 1275   0.317   4.703   9.424  1.1068 -0.3561  2.8050
   18CHL1   C15 1276   0.194   4.538   9.346 -0.6009  0.2511  0.3516
   18CHL1  H15A 1277   0.162   4.434   9.369  0.2253 -0.4780 -1.7149
   18CHL1  H15B 1278   0.116   4.609   9.311 -0.6162 -0.6312 -1.4120
   18CHL1   C16 1279   0.282   4.527   9.212  0.4635  0.2799 -0.7577
   18CHL1  H16A 1280   0.264   4.429   9.162 -0.6806  1.6154 -3.0498
   18CHL1  H16B 1281   0.247   4.602   9.138  0.3220 -0.5444 -1.5335
   18CHL1   C17 1282   0.423   4.551   9.247 -0.7818 -0.0445 -0.3302
   18CHL1   H17 1283   0.437   4.660   9.238 -0.0130 -0.1628 -0.6415
   18CHL1   C13 1284   0.441   4.538   9.396  0.3385 -0.8713 -0.7492
   18CHL1   C18 1285   0.441   4.388   9.436  0.3247  0.8077  0.8056
   18CHL1  H18A 1286   0.460   4.362   9.542 -1.1105 -1.6539  0.5012
   18CHL1  H18B 1287   0.339   4.356   9.408  0.4942  1.3795 -0.5266
   18CHL1  H18C 1288   0.522   4.336   9.380 -0.2501  0.7530  0.0248
   18CHL1   C12 1289   0.549   4.627   9.460 -0.2538 -0.4058  0.0527
   18CHL1  H12A 1290   0.648   4.594   9.421  0.2814  0.2507  0.8498
   18CHL1  H12B 1291   0.534   4.729   9.420 -0.5413 -0.7817 -0.8251
   18CHL1   C11 1292   0.545   4.625   9.611  0.4286 -0.7600  0.3033
   18CHL1  H11A 1293   0.576   4.527   9.654 -0.4051 -0.4635  1.6039
   18CHL1  H11B 1294   0.612   4.707   9.645 -1.5571  1.0026  0.0928
   18CHL1    C9 1295   0.404   4.651   9.665  0.1912  0.3194  0.4871
   18CHL1    H9 1296   0.383   4.758   9.643 -0.8515  0.0165 -0.0201
   18CHL1   C10 1297   0.387   4.654   9.824 -0.0013 -0.4719 -1.2114
   18CHL1   C19 1298   0.436   4.513   9.886 -0.1892  0.5176 -0.7584
   18CHL1  H19A 1299   0.547   4.510   9.872 -0.0786  0.4391  0.1553
   18CHL1  H19B 1300   0.404   4.519   9.992 -1.7977  0.3030 -1.2183
   18CHL1  H19C 1301   0.382   4.434   9.829 -2.0957  0.2533  1.3527
   18CHL1    C1 1302   0.480   4.771   9.886  0.5756  0.3063 -0.2017
   18CHL1   H1A 1303   0.588   4.751   9.875  0.3791 -0.8994 -0.0458
   18CHL1   H1B 1304   0.449   4.869   9.843  2.1661  1.6601  1.6678
   18CHL1    C2 1305   0.469   4.783  10.037 -0.8286  0.4849 -0.2447
   18CHL1   H2A 1306   0.513   4.880  10.068  2.5392 -0.8541 -0.6888
   18CHL1   H2B 1307   0.492   4.687  10.089 -2.7146  0.2394  0.1975
   18CHL1   C20 1308   0.541   4.502   9.165 -0.0421  0.3837  0.1080
   18CHL1   H20 1309   0.630   4.462   9.219 -0.2268 -0.3134 -0.0998
   18CHL1   C21 1310   0.598   4.619   9.077  0.0637 -0.7561  0.0912
   18CHL1  H21A 1311   0.693   4.593   9.027  1.0177 -0.2341  1.5981
   18CHL1  H21B 1312   0.605   4.711   9.139  0.1351 -0.4183 -0.4105
   18CHL1  H21C 1313   0.522   4.649   9.000  1.8168  1.0036 -0.9994
   18CHL1   C22 1314   0.499   4.374   9.077 -0.1809  0.0283 -0.3635
   18CHL1  H22A 1315   0.436   4.313   9.145 -2.1915  0.3873 -1.8643
   18CHL1  H22B 1316   0.434   4.412   8.995 -1.5565 -1.6237 -0.0628
   18CHL1   C23 1317   0.621   4.288   9.028 -0.2205 -0.2455 -0.1884
   18CHL1  H23A 1318   0.672   4.341   8.945  0.4116  0.2106  0.4852
   18CHL1  H23B 1319   0.701   4.282   9.105  0.3162 -0.2534 -0.7427
   18CHL1   C24 1320   0.583   4.152   8.985 -0.2448 -0.5457  0.0438
   18CHL1  H24A 1321   0.667   4.084   9.013 -0.3255 -0.8163 -0.3564
   18CHL1  H24B 1322   0.500   4.109   9.045 -1.4830  0.5476 -0.8629
   18CHL1   C25 1323   0.547   4.149   8.836 -0.1039 -0.2493 -0.6002
   18CHL1   H25 1324   0.468   4.223   8.813 -1.0543 -1.2933 -0.7221
   18CHL1   C26 1325   0.666   4.169   8.747  0.4958 -0.4186  0.5584
   18CHL1  H26A 1326   0.740   4.089   8.767  0.0157 -0.4574  2.2943
   18CHL1  H26B 1327   0.634   4.161   8.641  0.8930  0.1377  0.3948
   18CHL1  H26C 1328   0.706   4.272   8.758 -0.1261 -0.1025 -0.0718
   18CHL1   C27 1329   0.481   4.020   8.797  0.1976  0.2185  0.0907
   18CHL1  H27A 1330   0.534   3.925   8.819 -0.3235 -0.3835 -1.1845
   18CHL1  H27B 1331   0.389   3.995   8.854  0.4377  1.0949  0.8809
   18CHL1  H27C 1332   0.461   4.000   8.689  0.3354  1.8535 -0.2615
   19CHL1    C3 1333   4.055   1.399  10.090 -0.2609  0.3842 -0.6807
   19CHL1    H3 1334   3.946   1.412  10.072 -0.3172  1.4460  0.3929
   19CHL1    O3 1335   4.074   1.460  10.220 -0.3161 -0.2079 -0.3013
   19CHL1   H3' 1336   4.154   1.512  10.206 -1.5419  2.3795  1.9997
   19CHL1    C4 1337   4.087   1.249  10.094 -0.6254 -0.4399 -0.9518
   19CHL1   H4A 1338   4.185   1.233  10.144 -0.3191  0.1021 -1.3633
   19CHL1   H4B 1339   4.013   1.200  10.161 -2.7982  0.3240 -2.7226
   19CHL1    C5 1340   4.088   1.188   9.958  0.3389  0.3486 -0.0482
   19CHL1    C6 1341   4.025   1.067   9.926  0.2878  0.1560 -0.0371
   19CHL1    H6 1342   3.966   1.020  10.007 -1.7322 -0.6163 -1.9136
   19CHL1    C7 1343   4.012   0.995   9.797 -0.0926 -0.8749  0.2755
   19CHL1   H7A 1344   4.024   0.886   9.815 -2.4272 -1.0744  0.7243
   19CHL1   H7B 1345   3.909   1.010   9.757  0.1688 -2.4820 -1.0527
   19CHL1    C8 1346   4.112   1.055   9.694 -0.1677 -0.6584  0.3279
   19CHL1    H8 1347   4.210   1.009   9.721 -0.1979 -1.0728 -0.2492
   19CHL1   C14 1348   4.075   1.012   9.553  0.3828 -0.4488 -0.5654
   19CHL1   H14 1349   3.984   1.069   9.526 -0.4228 -0.9647  1.0120
   19CHL1   C15 1350   4.051   0.866   9.529 -0.7093  0.1918  0.3152
   19CHL1  H15A 1351   4.120   0.810   9.595  0.8789  1.9138  0.1302
   19CHL1  H15B 1352   3.948   0.828   9.548 -1.0187  0.4319 -0.8648
   19CHL1   C16 1353   4.075   0.847   9.375  0.1364  0.2341  0.3042
   19CHL1  H16A 1354   4.157   0.774   9.361  0.9781  0.9311  1.4569
   19CHL1  H16B 1355   3.989   0.819   9.311 -1.3451  2.1250  1.3937
   19CHL1   C17 1356   4.120   0.986   9.327 -0.4001 -0.8023 -0.1778
   19CHL1   H17 1357   4.028   1.039   9.294  0.7018 -0.1957 -2.4032
   19CHL1   C13 1358   4.187   1.061   9.453  0.2100 -0.0205  0.7980
   19CHL1   C18 1359   4.330   0.999   9.487 -0.2763 -0.3631 -0.4850
   19CHL1  H18A 1360   4.318   0.889   9.476 -2.5063 -0.3331  1.3379
   19CHL1  H18B 1361   4.410   1.029   9.417  0.6786 -1.9066 -0.0908
   19CHL1  H18C 1362   4.353   1.026   9.592 -0.5803 -0.5733 -0.3612
   19CHL1   C12 1363   4.187   1.211   9.446 -0.1256 -0.0821 -0.2554
   19CHL1  H12A 1364   4.270   1.254   9.385  2.2207 -1.2866  1.9751
   19CHL1  H12B 1365   4.089   1.259   9.428 -0.3359  0.1173  1.3574
   19CHL1   C11 1366   4.217   1.267   9.587  0.1702  0.4590  0.4038
   19CHL1  H11A 1367   4.327   1.251   9.595 -0.0531 -1.1090  0.4969
   19CHL1  H11B 1368   4.202   1.377   9.583 -0.3672  0.3641 -0.4005
   19CHL1    C9 1369   4.122   1.211   9.695 -0.2357  0.1103  0.1580
   19CHL1    H9 1370   4.026   1.259   9.667  0.3367  1.2586  0.1420
   19CHL1   C10 1371   4.157   1.260   9.838  0.7422 -0.4529 -0.3130
   19CHL1   C19 1372   4.298   1.245   9.865 -0.0301 -0.7611 -0.3798
   19CHL1  H19A 1373   4.359   1.295   9.787  1.8197 -1.4871  0.5342
   19CHL1  H19B 1374   4.335   1.282   9.963 -0.3743  0.4933 -0.7195
   19CHL1  H19C 1375   4.337   1.141   9.870 -2.8181 -1.8271 -0.2097
   19CHL1    C1 1376   4.130   1.419   9.849 -0.2909 -0.3122 -0.0438
   19CHL1   H1A 1377   4.197   1.485   9.789 -2.5627  1.4798 -0.6810
   19CHL1   H1B 1378   4.025   1.448   9.829 -0.3395 -0.2155  0.3492
   19CHL1    C2 1379   4.150   1.471   9.988 -0.5724 -0.6861  0.0598
   19CHL1   H2A 1380   4.109   1.575   9.985 -1.2513 -0.8819  1.7820
   19CHL1   H2B 1381   4.259   1.478  10.009 -0.4263  0.3345 -0.9451
   19CHL1   C20 1382   4.204   0.973   9.193  0.0110  0.4749 -0.4167
   19CHL1   H20 1383   4.296   0.914   9.216  0.4838  0.9342 -1.0798
   19CHL1   C21 1384   4.243   1.116   9.140  0.0047 -0.0822  0.1829
   19CHL1  H21A 1385   4.312   1.153   9.218 -1.8728 -0.7203  2.1735
   19CHL1  H21B 1386   4.156   1.185   9.130 -0.4350 -0.9265 -2.1649
   19CHL1  H21C 1387   4.301   1.110   9.045  2.6722 -0.0335  1.7885
   19CHL1   C22 1388   4.127   0.895   9.082 -0.2065  0.4986 -0.2263
   19CHL1  H22A 1389   4.185   0.890   8.988 -1.0058  0.1879 -0.7144
   19CHL1  H22B 1390   4.118   0.790   9.117  0.8220  1.0244  1.6715
   19CHL1   C23 1391   3.985   0.944   9.052  0.0634 -0.0048 -1.0235
   19CHL1  H23A 1392   3.919   0.945   9.141 -0.1902  2.3299 -1.2096
   19CHL1  H23B 1393   3.995   1.046   9.009 -1.8967 -0.3847 -2.4584
   19CHL1   C24 1394   3.922   0.858   8.935 -0.2079 -0.8154  0.0339
   19CHL1  H24A 1395   4.005   0.859   8.862 -0.6345 -2.1725 -0.4943
   19CHL1  H24B 1396   3.909   0.755   8.974  0.6914 -0.5655  1.0263
   19CHL1   C25 1397   3.793   0.903   8.878 -0.4983  0.6906  0.4089
   19CHL1   H25 1398   3.709   0.885   8.949 -1.6089  0.5271 -0.9426
   19CHL1   C26 1399   3.796   1.050   8.856 -0.1784 -0.5418  0.8793
   19CHL1  H26A 1400   3.830   1.115   8.939  0.7850  1.2407 -0.8462
   19CHL1  H26B 1401   3.867   1.061   8.771 -2.3665 -0.7533 -1.0451
   19CHL1  H26C 1402   3.692   1.080   8.828  0.8311  0.2622 -2.2035
   19CHL1   C27 1403   3.756   0.842   8.739 -0.6744 -0.4927 -0.7074
   19CHL1  H27A 1404   3.791   0.902   8.653  0.6620 -1.0800 -0.5881
   19CHL1  H27B 1405   3.798   0.739   8.735  0.8772 -0.0713  2.7117
   19CHL1  H27C 1406   3.645   0.833   8.740 -0.8646  1.6605 -0.2436
   20CHL1    C3 1407   6.725   1.841  10.363  0.0735 -0.9082 -0.0229
   20CHL1    H3 1408   6.832   1.814  10.351  0.1176 -0.6167 -0.2819
   20CHL1    O3 1409   6.699   1.850  10.504  0.6314 -0.4494 -0.1596
   20CHL1   H3' 1410   6.776   1.898  10.535 -0.9412  1.3022  1.1284
   20CHL1    C4 1411   6.700   1.978  10.287  0.5836 -0.2805 -0.5939
   20CHL1   H4A 1412   6.597   2.015  10.309  0.7883  0.8417 -1.5034
   20CHL1   H4B 1413   6.760   2.054  10.341  0.1407 -1.4947  1.6626
   20CHL1    C5 1414   6.723   1.967  10.138 -0.4911 -0.9373 -0.7458
   20CHL1    C6 1415   6.796   2.057  10.067 -0.8971  0.4707 -0.1531
   20CHL1    H6 1416   6.839   2.149  10.109 -0.8254 -0.0008  0.8228
   20CHL1    C7 1417   6.811   2.061   9.921  0.4213 -0.6069 -0.3396
   20CHL1   H7A 1418   6.768   2.156   9.880  1.2971  0.3922  0.9975
   20CHL1   H7B 1419   6.913   2.035   9.887  0.5854 -0.7997  0.2951
   20CHL1    C8 1420   6.711   1.963   9.863  0.2760  0.2970 -0.0404
   20CHL1    H8 1421   6.612   2.011   9.878  0.1064  0.4865 -1.6279
   20CHL1   C14 1422   6.741   1.954   9.710  0.3439  0.0328  0.3223
   20CHL1   H14 1423   6.841   1.905   9.700 -0.8212 -2.3654  0.0847
   20CHL1   C15 1424   6.745   2.074   9.615 -0.0564 -0.0026  0.2652
   20CHL1  H15A 1425   6.655   2.138   9.623 -0.2378 -0.4781  2.3092
   20CHL1  H15B 1426   6.835   2.137   9.629  0.1762 -0.4539  0.8256
   20CHL1   C16 1427   6.743   2.020   9.477  0.2953 -0.3492  0.5286
   20CHL1  H16A 1428   6.660   2.071   9.424  2.1554  1.8689 -0.3324
   20CHL1  H16B 1429   6.837   2.052   9.428 -0.4375 -1.0685 -1.4102
   20CHL1   C17 1430   6.719   1.864   9.485 -0.3064 -0.1327 -0.3625
   20CHL1   H17 1431   6.824   1.829   9.475 -0.3935 -0.8793  1.1339
   20CHL1   C13 1432   6.659   1.850   9.626  0.0701  0.0573  0.3227
   20CHL1   C18 1433   6.514   1.885   9.622 -0.7368 -0.0544 -1.0348
   20CHL1  H18A 1434   6.471   1.901   9.723  1.1437 -0.7228 -0.1076
   20CHL1  H18B 1435   6.498   1.974   9.558 -0.9389  1.8275  1.5744
   20CHL1  H18C 1436   6.441   1.809   9.584  0.4433 -1.5265 -0.4262
   20CHL1   C12 1437   6.668   1.714   9.692 -0.4077  0.4508 -0.5914
   20CHL1  H12A 1438   6.600   1.641   9.642  0.1850 -1.9599  2.0019
   20CHL1  H12B 1439   6.773   1.682   9.676 -0.6843 -0.8509  0.1029
   20CHL1   C11 1440   6.634   1.719   9.843  0.0187  0.0647 -0.5142
   20CHL1  H11A 1441   6.525   1.737   9.855  0.1157  1.6931 -1.8098
   20CHL1  H11B 1442   6.651   1.618   9.885 -0.0687  0.1218 -0.3436
   20CHL1    C9 1443   6.707   1.831   9.926 -0.5570  0.8931 -0.3708
   20CHL1    H9 1444   6.813   1.801   9.932 -1.4161 -2.7140 -2.1117
   20CHL1   C10 1445   6.660   1.845  10.074  0.0906 -0.5255 -0.5192
   20CHL1   C19 1446   6.504   1.867  10.079 -0.6016  0.8430 -0.2964
   20CHL1  H19A 1447   6.468   1.935   9.999 -1.1918  1.1093  0.1945
   20CHL1  H19B 1448   6.450   1.773  10.053 -0.8423  1.1606 -0.9505
   20CHL1  H19C 1449   6.462   1.899  10.177 -0.2548  0.0692  0.1055
   20CHL1    C1 1450   6.704   1.718  10.153  1.4170  0.4472 -0.3541
   20CHL1   H1A 1451   6.676   1.623  10.104  2.0801 -0.6530  1.3246
   20CHL1   H1B 1452   6.815   1.715  10.151  1.4115 -0.5151  0.1996
   20CHL1    C2 1453   6.661   1.719  10.295 -0.0989 -0.6697  0.2135
   20CHL1   H2A 1454   6.706   1.630  10.344  0.8743 -0.6877 -0.6984
   20CHL1   H2B 1455   6.551   1.715  10.313 -0.2654  0.2948 -0.5827
   20CHL1   C20 1456   6.653   1.807   9.355 -0.3302  0.2595  0.1733
   20CHL1   H20 1457   6.558   1.864   9.346 -0.5141 -0.2380 -1.2190
   20CHL1   C21 1458   6.615   1.660   9.369  0.1778 -0.3129 -0.3341
   20CHL1  H21A 1459   6.538   1.647   9.449 -1.6443  1.6877 -1.6835
   20CHL1  H21B 1460   6.709   1.604   9.388 -0.7650 -1.4717  0.9697
   20CHL1  H21C 1461   6.582   1.627   9.268  2.9861  0.5307 -1.5666
   20CHL1   C22 1462   6.735   1.835   9.226 -0.1029  0.2581 -0.0585
   20CHL1  H22A 1463   6.783   1.935   9.230 -0.5512  0.5581 -1.5603
   20CHL1  H22B 1464   6.811   1.753   9.223  0.7070  1.0097 -0.3335
   20CHL1   C23 1465   6.653   1.842   9.100 -0.3282 -0.1105  0.0419
   20CHL1  H23A 1466   6.736   1.856   9.027 -1.0137  1.6848 -0.4274
   20CHL1  H23B 1467   6.589   1.753   9.081 -2.1364  1.2667 -0.4774
   20CHL1   C24 1468   6.568   1.969   9.094  0.3048  0.2171  0.0907
   20CHL1  H24A 1469   6.482   1.970   9.164  1.2270 -2.0090  1.2816
   20CHL1  H24B 1470   6.627   2.059   9.122 -0.0179  0.2128  0.8039
   20CHL1   C25 1471   6.509   1.996   8.950  0.6439 -0.2528  0.3346
   20CHL1   H25 1472   6.450   1.907   8.920  0.2708  1.2780 -3.8614
   20CHL1   C26 1473   6.415   2.121   8.937  0.0043  0.0041 -0.7909
   20CHL1  H26A 1474   6.454   2.200   9.005  0.2292 -1.0224  0.2881
   20CHL1  H26B 1475   6.419   2.163   8.834 -0.8626  2.0396 -0.0231
   20CHL1  H26C 1476   6.315   2.118   8.985 -0.1850  2.9328 -0.9124
   20CHL1   C27 1477   6.606   2.014   8.836 -0.6583 -0.1854  0.1052
   20CHL1  H27A 1478   6.672   2.103   8.852  3.5268 -3.1108 -0.1763
   20CHL1  H27B 1479   6.668   1.923   8.822 -2.1188 -0.8997 -1.8922
   20CHL1  H27C 1480   6.550   2.024   8.741  0.3662 -2.6735 -0.7773
   21CHL1    C3 1481   6.126   4.958  10.026 -0.3719  0.8232 -0.4573
   21CHL1    H3 1482   6.233   4.987  10.015  0.0645  0.0444  1.5130
   21CHL1    O3 1483   6.106   4.972  10.162  0.8687 -0.0476  0.4179
   21CHL1   H3' 1484   6.144   4.897  10.207  0.7432  0.2516  1.0310
   21CHL1    C4 1485   6.030   5.042   9.937 -0.0149  0.0009  0.4771
   21CHL1   H4A 1486   5.927   5.033   9.977  0.4226  2.2008  2.1678
   21CHL1   H4B 1487   6.059   5.149   9.945 -1.2268  0.4292 -0.6697
   21CHL1    C5 1488   6.039   4.998   9.784  0.6955 -0.0321 -0.0295
   21CHL1    C6 1489   6.056   5.087   9.684  0.0164 -0.0949 -0.2171
   21CHL1    H6 1490   6.081   5.193   9.702  0.8614 -0.4996  1.0251
   21CHL1    C7 1491   6.051   5.039   9.544  0.7074 -0.7472 -0.1763
   21CHL1   H7A 1492   5.994   5.106   9.476  1.8502  0.8395  0.4341
   21CHL1   H7B 1493   6.156   5.042   9.508  0.1471  1.3014 -1.7257
   21CHL1    C8 1494   6.000   4.898   9.512 -0.0189 -0.7638 -0.7847
   21CHL1    H8 1495   5.890   4.907   9.522  0.4052  1.9092  2.3394
   21CHL1   C14 1496   6.053   4.864   9.371 -0.0347 -1.1494  0.6121
   21CHL1   H14 1497   6.163   4.849   9.381  0.0117  0.5222  2.8885
   21CHL1   C15 1498   6.017   4.948   9.242 -0.7883 -0.1322 -0.3616
   21CHL1  H15A 1499   5.928   5.015   9.253 -0.6792  0.0533 -0.5983
   21CHL1  H15B 1500   6.102   5.020   9.237 -1.5148  0.8313  0.8054
   21CHL1   C16 1501   6.011   4.858   9.123 -0.0966  0.6050 -0.4697
   21CHL1  H16A 1502   5.907   4.846   9.085  0.5973 -0.0466 -2.2019
   21CHL1  H16B 1503   6.069   4.909   9.043 -1.8759  2.3702 -0.6918
   21CHL1   C17 1504   6.059   4.725   9.181 -0.5615 -0.3879 -0.3217
   21CHL1   H17 1505   6.168   4.743   9.187 -0.2855 -0.6772 -3.4399
   21CHL1   C13 1506   6.006   4.725   9.328  0.5246 -0.2913 -0.5722
   21CHL1   C18 1507   5.845   4.724   9.331 -0.2446 -0.2029  0.2856
   21CHL1  H18A 1508   5.813   4.733   9.436  0.3970  0.8055  0.4055
   21CHL1  H18B 1509   5.805   4.806   9.267 -1.0593  0.3610  1.4988
   21CHL1  H18C 1510   5.811   4.628   9.287  1.6759  0.4113 -2.7481
   21CHL1   C12 1511   6.060   4.622   9.434  0.0348  0.4783  1.4908
   21CHL1  H12A 1512   6.002   4.530   9.412 -1.3166  0.7595  3.7078
   21CHL1  H12B 1513   6.171   4.608   9.431 -0.1335 -0.5561 -0.0817
   21CHL1   C11 1514   6.016   4.662   9.577 -0.5566  0.0823 -0.1246
   21CHL1  H11A 1515   5.907   4.669   9.598 -0.2711  0.4965  1.2720
   21CHL1  H11B 1516   6.072   4.594   9.644  2.1960  3.1910  0.8551
   21CHL1    C9 1517   6.060   4.804   9.615 -0.4086 -0.2270  0.4349
   21CHL1    H9 1518   6.170   4.810   9.605 -0.4294 -0.2012  0.2146
   21CHL1   C10 1519   6.017   4.843   9.760 -0.2041 -0.4341  0.5820
   21CHL1   C19 1520   5.872   4.811   9.797 -0.3924 -0.4164  0.1180
   21CHL1  H19A 1521   5.871   4.701   9.783  1.3316 -0.0681 -3.3516
   21CHL1  H19B 1522   5.838   4.840   9.899 -1.3212 -0.1821 -0.2525
   21CHL1  H19C 1523   5.793   4.850   9.729  2.0993 -0.9014 -3.1997
   21CHL1    C1 1524   6.106   4.757   9.854 -0.0293  0.6700  0.1149
   21CHL1   H1A 1525   6.075   4.651   9.865  0.5754  0.3450 -1.2448
   21CHL1   H1B 1526   6.210   4.760   9.813  0.2550  0.1003  0.7789
   21CHL1    C2 1527   6.103   4.811  10.006  0.7909 -0.1258  0.6771
   21CHL1   H2A 1528   6.188   4.748  10.041  0.5538  0.1592  1.7644
   21CHL1   H2B 1529   6.003   4.785  10.047  1.4110  2.2185  3.8599
   21CHL1   C20 1530   6.045   4.598   9.105 -0.1327 -0.0390  1.1716
   21CHL1   H20 1531   5.949   4.547   9.125 -0.8458  1.5663  1.9812
   21CHL1   C21 1532   6.145   4.487   9.143  0.1804 -0.0707  0.6398
   21CHL1  H21A 1533   6.111   4.397   9.088 -2.4812  2.6127 -2.3473
   21CHL1  H21B 1534   6.134   4.475   9.253  1.6537  1.0802  0.9356
   21CHL1  H21C 1535   6.250   4.517   9.121 -0.5542  0.5342 -2.1451
   21CHL1   C22 1536   6.048   4.618   8.955  0.0038 -1.0260  0.3897
   21CHL1  H22A 1537   6.024   4.527   8.895 -0.2837 -0.2128 -0.7445
   21CHL1  H22B 1538   5.961   4.680   8.925  0.1939 -0.8619  0.1795
   21CHL1   C23 1539   6.181   4.663   8.897 -0.3619 -0.1976 -0.0208
   21CHL1  H23A 1540   6.208   4.756   8.951 -2.7086  0.6605 -0.2699
   21CHL1  H23B 1541   6.262   4.590   8.916  0.1826  0.5759  0.6147
   21CHL1   C24 1542   6.170   4.715   8.750 -0.5100 -0.0071  0.0866
   21CHL1  H24A 1543   6.152   4.622   8.692  0.5293  0.7441 -1.4570
   21CHL1  H24B 1544   6.086   4.787   8.747 -0.0951  0.4161 -2.1148
   21CHL1   C25 1545   6.304   4.767   8.686  0.0490  0.6706  0.1281
   21CHL1   H25 1546   6.331   4.858   8.744  0.7456  0.1502  0.6268
   21CHL1   C26 1547   6.411   4.657   8.694 -0.0342  0.5325 -0.4252
   21CHL1  H26A 1548   6.370   4.561   8.655  0.7826 -0.6562  1.5685
   21CHL1  H26B 1549   6.500   4.683   8.633 -0.0349 -0.4938 -0.8821
   21CHL1  H26C 1550   6.444   4.635   8.798 -0.7080 -0.8691 -0.4926
   21CHL1   C27 1551   6.267   4.796   8.538 -0.0505 -0.1990  0.2988
   21CHL1  H27A 1552   6.256   4.693   8.499 -0.8677 -0.0388  0.0860
   21CHL1  H27B 1553   6.169   4.847   8.522  0.4088  0.7505  0.4690
   21CHL1  H27C 1554   6.345   4.858   8.488  0.6513  1.4327  3.2786
   22CHL1    C3 1555   5.523   6.032  10.224 -0.0164  0.5857  0.4581
   22CHL1    H3 1556   5.443   6.107  10.212  0.2260  0.7110 -0.4057
   22CHL1    O3 1557   5.550   6.002  10.355 -0.0025  0.5665 -0.6885
   22CHL1   H3' 1558   5.629   5.947  10.349  0.0548  0.4394  0.9490
   22CHL1    C4 1559   5.485   5.904  10.150  0.0302  0.2177 -0.1939
   22CHL1   H4A 1560   5.527   5.807  10.185 -0.3731  0.0727 -0.1049
   22CHL1   H4B 1561   5.378   5.894  10.177  0.1420  0.1614  0.2394
   22CHL1    C5 1562   5.496   5.904  10.001  0.5197 -0.8924  0.1730
   22CHL1    C6 1563   5.393   5.864   9.930  0.4715 -0.5598 -0.9695
   22CHL1    H6 1564   5.307   5.818   9.981  1.1918 -0.1511  0.6458
   22CHL1    C7 1565   5.394   5.872   9.780  0.0602 -0.3100  0.1526
   22CHL1   H7A 1566   5.358   5.779   9.732  1.2911  0.3465 -2.0863
   22CHL1   H7B 1567   5.319   5.945   9.743 -0.8037 -0.2518  1.9787
   22CHL1    C8 1568   5.534   5.902   9.721  0.0558 -0.4527  0.4067
   22CHL1    H8 1569   5.590   5.807   9.734  0.9132  0.1088  0.8542
   22CHL1   C14 1570   5.513   5.939   9.578  0.1320  0.3626 -0.0536
   22CHL1   H14 1571   5.443   6.025   9.579 -0.4951 -0.1581  1.2604
   22CHL1   C15 1572   5.448   5.834   9.486 -0.2593 -0.2349  0.3885
   22CHL1  H15A 1573   5.495   5.733   9.493  2.3882  0.9493  0.5404
   22CHL1  H15B 1574   5.339   5.825   9.505 -0.0975 -1.0659  0.9321
   22CHL1   C16 1575   5.486   5.880   9.339  0.5877  0.0460  0.2937
   22CHL1  H16A 1576   5.523   5.793   9.280  1.5598  1.4981 -1.2693
   22CHL1  H16B 1577   5.400   5.919   9.281 -0.1564 -1.0056  0.6732
   22CHL1   C17 1578   5.584   5.995   9.360 -0.0459 -0.2073 -0.3897
   22CHL1   H17 1579   5.520   6.084   9.372  1.0640  0.5165  0.2299
   22CHL1   C13 1580   5.640   5.978   9.505 -0.1478  0.6432 -0.2442
   22CHL1   C18 1581   5.759   5.879   9.511  1.2565 -0.3282 -0.0860
   22CHL1  H18A 1582   5.853   5.925   9.473  0.6698  0.6603 -0.3723
   22CHL1  H18B 1583   5.778   5.851   9.617  2.7131  0.3044 -0.1624
   22CHL1  H18C 1584   5.734   5.786   9.456 -2.5645 -0.5074  1.8059
   22CHL1   C12 1585   5.682   6.114   9.577  0.2411 -0.1936  0.0271
   22CHL1  H12A 1586   5.765   6.166   9.524  0.5620  0.8971  1.5896
   22CHL1  H12B 1587   5.604   6.192   9.558  1.4183  1.1293  0.5483
   22CHL1   C11 1588   5.712   6.102   9.722 -0.0243 -1.2505 -0.5595
   22CHL1  H11A 1589   5.803   6.041   9.736 -0.7094 -2.2103 -0.2297
   22CHL1  H11B 1590   5.722   6.204   9.763  0.7217 -1.5243 -0.0662
   22CHL1    C9 1591   5.593   6.025   9.795 -0.1736 -0.5650  0.4758
   22CHL1    H9 1592   5.512   6.102   9.794  0.4564  0.1273 -2.1643
   22CHL1   C10 1593   5.613   5.985   9.943 -0.1701 -0.3659 -0.4265
   22CHL1   C19 1594   5.741   5.896   9.946  0.3533 -0.1104  0.2504
   22CHL1  H19A 1595   5.730   5.808   9.880 -0.0625 -0.6271  1.0037
   22CHL1  H19B 1596   5.836   5.946   9.918  0.3944  0.4363  1.3093
   22CHL1  H19C 1597   5.765   5.854  10.046 -0.7660 -0.9478  0.1771
   22CHL1    C1 1598   5.639   6.123  10.020  0.2943 -0.3114  0.5721
   22CHL1   H1A 1599   5.736   6.156   9.977  2.4924 -2.2880  3.8410
   22CHL1   H1B 1600   5.555   6.194  10.006 -0.7101 -1.8773 -1.6931
   22CHL1    C2 1601   5.655   6.089  10.172 -0.0857  0.8498  0.1542
   22CHL1   H2A 1602   5.683   6.189  10.214 -2.2085  0.8472  1.6271
   22CHL1   H2B 1603   5.738   6.020  10.199 -0.3462  0.2749 -0.5089
   22CHL1   C20 1604   5.677   6.024   9.239 -0.0127 -0.1439  0.4132
   22CHL1   H20 1605   5.756   6.094   9.271 -0.4603 -0.2396  1.7522
   22CHL1   C21 1606   5.570   6.088   9.143 -0.0660  0.1954 -0.3525
   22CHL1  H21A 1607   5.620   6.094   9.045  0.0162 -0.1450 -0.3292
   22CHL1  H21B 1608   5.529   6.184   9.181 -1.4667 -0.7569  0.6195
   22CHL1  H21C 1609   5.482   6.023   9.125  0.1309 -0.5980  1.3933
   22CHL1   C22 1610   5.744   5.902   9.175 -0.4370  0.2092 -0.0862
   22CHL1  H22A 1611   5.790   5.840   9.255 -0.0016 -0.8433 -1.1411
   22CHL1  H22B 1612   5.666   5.839   9.126  1.3866 -2.6141  0.5120
   22CHL1   C23 1613   5.855   5.940   9.072 -0.9029  0.4440 -0.3229
   22CHL1  H23A 1614   5.800   5.992   8.991 -0.8994 -1.1278 -1.3659
   22CHL1  H23B 1615   5.926   6.013   9.117 -1.4740  1.1795 -0.6077
   22CHL1   C24 1616   5.928   5.813   9.021 -0.6565 -0.0803  0.6137
   22CHL1  H24A 1617   6.016   5.785   9.082 -0.5706  1.1940  1.0918
   22CHL1  H24B 1618   5.864   5.725   9.000 -0.7751 -0.6515  3.2054
   22CHL1   C25 1619   5.994   5.833   8.887  0.0333  0.6776  0.4834
   22CHL1   H25 1620   5.917   5.872   8.817  1.1248 -0.1796 -1.2308
   22CHL1   C26 1621   6.104   5.942   8.891  0.4927  0.0398 -0.2216
   22CHL1  H26A 1622   6.178   5.912   8.967 -0.2957  0.3952  0.7050
   22CHL1  H26B 1623   6.150   5.968   8.793 -0.0502  2.4759  0.1354
   22CHL1  H26C 1624   6.052   6.034   8.926  0.3702 -0.0583 -0.1506
   22CHL1   C27 1625   6.042   5.701   8.820 -0.4565  0.3100  0.9089
   22CHL1  H27A 1626   6.087   5.721   8.720 -0.2003 -0.7046  0.8177
   22CHL1  H27B 1627   6.126   5.654   8.875  1.3233  1.4925 -0.7025
   22CHL1  H27C 1628   5.956   5.633   8.799  0.9031 -0.9870 -0.6394
   23CHL1    C3 1629   2.586   0.137  10.113  0.1025  0.0744 -0.1831
   23CHL1    H3 1630   2.662   0.213  10.084 -2.1097  2.5454  0.1930
   23CHL1    O3 1631   2.589   0.092  10.245  0.3528 -0.1438  0.6592
   23CHL1   H3' 1632   2.537   0.151  10.301  0.3554 -2.4303  3.1952
   23CHL1    C4 1633   2.450   0.197  10.063 -0.0502  0.2990 -0.6449
   23CHL1   H4A 1634   2.376   0.118  10.088  0.3577 -0.4352 -1.7520
   23CHL1   H4B 1635   2.436   0.286  10.128  2.3622 -0.7431  1.3811
   23CHL1    C5 1636   2.434   0.233   9.918  0.1127  0.3591 -0.3273
   23CHL1    C6 1637   2.404   0.357   9.878 -0.1650  0.4654 -0.4271
   23CHL1    H6 1638   2.390   0.432   9.957  1.3298 -0.4027  0.6785
   23CHL1    C7 1639   2.384   0.387   9.732 -0.0619 -0.3158 -0.3855
   23CHL1   H7A 1640   2.283   0.429   9.716 -1.1256 -3.0636 -1.2994
   23CHL1   H7B 1641   2.455   0.464   9.694 -0.1219 -0.2410 -0.3458
   23CHL1    C8 1642   2.385   0.269   9.631  0.7844 -0.1605  0.2965
   23CHL1    H8 1643   2.285   0.220   9.638  0.1448  1.2925  1.6158
   23CHL1   C14 1644   2.416   0.315   9.485 -0.5452  0.4728  0.0308
   23CHL1   H14 1645   2.518   0.359   9.484 -0.4090  0.1663  0.3664
   23CHL1   C15 1646   2.318   0.419   9.422 -0.3414 -0.6342  0.1886
   23CHL1  H15A 1647   2.213   0.401   9.456  0.1877  1.3952  3.1002
   23CHL1  H15B 1648   2.351   0.522   9.447  2.7276 -1.4716 -0.2606
   23CHL1   C16 1649   2.334   0.399   9.265 -0.5688 -0.1167 -0.4122
   23CHL1  H16A 1650   2.233   0.375   9.225 -1.3977 -0.4029  1.8185
   23CHL1  H16B 1651   2.389   0.483   9.215 -0.1465  0.1886  0.5527
   23CHL1   C17 1652   2.422   0.275   9.253 -0.1534  0.4248 -0.3846
   23CHL1   H17 1653   2.524   0.320   9.255  0.6988 -1.4685 -0.2524
   23CHL1   C13 1654   2.410   0.199   9.389 -0.0402 -0.8298 -0.5937
   23CHL1   C18 1655   2.273   0.131   9.394  0.2822  0.1053 -0.2406
   23CHL1  H18A 1656   2.241   0.095   9.495  0.7358  0.0805 -0.1064
   23CHL1  H18B 1657   2.196   0.205   9.362  1.2307  0.9657 -0.5400
   23CHL1  H18C 1658   2.279   0.041   9.329 -1.8936 -0.0982 -0.2293
   23CHL1   C12 1659   2.521   0.109   9.431 -0.2137  0.1100  0.2122
   23CHL1  H12A 1660   2.533   0.034   9.350 -1.1240  1.0313 -0.7891
   23CHL1  H12B 1661   2.608   0.178   9.436  0.2804 -0.5492  0.8815
   23CHL1   C11 1662   2.510   0.049   9.570 -0.5393  0.7575  0.0768
   23CHL1  H11A 1663   2.418  -0.012   9.575 -0.4833  0.6132 -0.5566
   23CHL1  H11B 1664   2.604  -0.004   9.596 -0.3464  1.0676  0.0233
   23CHL1    C9 1665   2.488   0.161   9.674  0.2547 -0.3207  0.2324
   23CHL1    H9 1666   2.584   0.218   9.675  1.4401 -2.2306 -0.6236
   23CHL1   C10 1667   2.467   0.118   9.823  0.7712  0.0539 -0.3172
   23CHL1   C19 1668   2.349   0.019   9.832 -0.4930 -0.4198  0.5878
   23CHL1  H19A 1669   2.270   0.070   9.774  0.9785  1.3073  0.0671
   23CHL1  H19B 1670   2.377  -0.078   9.785 -1.1021 -0.3137  0.0026
   23CHL1  H19C 1671   2.306  -0.005   9.932  0.7893  0.9715  1.5022
   23CHL1    C1 1672   2.596   0.043   9.871 -0.3295 -0.2262 -0.2307
   23CHL1   H1A 1673   2.599  -0.048   9.807  0.3947 -0.7039  0.4833
   23CHL1   H1B 1674   2.675   0.117   9.843  0.0190 -0.6085 -0.2668
   23CHL1    C2 1675   2.604   0.013  10.022 -0.0528  0.4060 -0.2902
   23CHL1   H2A 1676   2.699  -0.042  10.036  0.0441  0.3931 -0.9877
   23CHL1   H2B 1677   2.529  -0.060  10.059  0.0305  0.2351 -0.4593
   23CHL1   C20 1678   2.413   0.188   9.125  0.1690  0.3424  0.1169
   23CHL1   H20 1679   2.417   0.083   9.161 -1.0573 -0.7089 -2.6729
   23CHL1   C21 1680   2.552   0.209   9.050  0.2912  0.5419 -0.2205
   23CHL1  H21A 1681   2.573   0.314   9.019  2.4661  0.3891  0.6172
   23CHL1  H21B 1682   2.558   0.150   8.956 -1.6487 -1.4447  0.8532
   23CHL1  H21C 1683   2.632   0.168   9.116  0.3842 -1.1985 -1.3872
   23CHL1   C22 1684   2.294   0.220   9.042  0.3462 -0.3032 -0.0107
   23CHL1  H22A 1685   2.201   0.199   9.099  0.9992 -1.5784  0.5874
   23CHL1  H22B 1686   2.280   0.326   9.012  0.9724 -0.2192  0.0006
   23CHL1   C23 1687   2.287   0.142   8.905  0.3535 -0.2483 -0.1324
   23CHL1  H23A 1688   2.190   0.172   8.861 -1.4788 -0.7427  3.4278
   23CHL1  H23B 1689   2.366   0.197   8.849  0.9489 -1.1418 -0.1820
   23CHL1   C24 1690   2.326  -0.007   8.899  0.0029 -0.3096 -0.2307
   23CHL1  H24A 1691   2.416  -0.021   8.963  0.1005 -2.2047 -0.7663
   23CHL1  H24B 1692   2.251  -0.066   8.956 -0.1183 -1.0869 -1.1850
   23CHL1   C25 1693   2.343  -0.063   8.759  0.4360  0.4148  0.0680
   23CHL1   H25 1694   2.249  -0.030   8.710 -1.5020 -0.9291  2.7318
   23CHL1   C26 1695   2.474  -0.014   8.687  0.4478 -0.3092 -0.3771
   23CHL1  H26A 1696   2.480  -0.053   8.583  0.4000  0.8464 -0.8161
   23CHL1  H26B 1697   2.489   0.096   8.684 -0.8102 -0.1227 -0.0803
   23CHL1  H26C 1698   2.559  -0.060   8.742 -0.1588  2.9491  3.4518
   23CHL1   C27 1699   2.345  -0.218   8.753  0.2183 -0.4140  1.1432
   23CHL1  H27A 1700   2.256  -0.271   8.792 -0.7095 -0.7623 -1.3846
   23CHL1  H27B 1701   2.354  -0.258   8.650  0.5629 -0.4840  1.1980
   23CHL1  H27C 1702   2.425  -0.259   8.819 -0.5763 -2.4969  0.8585
   24CHL1    C3 1703   3.502   1.094  10.129  0.7407  0.4339  0.4332
   24CHL1    H3 1704   3.404   1.051  10.098  0.7215  0.9486 -0.2231
   24CHL1    O3 1705   3.512   1.078  10.269 -0.1161  0.0550 -0.1852
   24CHL1   H3' 1706   3.600   1.097  10.302 -0.9129  1.6209  1.0858
   24CHL1    C4 1707   3.627   1.037  10.063  0.5273  0.2719  0.9775
   24CHL1   H4A 1708   3.723   1.078  10.102  1.8188  0.0996 -1.8814
   24CHL1   H4B 1709   3.630   0.929  10.086 -1.4676  0.1759  0.8474
   24CHL1    C5 1710   3.624   1.065   9.915 -0.0015 -0.3157 -0.2289
   24CHL1    C6 1711   3.629   0.972   9.819 -0.3489  0.4223  0.6731
   24CHL1    H6 1712   3.631   0.867   9.851  0.6266  0.6423  1.3550
   24CHL1    C7 1713   3.635   0.989   9.669 -0.2502 -0.0573 -0.5568
   24CHL1   H7A 1714   3.721   0.937   9.622  0.9057  2.4313 -1.3220
   24CHL1   H7B 1715   3.545   0.953   9.614 -0.3212  0.8475 -1.0503
   24CHL1    C8 1716   3.662   1.141   9.636 -0.0522  0.1877 -0.0387
   24CHL1    H8 1717   3.769   1.162   9.658 -0.0135  1.3479 -1.2926
   24CHL1   C14 1718   3.622   1.159   9.493  0.1055 -0.0340  0.0834
   24CHL1   H14 1719   3.513   1.144   9.483  0.3472 -0.8840 -1.3939
   24CHL1   C15 1720   3.680   1.054   9.398  0.0992  0.2758 -0.0448
   24CHL1  H15A 1721   3.782   1.026   9.432  0.3413  1.7168  0.4814
   24CHL1  H15B 1722   3.609   0.970   9.390  0.4274  0.0176 -0.2599
   24CHL1   C16 1723   3.682   1.129   9.256 -0.1661  1.1772 -0.4290
   24CHL1  H16A 1724   3.784   1.150   9.218 -0.3399  2.2860 -0.3007
   24CHL1  H16B 1725   3.626   1.075   9.177 -0.5291  1.7160 -0.5447
   24CHL1   C17 1726   3.618   1.267   9.296  0.2827 -0.2684  0.3619
   24CHL1   H17 1727   3.507   1.260   9.298  0.1781  1.2911  1.0373
   24CHL1   C13 1728   3.657   1.297   9.439 -0.2954 -0.8498  0.7712
   24CHL1   C18 1729   3.806   1.328   9.443 -0.2157 -0.1532  0.2676
   24CHL1  H18A 1730   3.828   1.427   9.397  0.4387 -0.2722  0.3288
   24CHL1  H18B 1731   3.838   1.325   9.549  0.1604  0.7180  0.1847
   24CHL1  H18C 1732   3.867   1.254   9.387 -0.6426 -0.3054 -0.0004
   24CHL1   C12 1733   3.575   1.393   9.524 -0.0377  0.0257 -0.4512
   24CHL1  H12A 1734   3.592   1.499   9.494 -3.0366  0.8003  0.4480
   24CHL1  H12B 1735   3.468   1.370   9.511  0.2386 -1.4293 -0.1925
   24CHL1   C11 1736   3.609   1.381   9.674 -0.2849 -0.2008  0.8611
   24CHL1  H11A 1737   3.713   1.417   9.687  0.1155 -0.9788 -0.0887
   24CHL1  H11B 1738   3.549   1.448   9.739 -1.1781  0.1101 -0.2512
   24CHL1    C9 1739   3.582   1.240   9.725 -0.0412  0.2323 -0.0838
   24CHL1    H9 1740   3.478   1.209   9.700  0.5938 -0.7498 -1.5805
   24CHL1   C10 1741   3.611   1.220   9.874  0.5174 -0.2943 -0.2945
   24CHL1   C19 1742   3.742   1.276   9.926 -0.2221 -0.4414  0.9006
   24CHL1  H19A 1743   3.768   1.258  10.033  2.1487  2.1111  0.8019
   24CHL1  H19B 1744   3.821   1.248   9.853 -2.1787 -2.0747 -0.6599
   24CHL1  H19C 1745   3.740   1.386   9.917  4.2094 -0.2804  0.5799
   24CHL1    C1 1746   3.493   1.275   9.956 -0.6304 -0.6354 -0.3713
   24CHL1   H1A 1747   3.482   1.384   9.939  0.6341 -0.4283  0.1593
   24CHL1   H1B 1748   3.405   1.221   9.913  0.8751 -1.9086 -1.9128
   24CHL1    C2 1749   3.488   1.249  10.109  0.7583 -1.1490 -0.3786
   24CHL1   H2A 1750   3.394   1.290  10.153 -0.4528 -0.2873 -3.6455
   24CHL1   H2B 1751   3.570   1.312  10.151 -0.6083  1.1097 -0.9839
   24CHL1   C20 1752   3.659   1.368   9.181  0.0054  0.3003  0.1637
   24CHL1   H20 1753   3.770   1.360   9.180 -0.0077 -0.2016  1.2152
   24CHL1   C21 1754   3.630   1.514   9.231 -0.2004 -0.0768 -0.7121
   24CHL1  H21A 1755   3.637   1.588   9.149  0.9916 -0.4770 -0.9694
   24CHL1  H21B 1756   3.700   1.542   9.312  0.6879  0.1936 -1.5680
   24CHL1  H21C 1757   3.523   1.516   9.262  0.4774  0.2950  1.7678
   24CHL1   C22 1758   3.599   1.341   9.045  0.3425 -0.6719 -0.1278
   24CHL1  H22A 1759   3.587   1.232   9.022 -3.7710 -0.6339  1.3679
   24CHL1  H22B 1760   3.495   1.378   9.053  0.4045 -0.3029 -1.0421
   24CHL1   C23 1761   3.668   1.406   8.930 -0.5337 -0.4611  0.3010
   24CHL1  H23A 1762   3.676   1.517   8.937 -2.9255 -0.3326  1.4961
   24CHL1  H23B 1763   3.769   1.362   8.914 -0.2019  0.7480 -1.0677
   24CHL1   C24 1764   3.576   1.399   8.799  0.0413 -0.1503 -1.0826
   24CHL1  H24A 1765   3.545   1.292   8.800 -0.0102 -0.1341 -0.9739
   24CHL1  H24B 1766   3.484   1.459   8.814  0.4712  0.0248  1.0565
   24CHL1   C25 1767   3.656   1.452   8.682  0.0638 -0.2549 -0.1998
   24CHL1   H25 1768   3.717   1.538   8.718  0.3944 -1.6566  2.7243
   24CHL1   C26 1769   3.756   1.351   8.618  0.0635  0.2486  0.2926
   24CHL1  H26A 1770   3.816   1.301   8.697  0.3167 -1.9277 -1.2373
   24CHL1  H26B 1771   3.697   1.264   8.583  0.7155  0.3401 -1.0554
   24CHL1  H26C 1772   3.809   1.392   8.529  0.8528  1.0289  1.0994
   24CHL1   C27 1773   3.562   1.510   8.574  0.7223  0.5270  0.3933
   24CHL1  H27A 1774   3.507   1.427   8.525  0.6337  0.2671  0.9342
   24CHL1  H27B 1775   3.489   1.586   8.608  0.3991  1.4378 -2.2033
   24CHL1  H27C 1776   3.623   1.560   8.496 -2.0649 -0.1057 -2.3085
   25CHL1    C3 1777   5.339   2.591  10.344  0.8251 -0.5130  0.7036
   25CHL1    H3 1778   5.448   2.571  10.336  1.6212  2.6660  2.7327
   25CHL1    O3 1779   5.291   2.543  10.470 -0.3339 -0.5792 -0.0294
   25CHL1   H3' 1780   5.208   2.588  10.489 -0.4125 -1.0103  0.6459
   25CHL1    C4 1781   5.311   2.744  10.319 -0.0145  0.4284 -0.4496
   25CHL1   H4A 1782   5.202   2.755  10.338 -0.0258 -1.7117  0.9607
   25CHL1   H4B 1783   5.369   2.783  10.405  1.3388 -3.2421  0.3804
   25CHL1    C5 1784   5.352   2.796  10.189 -0.2328 -0.4111  0.4772
   25CHL1    C6 1785   5.438   2.900  10.178  0.0732  0.8150 -0.1312
   25CHL1    H6 1786   5.484   2.948  10.266  2.1530 -0.0215 -0.7294
   25CHL1    C7 1787   5.475   2.958  10.045  0.1150 -0.5700 -0.7040
   25CHL1   H7A 1788   5.443   3.064  10.054 -0.5730 -0.9908  2.1238
   25CHL1   H7B 1789   5.584   2.954  10.024  0.6646 -2.4015  2.2423
   25CHL1    C8 1790   5.393   2.899   9.929 -0.0933 -0.0002  0.3855
   25CHL1    H8 1791   5.290   2.941   9.926 -0.7038 -1.4109  1.4727
   25CHL1   C14 1792   5.464   2.938   9.798  0.5083  0.8918 -0.7208
   25CHL1   H14 1793   5.563   2.887   9.795 -0.5134 -1.1139 -1.3192
   25CHL1   C15 1794   5.505   3.082   9.765 -0.1804  0.9906 -0.5701
   25CHL1  H15A 1795   5.418   3.148   9.784 -1.1349 -0.0270 -1.3367
   25CHL1  H15B 1796   5.594   3.109   9.825  0.4676 -0.4253 -0.8654
   25CHL1   C16 1797   5.530   3.085   9.613  0.5822 -0.5083 -0.4053
   25CHL1  H16A 1798   5.468   3.165   9.566 -0.0263 -1.2014 -0.7943
   25CHL1  H16B 1799   5.635   3.112   9.589  0.7840 -0.9733 -0.0445
   25CHL1   C17 1800   5.471   2.949   9.553  0.2785 -0.3141 -0.5744
   25CHL1   H17 1801   5.561   2.885   9.537 -0.1942 -0.6877 -1.7608
   25CHL1   C13 1802   5.387   2.895   9.674  0.8896  0.5910  0.2955
   25CHL1   C18 1803   5.248   2.961   9.661  0.1583 -1.0285 -0.2515
   25CHL1  H18A 1804   5.197   2.928   9.568  1.1636 -1.9822 -0.4755
   25CHL1  H18B 1805   5.178   2.946   9.745 -0.0490  2.8549  0.3619
   25CHL1  H18C 1806   5.260   3.070   9.674  1.8635 -0.7659 -3.4199
   25CHL1   C12 1807   5.388   2.738   9.678  0.8245  0.5364  0.0376
   25CHL1  H12A 1808   5.342   2.695   9.586 -0.1537  0.1399  0.7055
   25CHL1  H12B 1809   5.488   2.690   9.676  0.5384 -0.0484 -0.7128
   25CHL1   C11 1810   5.307   2.688   9.804  0.0133  0.5897  0.1114
   25CHL1  H11A 1811   5.206   2.730   9.788 -0.2777 -0.7142 -1.5466
   25CHL1  H11B 1812   5.312   2.577   9.797 -1.4762  0.4146  1.4989
   25CHL1    C9 1813   5.368   2.752   9.935  0.0293  0.0837 -0.5901
   25CHL1    H9 1814   5.470   2.709   9.938  0.2642  0.5534 -1.8999
   25CHL1   C10 1815   5.297   2.713  10.066 -0.4805 -0.3804 -0.1067
   25CHL1   C19 1816   5.147   2.739  10.053  0.3026  0.6724  1.0027
   25CHL1  H19A 1817   5.095   2.718  10.149  0.4727 -2.5298  0.4375
   25CHL1  H19B 1818   5.119   2.842  10.020 -2.0180  0.1991  1.3989
   25CHL1  H19C 1819   5.116   2.660   9.981  0.8640  0.9149  0.4899
   25CHL1    C1 1820   5.317   2.557  10.097  1.1892 -0.5201 -0.0739
   25CHL1   H1A 1821   5.272   2.498  10.014  1.1230 -2.7755  1.5063
   25CHL1   H1B 1822   5.421   2.520  10.089  1.6958  0.6510  1.1114
   25CHL1    C2 1823   5.266   2.516  10.241 -0.1124  0.5467  0.5570
   25CHL1   H2A 1824   5.285   2.408  10.259  0.8098  0.4815 -0.7658
   25CHL1   H2B 1825   5.158   2.540  10.256 -1.2812 -2.4887 -2.3542
   25CHL1   C20 1826   5.400   2.972   9.417 -0.3466  0.4247  0.7553
   25CHL1   H20 1827   5.321   3.047   9.437  0.2104  1.5402 -1.1051
   25CHL1   C21 1828   5.328   2.847   9.355  0.2962 -0.4388  0.0066
   25CHL1  H21A 1829   5.403   2.765   9.350 -0.0828 -0.7562 -0.5008
   25CHL1  H21B 1830   5.296   2.888   9.257  0.4528 -1.6708 -0.5662
   25CHL1  H21C 1831   5.237   2.821   9.414 -1.5568  3.1153 -1.1448
   25CHL1   C22 1832   5.497   3.049   9.319  0.0648 -0.1905  0.6065
   25CHL1  H22A 1833   5.439   3.066   9.225 -0.5028  0.5033  1.0793
   25CHL1  H22B 1834   5.514   3.152   9.358  0.5234  0.3353 -0.9289
   25CHL1   C23 1835   5.628   2.974   9.288  0.4582 -0.5725  0.1620
   25CHL1  H23A 1836   5.671   2.947   9.386 -0.6351 -1.1184  0.4971
   25CHL1  H23B 1837   5.588   2.876   9.254 -1.7757 -0.0737  1.2468
   25CHL1   C24 1838   5.734   3.053   9.206 -0.1548 -0.5655 -0.5594
   25CHL1  H24A 1839   5.784   3.132   9.266  1.6875 -2.0382 -0.1193
   25CHL1  H24B 1840   5.808   2.978   9.171 -0.0426 -0.8122  0.2034
   25CHL1   C25 1841   5.680   3.126   9.080 -0.7797  0.2559  0.1207
   25CHL1   H25 1842   5.607   3.204   9.110 -0.7602  1.3230 -2.4500
   25CHL1   C26 1843   5.789   3.219   9.021 -1.0671  0.0933  0.0734
   25CHL1  H26A 1844   5.824   3.301   9.088 -0.0345 -0.3941  0.1427
   25CHL1  H26B 1845   5.881   3.165   8.991 -0.5269  0.7026  0.5937
   25CHL1  H26C 1846   5.758   3.279   8.933 -0.2326  0.1290 -0.2078
   25CHL1   C27 1847   5.633   3.033   8.965 -0.0253  0.2526 -0.2674
   25CHL1  H27A 1848   5.564   2.966   9.020 -0.1379  1.3601  0.9606
   25CHL1  H27B 1849   5.576   3.072   8.877  0.8848  1.1135 -0.4852
   25CHL1  H27C 1850   5.713   2.960   8.939  0.5380  0.8201 -0.1262
   26CHL1    C3 1851   6.282   5.948  10.062 -0.3799  0.0171  0.4295
   26CHL1    H3 1852   6.337   6.018   9.994 -0.2272 -0.5669 -0.0533
   26CHL1    O3 1853   6.267   6.012  10.189  0.7938  0.5941  0.5570
   26CHL1   H3' 1854   6.353   6.051  10.209  1.4790 -0.9846  0.7589
   26CHL1    C4 1855   6.149   5.910  10.012  0.1590 -0.6559  0.3771
   26CHL1   H4A 1856   6.093   5.839  10.078  0.9228 -2.6966 -1.1181
   26CHL1   H4B 1857   6.075   5.991  10.026  0.9547  0.5509 -2.1445
   26CHL1    C5 1858   6.157   5.864   9.869 -0.1676  0.8222 -0.0086
   26CHL1    C6 1859   6.105   5.927   9.767  0.0459 -0.7426  0.7407
   26CHL1    H6 1860   6.055   6.023   9.789  3.3140  2.5935 -4.9652
   26CHL1    C7 1861   6.121   5.883   9.622 -0.0165 -0.2327 -0.8010
   26CHL1   H7A 1862   6.029   5.903   9.564  0.2089  1.1459 -0.6788
   26CHL1   H7B 1863   6.196   5.948   9.573  1.8181 -2.6469 -1.2976
   26CHL1    C8 1864   6.172   5.738   9.608 -0.0963 -0.7236 -0.5842
   26CHL1    H8 1865   6.087   5.671   9.631 -0.0087 -0.5870  0.1385
   26CHL1   C14 1866   6.227   5.718   9.465  0.2761 -0.0128 -0.9685
   26CHL1   H14 1867   6.313   5.787   9.456 -0.2105  0.9478  1.5072
   26CHL1   C15 1868   6.125   5.735   9.352 -0.6161 -0.1662  0.2089
   26CHL1  H15A 1869   6.024   5.699   9.383  0.2554 -1.4519  1.6624
   26CHL1  H15B 1870   6.115   5.833   9.301 -0.6324 -1.2371 -1.8908
   26CHL1   C16 1871   6.187   5.647   9.242 -0.2995  1.0950  0.0098
   26CHL1  H16A 1872   6.107   5.577   9.210  1.0803  0.5147 -2.2859
   26CHL1  H16B 1873   6.226   5.699   9.151 -2.0771  2.1203 -0.1906
   26CHL1   C17 1874   6.314   5.578   9.295  0.4017  0.6411 -0.3540
   26CHL1   H17 1875   6.403   5.644   9.285 -0.0393  1.2224 -0.4450
   26CHL1   C13 1876   6.289   5.571   9.448  0.4317  0.1233  0.6181
   26CHL1   C18 1877   6.175   5.459   9.484 -0.8704 -0.6004  0.6969
   26CHL1  H18A 1878   6.146   5.461   9.591 -0.5270  1.9762  0.7681
   26CHL1  H18B 1879   6.084   5.453   9.421 -0.4819 -0.2093  0.0885
   26CHL1  H18C 1880   6.220   5.362   9.453 -1.2671  0.0003 -1.8465
   26CHL1   C12 1881   6.417   5.567   9.541 -0.4078 -0.1597 -0.3599
   26CHL1  H12A 1882   6.457   5.465   9.521  2.8723  1.4067 -2.3399
   26CHL1  H12B 1883   6.500   5.633   9.509  1.1717 -2.2338 -0.6320
   26CHL1   C11 1884   6.368   5.578   9.689  0.0414 -0.7861 -0.0421
   26CHL1  H11A 1885   6.311   5.483   9.704 -1.5529 -0.0427 -1.3246
   26CHL1  H11B 1886   6.451   5.581   9.763 -0.7207 -1.1089  0.8396
   26CHL1    C9 1887   6.284   5.713   9.710  0.2841  0.6177 -0.4737
   26CHL1    H9 1888   6.357   5.792   9.681  0.0764  2.5367  3.8139
   26CHL1   C10 1889   6.245   5.745   9.855 -0.0203  0.2760  0.0045
   26CHL1   C19 1890   6.178   5.616   9.908  0.8735 -0.3565 -0.4752
   26CHL1  H19A 1891   6.144   5.621  10.013  1.2251  0.5767 -0.3976
   26CHL1  H19B 1892   6.096   5.589   9.838  0.9678 -0.7052 -0.4490
   26CHL1  H19C 1893   6.249   5.531   9.908 -1.6409 -2.5385 -0.6459
   26CHL1    C1 1894   6.379   5.761   9.935  0.1834 -0.2533 -0.5451
   26CHL1   H1A 1895   6.443   5.670   9.939 -1.7747 -1.8630 -3.3357
   26CHL1   H1B 1896   6.431   5.834   9.870  2.9196 -0.0571  1.7810
   26CHL1    C2 1897   6.361   5.820  10.078 -0.3811  0.2482 -0.3222
   26CHL1   H2A 1898   6.457   5.827  10.134 -0.9549 -1.3650  0.9042
   26CHL1   H2B 1899   6.291   5.749  10.127  0.1598 -1.7314 -2.3102
   26CHL1   C20 1900   6.337   5.451   9.219 -0.1733 -0.2850  0.4733
   26CHL1   H20 1901   6.254   5.380   9.236 -0.3811 -0.3113 -0.6265
   26CHL1   C21 1902   6.464   5.384   9.277 -0.1043  0.8169 -0.2488
   26CHL1  H21A 1903   6.514   5.321   9.201  1.7894 -0.2600  1.8312
   26CHL1  H21B 1904   6.443   5.321   9.366 -0.2674  1.9381  0.5240
   26CHL1  H21C 1905   6.542   5.451   9.317  0.4146 -2.3015  4.3253
   26CHL1   C22 1906   6.354   5.467   9.070 -0.5655 -0.0693 -0.1993
   26CHL1  H22A 1907   6.284   5.546   9.035 -1.5227 -0.5922  0.5107
   26CHL1  H22B 1908   6.459   5.495   9.045 -0.1777 -0.6905  0.6991
   26CHL1   C23 1909   6.314   5.340   8.989  0.2975 -0.2974  0.0756
   26CHL1  H23A 1910   6.382   5.254   9.008 -0.4450 -1.0493 -0.6229
   26CHL1  H23B 1911   6.208   5.311   9.009  1.2276 -3.1850  1.0666
   26CHL1   C24 1912   6.343   5.346   8.832  0.0147  0.2306  0.3159
   26CHL1  H24A 1913   6.283   5.429   8.789 -2.3879 -1.4705  0.3263
   26CHL1  H24B 1914   6.446   5.385   8.815 -0.5604  1.2637 -0.8749
   26CHL1   C25 1915   6.313   5.215   8.744  0.0896 -0.1108 -0.1907
   26CHL1   H25 1916   6.373   5.135   8.792  1.0815  0.5145 -0.3544
   26CHL1   C26 1917   6.172   5.165   8.741  0.6143  0.1626  0.0786
   26CHL1  H26A 1918   6.127   5.144   8.841  2.1532  4.0211  1.7038
   26CHL1  H26B 1919   6.095   5.243   8.720 -1.4716 -2.5004 -2.5691
   26CHL1  H26C 1920   6.146   5.076   8.680 -2.3014  0.6475  0.5130
   26CHL1   C27 1921   6.381   5.231   8.610  0.4047 -0.1990  0.5780
   26CHL1  H27A 1922   6.373   5.337   8.579 -0.2660  0.0227  1.4911
   26CHL1  H27B 1923   6.491   5.216   8.616  0.7005  1.1825 -1.1357
   26CHL1  H27C 1924   6.324   5.171   8.537 -1.0910  0.3194  1.3094
   27CHL1    C3 1925   5.979   2.623  10.326  0.6684 -0.4508  0.5193
   27CHL1    H3 1926   5.969   2.731  10.352  0.1761 -0.5612  0.8064
   27CHL1    O3 1927   5.962   2.539  10.436 -0.1396  0.1750  0.4509
   27CHL1   H3' 1928   6.045   2.491  10.440  0.2679  0.8792  0.5994
   27CHL1    C4 1929   5.871   2.597  10.225 -0.6852  0.1820  0.2332
   27CHL1   H4A 1930   5.860   2.488  10.206  0.8536  0.2815 -1.3269
   27CHL1   H4B 1931   5.770   2.621  10.263 -0.4308  0.0385  1.0005
   27CHL1    C5 1932   5.892   2.661  10.085 -0.7119 -0.0592  0.3542
   27CHL1    C6 1933   5.800   2.743  10.030  0.5998  0.1222 -0.0927
   27CHL1    H6 1934   5.705   2.767  10.079 -0.2583 -1.0770 -1.1579
   27CHL1    C7 1935   5.821   2.795   9.892 -0.1837 -0.2085  0.1979
   27CHL1   H7A 1936   5.732   2.764   9.834 -0.0754  3.6294 -2.2135
   27CHL1   H7B 1937   5.829   2.906   9.890 -1.6518 -0.0727  1.3107
   27CHL1    C8 1938   5.936   2.728   9.820 -0.2377  0.3468 -0.9639
   27CHL1    H8 1939   5.900   2.625   9.798 -0.6205  0.2414  0.1599
   27CHL1   C14 1940   5.970   2.797   9.689  0.2278 -0.7112 -0.1531
   27CHL1   H14 1941   6.012   2.890   9.732  0.7141 -1.2563  0.5505
   27CHL1   C15 1942   5.857   2.844   9.594 -0.3082 -0.0753 -0.1275
   27CHL1  H15A 1943   5.783   2.763   9.575  0.4744 -1.3682  2.1778
   27CHL1  H15B 1944   5.804   2.933   9.633 -0.5662 -0.1768 -0.2439
   27CHL1   C16 1945   5.931   2.876   9.463  0.4597  0.5732 -0.3106
   27CHL1  H16A 1946   5.894   2.817   9.376  3.6732 -2.7098  0.4012
   27CHL1  H16B 1947   5.940   2.983   9.434  0.6238  0.9687  1.1532
   27CHL1   C17 1948   6.073   2.828   9.480 -0.5114  0.0204 -0.2025
   27CHL1   H17 1949   6.134   2.917   9.508 -0.2256 -0.4168  0.5987
   27CHL1   C13 1950   6.072   2.730   9.601 -0.5862 -0.3338 -0.2538
   27CHL1   C18 1951   6.017   2.585   9.566  0.2065 -0.9418  0.8763
   27CHL1  H18A 1952   5.927   2.593   9.502  0.4344  1.7615  0.8480
   27CHL1  H18B 1953   6.098   2.534   9.511 -1.5305 -0.5245 -2.1660
   27CHL1  H18C 1954   5.989   2.524   9.655 -1.4140 -1.9118 -0.2785
   27CHL1   C12 1955   6.204   2.730   9.684  0.1968 -0.6177 -0.2220
   27CHL1  H12A 1956   6.283   2.671   9.633  0.6000  0.2968 -0.6603
   27CHL1  H12B 1957   6.236   2.834   9.704 -1.7600  0.1922 -1.1907
   27CHL1   C11 1958   6.177   2.666   9.823 -0.0096  0.5480  0.0563
   27CHL1  H11A 1959   6.170   2.557   9.805 -0.2779  0.7992 -1.3910
   27CHL1  H11B 1960   6.268   2.679   9.885  0.6956 -1.2465 -0.5696
   27CHL1    C9 1961   6.058   2.722   9.903 -0.1649 -0.2148 -0.0271
   27CHL1    H9 1962   6.086   2.826   9.929  0.7720  0.0099 -1.8332
   27CHL1   C10 1963   6.035   2.639  10.030 -0.5921 -0.2810 -0.8634
   27CHL1   C19 1964   6.042   2.483  10.010 -0.8986 -0.3845 -0.6809
   27CHL1  H19A 1965   6.141   2.448   9.974  1.1951  3.8318  0.6494
   27CHL1  H19B 1966   6.022   2.422  10.101  2.1411 -0.6906 -0.1782
   27CHL1  H19C 1967   5.958   2.455   9.942 -0.3548  0.1755 -1.5919
   27CHL1    C1 1968   6.137   2.678  10.135  0.1308  0.2312 -0.4313
   27CHL1   H1A 1969   6.236   2.647  10.097 -0.0372 -0.0174 -0.6659
   27CHL1   H1B 1970   6.144   2.789  10.141 -2.0133  0.4188 -0.8548
   27CHL1    C2 1971   6.121   2.603  10.276 -0.0964 -0.5014 -0.1205
   27CHL1   H2A 1972   6.194   2.649  10.346  1.0910 -0.9121 -1.0881
   27CHL1   H2B 1973   6.138   2.493  10.266  1.4543 -0.5690  2.7321
   27CHL1   C20 1974   6.123   2.771   9.349 -0.1712 -0.4434  0.2858
   27CHL1   H20 1975   6.060   2.686   9.317 -0.8638  1.0909 -2.5869
   27CHL1   C21 1976   6.274   2.723   9.354  0.0506 -0.6402  0.2334
   27CHL1  H21A 1977   6.281   2.643   9.430  1.2450 -1.5301 -0.7831
   27CHL1  H21B 1978   6.331   2.812   9.388 -0.9160  0.4648 -0.9966
   27CHL1  H21C 1979   6.311   2.698   9.252 -1.3605 -0.1793 -0.3952
   27CHL1   C22 1980   6.113   2.880   9.230 -0.4936 -0.3056  0.5279
   27CHL1  H22A 1981   6.028   2.951   9.231  0.2378  0.6018 -0.5036
   27CHL1  H22B 1982   6.204   2.944   9.237  1.1465 -2.3250 -1.3774
   27CHL1   C23 1983   6.114   2.811   9.096 -0.2900  1.3933  0.2402
   27CHL1  H23A 1984   6.211   2.758   9.084 -0.2161  1.1015  2.0898
   27CHL1  H23B 1985   6.038   2.730   9.088  2.2448 -1.0597  0.2919
   27CHL1   C24 1986   6.095   2.908   8.985 -0.4665 -0.2370 -0.6023
   27CHL1  H24A 1987   6.009   2.978   8.994  0.0913  0.7961 -2.9266
   27CHL1  H24B 1988   6.184   2.975   8.978 -1.2819  0.8921 -0.3147
   27CHL1   C25 1989   6.087   2.845   8.843 -0.2075  0.3970 -0.9201
   27CHL1   H25 1990   6.158   2.759   8.837  2.3694  2.5576 -2.0285
   27CHL1   C26 1991   5.950   2.799   8.808 -0.1249  0.4278 -0.0118
   27CHL1  H26A 1992   5.923   2.809   8.700 -0.4541  0.6559  0.0904
   27CHL1  H26B 1993   5.947   2.689   8.827 -1.4231  0.5103  0.2949
   27CHL1  H26C 1994   5.873   2.855   8.865 -0.8157  0.1458 -0.6577
   27CHL1   C27 1995   6.135   2.946   8.737 -0.1156  0.0006 -0.6434
   27CHL1  H27A 1996   6.059   3.025   8.719 -0.8192 -0.4639  0.2432
   27CHL1  H27B 1997   6.234   2.994   8.756  0.4948 -1.8160  0.9419
   27CHL1  H27C 1998   6.134   2.879   8.648 -0.2618  0.3193 -0.8782
   28CHL1    C3 1999   5.171   1.253  10.026  0.6713  0.7941  0.3171
   28CHL1    H3 2000   5.061   1.269  10.032  0.6640  1.2539 -0.8667
   28CHL1    O3 2001   5.212   1.256  10.154 -0.3581 -1.0163 -0.2437
   28CHL1   H3' 2002   5.308   1.259  10.156 -0.4087  0.7170  0.6467
   28CHL1    C4 2003   5.188   1.111   9.967 -0.7803  0.0655 -0.9353
   28CHL1   H4A 2004   5.291   1.071   9.976 -1.4491 -1.2461  1.4160
   28CHL1   H4B 2005   5.140   1.040  10.038 -1.2383 -0.4976 -1.8107
   28CHL1    C5 2006   5.142   1.109   9.824 -0.5112  0.3716  0.4898
   28CHL1    C6 2007   5.057   1.018   9.783 -0.0315  0.3789 -0.0797
   28CHL1    H6 2008   5.008   0.958   9.861 -0.3059  1.5275  0.6403
   28CHL1    C7 2009   5.016   1.003   9.635 -0.0360 -0.9517 -0.5875
   28CHL1   H7A 2010   5.015   0.900   9.594  2.6254 -0.9829 -0.6719
   28CHL1   H7B 2011   4.910   1.035   9.626 -0.8106 -2.0686  3.7071
   28CHL1    C8 2012   5.100   1.085   9.536  0.7413  0.0437 -0.1036
   28CHL1    H8 2013   5.195   1.026   9.539 -0.0165 -1.1494  0.8627
   28CHL1   C14 2014   5.047   1.099   9.393  0.7985  0.9065 -0.0991
   28CHL1   H14 2015   4.945   1.135   9.420 -0.0496 -1.6555  0.2457
   28CHL1   C15 2016   5.033   0.968   9.316 -0.2144  0.1129 -0.5239
   28CHL1  H15A 2017   5.124   0.904   9.320 -0.5528 -0.2947  0.8448
   28CHL1  H15B 2018   4.947   0.909   9.355 -1.2538 -0.5459 -3.6413
   28CHL1   C16 2019   5.013   1.006   9.169  0.1493  0.4915  0.9693
   28CHL1  H16A 2020   5.071   0.942   9.099  1.8945  1.8752  1.1121
   28CHL1  H16B 2021   4.908   0.996   9.135  0.3793  0.0901  0.3653
   28CHL1   C17 2022   5.054   1.158   9.160  0.4668 -0.0036  0.4673
   28CHL1   H17 2023   4.958   1.215   9.166  0.5406  0.3616 -1.4525
   28CHL1   C13 2024   5.126   1.182   9.297 -0.1502 -0.1055  0.2590
   28CHL1   C18 2025   5.275   1.128   9.279  0.2507 -0.3012  0.0803
   28CHL1  H18A 2026   5.340   1.179   9.204 -2.1671  0.3439 -1.6554
   28CHL1  H18B 2027   5.323   1.129   9.379  1.0457 -0.4981 -0.3021
   28CHL1  H18C 2028   5.293   1.024   9.245  2.2137  0.3460 -0.9544
   28CHL1   C12 2029   5.123   1.328   9.356 -0.0804 -0.2368 -0.5018
   28CHL1  H12A 2030   5.178   1.401   9.292  1.3696  1.0920  2.2021
   28CHL1  H12B 2031   5.015   1.351   9.364 -0.4044 -2.2353  1.4976
   28CHL1   C11 2032   5.172   1.330   9.498 -0.1260  0.4534 -0.2869
   28CHL1  H11A 2033   5.282   1.317   9.491 -0.4938 -3.4340  0.2215
   28CHL1  H11B 2034   5.149   1.430   9.542  3.0974 -0.2115  3.1408
   28CHL1    C9 2035   5.121   1.223   9.598 -0.2944 -0.8557  0.2526
   28CHL1    H9 2036   5.018   1.261   9.613  0.8383  2.8583 -0.8159
   28CHL1   C10 2037   5.200   1.213   9.729  0.8552 -0.0693 -0.1878
   28CHL1   C19 2038   5.354   1.189   9.701  0.1542 -0.8102 -0.3962
   28CHL1  H19A 2039   5.370   1.093   9.649 -0.7080 -2.6979  2.6731
   28CHL1  H19B 2040   5.388   1.275   9.639 -2.7099 -1.4582 -2.9983
   28CHL1  H19C 2041   5.419   1.197   9.791 -1.4479  1.4720  0.6364
   28CHL1    C1 2042   5.192   1.348   9.799 -0.2979  0.8492  0.6828
   28CHL1   H1A 2043   5.253   1.417   9.737 -0.9610  0.9130  0.0975
   28CHL1   H1B 2044   5.086   1.382   9.807  0.0060  1.7592  0.9807
   28CHL1    C2 2045   5.245   1.353   9.941  0.0922  0.0787  0.0155
   28CHL1   H2A 2046   5.232   1.457   9.978 -1.3839 -0.4489  1.0226
   28CHL1   H2B 2047   5.354   1.335   9.951  0.1202  0.4018  0.3389
   28CHL1   C20 2048   5.120   1.189   9.029  0.1866  0.9896  0.1891
   28CHL1   H20 2049   5.209   1.125   9.010 -0.2355  0.7813 -1.1108
   28CHL1   C21 2050   5.172   1.329   9.023  0.1925  0.2781  0.2077
   28CHL1  H21A 2051   5.100   1.413   9.033  1.9095  1.7428  0.6038
   28CHL1  H21B 2052   5.217   1.342   8.922 -1.5477 -2.3626 -0.9824
   28CHL1  H21C 2053   5.245   1.346   9.105  0.6228 -1.9481  0.3092
   28CHL1   C22 2054   5.013   1.164   8.919 -0.5951 -0.3143 -0.2667
   28CHL1  H22A 2055   4.977   1.059   8.928 -0.0317 -0.2955  2.4200
   28CHL1  H22B 2056   4.928   1.231   8.942 -1.0112 -0.4189 -1.4433
   28CHL1   C23 2057   5.062   1.188   8.774  0.7773  0.1423 -0.8236
   28CHL1  H23A 2058   5.055   1.297   8.751  0.9002  0.0388 -1.3442
   28CHL1  H23B 2059   5.167   1.156   8.766  1.2308  1.5108 -0.6018
   28CHL1   C24 2060   4.990   1.106   8.670  0.1191  0.4434  0.1460
   28CHL1  H24A 2061   4.988   0.998   8.695  1.6278  0.4492  0.3309
   28CHL1  H24B 2062   4.884   1.138   8.667 -0.2437 -0.4855  2.2095
   28CHL1   C25 2063   5.054   1.124   8.525 -0.7579  0.0981  0.1881
   28CHL1   H25 2064   5.081   1.229   8.501 -1.0731 -0.0549 -0.8454
   28CHL1   C26 2065   5.176   1.040   8.506  0.1217 -0.2288 -0.0486
   28CHL1  H26A 2066   5.229   1.049   8.603 -0.3061 -2.4246  0.4138
   28CHL1  H26B 2067   5.149   0.933   8.497  0.2820 -0.3697  1.0488
   28CHL1  H26C 2068   5.230   1.089   8.422 -0.7225 -1.4770 -1.3447
   28CHL1   C27 2069   4.947   1.063   8.426  0.3702  0.1411  0.6504
   28CHL1  H27A 2070   4.940   0.953   8.440 -0.7981  0.1727  0.3263
   28CHL1  H27B 2071   4.850   1.107   8.456  0.7015  2.1009 -0.9737
   28CHL1  H27C 2072   4.976   1.090   8.322 -1.3508  1.1825  0.4250
   29CHL1    C3 2073   6.687   5.779   6.768  0.1792  0.0073  0.3932
   29CHL1    H3 2074   6.646   5.684   6.727  1.1686 -0.0928 -0.3765
   29CHL1    O3 2075   6.744   5.859   6.664 -0.5283 -0.5871  0.6534
   29CHL1   H3' 2076   6.683   5.885   6.594  0.4357 -1.6840 -0.6029
   29CHL1    C4 2077   6.568   5.848   6.841 -0.2536 -0.1349  0.3536
   29CHL1   H4A 2078   6.618   5.943   6.870  0.3033 -0.9582  2.1577
   29CHL1   H4B 2079   6.491   5.860   6.762  1.4736 -0.5027 -1.4319
   29CHL1    C5 2080   6.509   5.776   6.970 -0.5254  0.0096  0.5083
   29CHL1    C6 2081   6.379   5.748   6.983  0.0608  0.3208  0.6420
   29CHL1    H6 2082   6.304   5.778   6.909 -1.9300 -0.5671  2.2671
   29CHL1    C7 2083   6.319   5.688   7.109 -0.2211  0.0441  0.3130
   29CHL1   H7A 2084   6.224   5.741   7.132  0.2802  0.1165  2.3149
   29CHL1   H7B 2085   6.292   5.583   7.083  0.5675  0.1519 -0.9584
   29CHL1    C8 2086   6.414   5.685   7.230 -0.4533 -0.1364  0.1740
   29CHL1    H8 2087   6.412   5.787   7.276  0.7221  0.1524 -0.4003
   29CHL1   C14 2088   6.367   5.593   7.340  0.5279 -0.6490  0.6981
   29CHL1   H14 2089   6.362   5.493   7.291 -0.0861  0.9279 -2.5807
   29CHL1   C15 2090   6.220   5.603   7.379 -0.1521  0.9596 -0.7879
   29CHL1  H15A 2091   6.206   5.712   7.363 -0.0929  1.0787 -0.0797
   29CHL1  H15B 2092   6.163   5.548   7.302  0.8107  1.6136 -1.9769
   29CHL1   C16 2093   6.219   5.556   7.530 -0.1681  0.4627  0.3507
   29CHL1  H16A 2094   6.209   5.647   7.592  0.9649  1.4510 -0.9082
   29CHL1  H16B 2095   6.143   5.477   7.550  2.4107 -1.8023  1.5322
   29CHL1   C17 2096   6.365   5.494   7.543 -0.6867 -0.4386  0.5684
   29CHL1   H17 2097   6.353   5.395   7.493 -0.7804 -0.1037 -0.0739
   29CHL1   C13 2098   6.454   5.589   7.457  0.2113  0.1144 -0.2838
   29CHL1   C18 2099   6.475   5.726   7.535 -0.1783 -0.2344  0.1637
   29CHL1  H18A 2100   6.513   5.808   7.471 -0.6357 -0.9228 -1.0023
   29CHL1  H18B 2101   6.380   5.762   7.579 -0.6240  0.3076 -1.2140
   29CHL1  H18C 2102   6.546   5.717   7.620  0.8501 -0.7524 -0.7321
   29CHL1   C12 2103   6.588   5.521   7.408  0.4981  0.2193  0.0302
   29CHL1  H12A 2104   6.650   5.503   7.498 -1.4675  0.3865  1.4687
   29CHL1  H12B 2105   6.577   5.416   7.372 -3.9896  0.0125  1.6497
   29CHL1   C11 2106   6.649   5.612   7.306  1.1371  0.0803  0.5606
   29CHL1  H11A 2107   6.667   5.710   7.355 -0.4853  0.5695  0.1924
   29CHL1  H11B 2108   6.750   5.577   7.275  0.0801 -0.9866 -1.7606
   29CHL1    C9 2109   6.555   5.639   7.179  0.5537  0.0332 -0.1784
   29CHL1    H9 2110   6.537   5.542   7.126  0.5898 -0.2687  0.3593
   29CHL1   C10 2111   6.612   5.739   7.076  0.2093 -0.5321 -0.1836
   29CHL1   C19 2112   6.673   5.864   7.143  0.4443 -0.4707  0.4095
   29CHL1  H19A 2113   6.712   5.922   7.056  0.1425 -1.6341 -0.5216
   29CHL1  H19B 2114   6.600   5.926   7.199  1.3166  0.6665  0.3045
   29CHL1  H19C 2115   6.760   5.835   7.206  0.9605  0.5404  0.1833
   29CHL1    C1 2116   6.732   5.672   7.001 -0.8560 -0.3936  0.2313
   29CHL1   H1A 2117   6.814   5.658   7.074  0.2170  1.4087 -0.5777
   29CHL1   H1B 2118   6.701   5.574   6.959  1.1667 -0.8078 -0.3701
   29CHL1    C2 2119   6.791   5.755   6.879 -0.0266  0.5493 -0.3004
   29CHL1   H2A 2120   6.873   5.692   6.837 -0.6509 -0.4047 -0.1219
   29CHL1   H2B 2121   6.831   5.846   6.929 -1.7080  0.8270  0.5660
   29CHL1   C20 2122   6.419   5.463   7.684  0.6882 -0.4989  1.0829
   29CHL1   H20 2123   6.509   5.523   7.708  1.8426 -0.9055 -2.0469
   29CHL1   C21 2124   6.469   5.314   7.678  0.0673 -0.1285  0.0956
   29CHL1  H21A 2125   6.527   5.300   7.772 -0.7946  1.9056  0.9612
   29CHL1  H21B 2126   6.545   5.299   7.599  0.2091 -0.9244  0.3805
   29CHL1  H21C 2127   6.383   5.243   7.670 -1.6818  1.8638  0.5563
   29CHL1   C22 2128   6.315   5.484   7.794 -0.5445  0.7494 -0.3517
   29CHL1  H22A 2129   6.313   5.593   7.815 -1.1153  0.5796  0.5063
   29CHL1  H22B 2130   6.209   5.459   7.773  0.4055 -2.8226 -1.3602
   29CHL1   C23 2131   6.361   5.421   7.927 -0.3195 -0.0422 -0.0298
   29CHL1  H23A 2132   6.355   5.311   7.933 -0.3716  0.0723  2.2489
   29CHL1  H23B 2133   6.464   5.458   7.949 -1.5434  2.7040  1.2588
   29CHL1   C24 2134   6.278   5.488   8.035  0.1171 -0.1260  0.2092
   29CHL1  H24A 2135   6.310   5.595   8.025  0.9551 -0.3407  0.5357
   29CHL1  H24B 2136   6.177   5.472   7.993 -0.7868  0.0636  2.2635
   29CHL1   C25 2137   6.292   5.424   8.173  0.1741  0.0535 -1.0826
   29CHL1   H25 2138   6.241   5.325   8.167 -1.0376  0.7247 -1.9697
   29CHL1   C26 2139   6.443   5.383   8.208  0.7758  0.0156 -0.5632
   29CHL1  H26A 2140   6.502   5.477   8.210 -0.7285  1.0063 -1.1722
   29CHL1  H26B 2141   6.457   5.340   8.309 -0.3798 -0.5041 -0.6160
   29CHL1  H26C 2142   6.485   5.309   8.137 -0.0459 -1.2367  0.2312
   29CHL1   C27 2143   6.233   5.515   8.286 -0.3432  0.2124 -0.3343
   29CHL1  H27A 2144   6.126   5.544   8.275 -0.9892 -1.3588  1.5395
   29CHL1  H27B 2145   6.255   5.475   8.387 -0.1865  3.0414  0.8120
   29CHL1  H27C 2146   6.276   5.618   8.286  0.0318  0.1750  4.6156
   30CHL1    C3 2147   4.507   4.568   7.411  0.2008 -0.0968  0.4076
   30CHL1    H3 2148   4.545   4.464   7.403  1.3596  0.2930  0.7456
   30CHL1    O3 2149   4.507   4.644   7.294 -0.2762 -0.4335 -0.0356
   30CHL1   H3' 2150   4.419   4.635   7.258 -0.3347  0.8658 -0.2285
   30CHL1    C4 2151   4.367   4.567   7.478  0.0310 -0.0482  0.0532
   30CHL1   H4A 2152   4.332   4.672   7.476 -2.0881 -0.6640  2.0005
   30CHL1   H4B 2153   4.291   4.520   7.411  0.2738 -0.4756  0.0765
   30CHL1    C5 2154   4.357   4.523   7.617  0.1373  0.8366 -0.2974
   30CHL1    C6 2155   4.275   4.422   7.652  0.3083 -0.0925  0.4221
   30CHL1    H6 2156   4.211   4.379   7.574 -0.6922 -1.0752  1.7647
   30CHL1    C7 2157   4.252   4.373   7.794 -1.2899 -0.4695 -0.4039
   30CHL1   H7A 2158   4.144   4.372   7.821 -1.3206 -0.6724 -0.5258
   30CHL1   H7B 2159   4.292   4.270   7.808  0.7287  0.5189  1.4666
   30CHL1    C8 2160   4.331   4.453   7.903 -0.0273 -0.2695 -0.3127
   30CHL1    H8 2161   4.271   4.545   7.917 -1.5765 -0.8750 -2.6551
   30CHL1   C14 2162   4.343   4.379   8.034 -0.2502  0.1595 -0.1028
   30CHL1   H14 2163   4.403   4.290   8.005 -0.7409  0.4475 -2.1084
   30CHL1   C15 2164   4.216   4.339   8.098 -0.5158  0.2319  0.5797
   30CHL1  H15A 2165   4.139   4.418   8.084  1.9991  2.8304  0.8392
   30CHL1  H15B 2166   4.175   4.245   8.054  0.6619 -0.0891  0.1599
   30CHL1   C16 2167   4.251   4.301   8.247 -0.2495 -0.0573 -0.0806
   30CHL1  H16A 2168   4.176   4.328   8.325 -0.6080 -0.9418 -0.1179
   30CHL1  H16B 2169   4.253   4.190   8.248 -1.5159 -0.0927 -0.9513
   30CHL1   C17 2170   4.389   4.364   8.268  0.1754 -0.3271  0.0079
   30CHL1   H17 2171   4.461   4.282   8.245  1.8558  1.3047 -0.6426
   30CHL1   C13 2172   4.415   4.454   8.147 -0.4818 -0.0248  0.3872
   30CHL1   C18 2173   4.347   4.585   8.179 -0.1888  0.7527  0.6279
   30CHL1  H18A 2174   4.246   4.570   8.225 -0.4223  0.8888  0.1586
   30CHL1  H18B 2175   4.387   4.658   8.253  1.7208 -1.8770  2.2946
   30CHL1  H18C 2176   4.332   4.647   8.088  0.6947 -0.1486 -0.1379
   30CHL1   C12 2177   4.558   4.487   8.104  0.1070  0.4445 -0.4326
   30CHL1  H12A 2178   4.615   4.538   8.185  0.0117  0.3069 -0.2777
   30CHL1  H12B 2179   4.612   4.392   8.085 -0.0683  0.1841  0.3377
   30CHL1   C11 2180   4.564   4.558   7.968  0.4739  0.0753 -0.9740
   30CHL1  H11A 2181   4.541   4.666   7.982 -0.1862 -0.1791 -0.0431
   30CHL1  H11B 2182   4.667   4.557   7.926  1.8349 -0.8751  2.2325
   30CHL1    C9 2183   4.470   4.497   7.851  0.3290  0.2555 -0.7754
   30CHL1    H9 2184   4.530   4.407   7.826  1.6609 -0.2789  3.8071
   30CHL1   C10 2185   4.463   4.577   7.717  0.3048  0.1247 -1.2064
   30CHL1   C19 2186   4.420   4.727   7.741  0.8799  0.1391 -0.5120
   30CHL1  H19A 2187   4.329   4.722   7.803  3.0201  0.3762  2.7653
   30CHL1  H19B 2188   4.495   4.784   7.799 -1.8719  1.5435  1.7380
   30CHL1  H19C 2189   4.397   4.773   7.642 -0.2295 -2.0546 -1.3139
   30CHL1    C1 2190   4.596   4.575   7.645 -0.3505  0.1530  0.5075
   30CHL1   H1A 2191   4.667   4.631   7.710 -0.4442  1.0471 -0.1485
   30CHL1   H1B 2192   4.628   4.469   7.638 -0.0282  0.2855 -0.0776
   30CHL1    C2 2193   4.606   4.633   7.505 -0.0033 -0.6714  0.4671
   30CHL1   H2A 2194   4.706   4.613   7.461  0.4176 -2.7221  2.2303
   30CHL1   H2B 2195   4.590   4.742   7.494 -2.6769 -1.0768 -0.0117
   30CHL1   C20 2196   4.421   4.424   8.407  0.5100 -0.8224  0.5527
   30CHL1   H20 2197   4.355   4.512   8.419  2.9433  1.1447  0.0693
   30CHL1   C21 2198   4.571   4.452   8.426 -0.1686 -0.2104 -0.0758
   30CHL1  H21A 2199   4.585   4.462   8.536 -0.5557 -1.3316  0.0861
   30CHL1  H21B 2200   4.602   4.549   8.382  0.5262 -0.4886 -0.1982
   30CHL1  H21C 2201   4.633   4.370   8.383 -0.6650 -0.6992  0.1371
   30CHL1   C22 2202   4.380   4.326   8.522  0.9537 -0.0271 -0.5775
   30CHL1  H22A 2203   4.396   4.379   8.618 -0.1843  1.2639 -1.0848
   30CHL1  H22B 2204   4.270   4.306   8.527  1.1115 -0.5720  1.0327
   30CHL1   C23 2205   4.452   4.190   8.532 -0.4745 -0.0205  1.0643
   30CHL1  H23A 2206   4.444   4.130   8.440 -0.2203  3.9968 -1.6985
   30CHL1  H23B 2207   4.562   4.209   8.539 -0.4707  0.0886  0.7267
   30CHL1   C24 2208   4.418   4.100   8.652 -0.8208  0.2435  0.6487
   30CHL1  H24A 2209   4.439   4.171   8.734 -0.1451  1.8286 -0.8575
   30CHL1  H24B 2210   4.313   4.064   8.647 -1.6473  2.6295  0.1304
   30CHL1   C25 2211   4.522   3.987   8.674  0.2602 -0.4200 -0.3503
   30CHL1   H25 2212   4.619   4.038   8.690 -0.3937  1.1832 -1.4074
   30CHL1   C26 2213   4.484   3.921   8.810  0.1554  0.3369  0.5374
   30CHL1  H26A 2214   4.382   3.877   8.809  0.4894 -0.4518  0.1790
   30CHL1  H26B 2215   4.554   3.845   8.851 -0.8629 -1.4208 -0.8927
   30CHL1  H26C 2216   4.492   3.999   8.888 -0.2821  1.4075 -0.4763
   30CHL1   C27 2217   4.544   3.880   8.559 -0.2568 -0.0376 -0.0147
   30CHL1  H27A 2218   4.454   3.815   8.569  0.3261 -0.7696  0.4972
   30CHL1  H27B 2219   4.563   3.926   8.460  0.7329  1.8704  1.0478
   30CHL1  H27C 2220   4.636   3.830   8.596 -0.3835 -0.4066 -0.1881
   31CHL1    C3 2221   4.169   6.608   6.648  0.3697 -0.3829 -0.5643
   31CHL1    H3 2222   4.276   6.606   6.619  0.6022 -0.2827  0.2648
   31CHL1    O3 2223   4.100   6.602   6.523  0.3083  0.2960 -0.9611
   31CHL1   H3' 2224   4.150   6.543   6.466 -0.6643 -0.3027 -1.2019
   31CHL1    C4 2225   4.126   6.495   6.740  0.0271  0.2186 -0.0709
   31CHL1   H4A 2226   4.015   6.505   6.743  0.0730  0.4583  1.2685
   31CHL1   H4B 2227   4.153   6.400   6.688 -1.6735 -0.2152 -0.1858
   31CHL1    C5 2228   4.197   6.510   6.876 -0.1667 -0.8811 -0.4892
   31CHL1    C6 2229   4.268   6.410   6.931  0.1007 -0.0494  0.1124
   31CHL1    H6 2230   4.264   6.314   6.877  1.1798  1.8073 -3.3810
   31CHL1    C7 2231   4.335   6.402   7.070 -0.2426 -0.4095 -0.1465
   31CHL1   H7A 2232   4.311   6.304   7.115  1.6040 -0.6477  0.3393
   31CHL1   H7B 2233   4.446   6.410   7.066  0.0244 -2.7196  1.7978
   31CHL1    C8 2234   4.274   6.520   7.161 -0.4455 -0.0723 -0.3565
   31CHL1    H8 2235   4.170   6.489   7.187 -0.5020  1.5677  1.3999
   31CHL1   C14 2236   4.363   6.539   7.289 -0.2263  0.4512 -0.2225
   31CHL1   H14 2237   4.462   6.573   7.253  0.3237  0.9248  1.7315
   31CHL1   C15 2238   4.389   6.419   7.377 -0.0925  0.2502 -0.1589
   31CHL1  H15A 2239   4.301   6.353   7.387 -0.2381 -0.0991 -3.1362
   31CHL1  H15B 2240   4.477   6.361   7.341  1.2416  0.2332  3.0085
   31CHL1   C16 2241   4.430   6.480   7.507 -0.3492 -0.1599  0.6182
   31CHL1  H16A 2242   4.363   6.442   7.587  1.2543  1.8301  2.9820
   31CHL1  H16B 2243   4.536   6.463   7.535 -0.1051 -0.1664 -0.2894
   31CHL1   C17 2244   4.400   6.636   7.498  1.1626 -0.6972  0.8024
   31CHL1   H17 2245   4.497   6.680   7.466  1.0616 -1.3130 -0.3702
   31CHL1   C13 2246   4.312   6.651   7.371 -0.1486 -0.5884  0.1081
   31CHL1   C18 2247   4.162   6.624   7.409  0.2104  0.0700  0.2454
   31CHL1  H18A 2248   4.091   6.603   7.326  2.6453  0.1129 -1.9119
   31CHL1  H18B 2249   4.152   6.535   7.474 -1.4963 -1.6430 -2.2495
   31CHL1  H18C 2250   4.106   6.707   7.457  0.3701  0.5913 -0.4576
   31CHL1   C12 2251   4.338   6.778   7.282 -0.5858  0.0685 -0.2780
   31CHL1  H12A 2252   4.299   6.866   7.336  0.3650 -0.6869  1.6827
   31CHL1  H12B 2253   4.444   6.795   7.253 -0.3960  0.5173  0.6729
   31CHL1   C11 2254   4.245   6.789   7.158  0.2323 -0.2137  0.1494
   31CHL1  H11A 2255   4.141   6.796   7.196  0.4199  0.3378  0.5585
   31CHL1  H11B 2256   4.258   6.875   7.090 -0.6241 -1.2601 -1.3711
   31CHL1    C9 2257   4.272   6.657   7.077 -0.5092 -0.0751  0.2578
   31CHL1    H9 2258   4.372   6.667   7.030 -1.4502  0.4187 -1.6835
   31CHL1   C10 2259   4.182   6.642   6.948  0.5549 -0.6711 -0.4426
   31CHL1   C19 2260   4.043   6.666   7.003 -0.1499  0.2607 -0.0007
   31CHL1  H19A 2261   3.975   6.617   6.930  1.4151  0.1062 -1.3738
   31CHL1  H19B 2262   4.017   6.605   7.092 -0.9069 -1.5104 -1.3966
   31CHL1  H19C 2263   4.025   6.773   7.026  0.5120  0.5925 -1.0340
   31CHL1    C1 2264   4.213   6.752   6.845  0.0603  0.1253  0.1459
   31CHL1   H1A 2265   4.200   6.852   6.894  2.1912  0.1295  0.7919
   31CHL1   H1B 2266   4.323   6.755   6.827  0.2528  0.0991  1.2413
   31CHL1    C2 2267   4.143   6.742   6.709  0.0029 -0.7881 -0.2753
   31CHL1   H2A 2268   4.179   6.828   6.648 -0.3819 -1.2239 -1.1201
   31CHL1   H2B 2269   4.033   6.750   6.723  0.0538  3.6720 -1.6007
   31CHL1   C20 2270   4.355   6.699   7.631  0.0670  0.0988  0.0186
   31CHL1   H20 2271   4.260   6.647   7.656 -0.1205  1.1046  1.4909
   31CHL1   C21 2272   4.331   6.847   7.615 -0.3106 -0.6774 -0.4855
   31CHL1  H21A 2273   4.329   6.910   7.706  1.3523 -3.2515  1.4196
   31CHL1  H21B 2274   4.245   6.879   7.552  0.2116  0.3463 -0.6741
   31CHL1  H21C 2275   4.421   6.888   7.564  0.0868 -2.6159 -1.3955
   31CHL1   C22 2276   4.451   6.669   7.750  0.0841 -0.4638  0.3957
   31CHL1  H22A 2277   4.495   6.567   7.744 -0.2576 -0.6525  1.0039
   31CHL1  H22B 2278   4.536   6.734   7.719  1.1594 -1.9237  0.1994
   31CHL1   C23 2279   4.426   6.699   7.903 -0.2629 -0.0754  0.1819
   31CHL1  H23A 2280   4.424   6.808   7.924 -2.1868  0.4169 -2.3541
   31CHL1  H23B 2281   4.325   6.663   7.935 -0.7043  1.4930  0.6019
   31CHL1   C24 2282   4.535   6.623   7.982  0.0499 -0.3456 -0.0270
   31CHL1  H24A 2283   4.544   6.529   7.924 -1.1490 -0.3980 -0.1397
   31CHL1  H24B 2284   4.628   6.682   7.965 -0.6315  1.5900  2.5701
   31CHL1   C25 2285   4.501   6.608   8.129 -0.5498  0.2652 -0.1561
   31CHL1   H25 2286   4.481   6.707   8.177 -0.4487  1.1865 -1.9996
   31CHL1   C26 2287   4.375   6.516   8.154  0.1511 -0.2673  0.3478
   31CHL1  H26A 2288   4.388   6.416   8.109  1.2717  0.6881 -1.5368
   31CHL1  H26B 2289   4.370   6.504   8.264 -1.7709  1.2765  0.4601
   31CHL1  H26C 2290   4.288   6.563   8.103 -0.3784  0.8386  2.2254
   31CHL1   C27 2291   4.613   6.552   8.209 -0.3079 -0.0465 -0.6382
   31CHL1  H27A 2292   4.636   6.451   8.170  1.5300 -0.8345  2.3402
   31CHL1  H27B 2293   4.587   6.536   8.316 -2.9083 -0.0407 -1.2200
   31CHL1  H27C 2294   4.707   6.610   8.215 -0.2231 -0.3885  2.2636
   32CHL1    C3 2295   5.215   4.697   7.032  0.6528  0.9386  0.7842
   32CHL1    H3 2296   5.310   4.693   7.089  1.1603 -0.9499 -0.1407
   32CHL1    O3 2297   5.234   4.674   6.897 -0.2654  0.0596  0.2982
   32CHL1   H3' 2298   5.155   4.717   6.864  1.0871  1.9248 -0.6082
   32CHL1    C4 2299   5.112   4.596   7.084  0.3614  0.5939  0.4828
   32CHL1   H4A 2300   5.016   4.612   7.030  0.0956  1.1509  1.1056
   32CHL1   H4B 2301   5.148   4.492   7.069 -0.0777  0.3050  1.3986
   32CHL1    C5 2302   5.113   4.628   7.238 -0.0312  0.2219 -0.0191
   32CHL1    C6 2303   5.160   4.537   7.331  0.9198 -0.0187 -0.2676
   32CHL1    H6 2304   5.193   4.436   7.305  0.8984 -0.0392 -0.2158
   32CHL1    C7 2305   5.174   4.560   7.474 -0.0257  0.4949 -0.3670
   32CHL1   H7A 2306   5.164   4.468   7.535  1.4244 -0.1217 -1.0149
   32CHL1   H7B 2307   5.277   4.598   7.495 -0.2942  1.2932 -0.4649
   32CHL1    C8 2308   5.081   4.680   7.521  0.2443  0.3139 -0.3310
   32CHL1    H8 2309   4.980   4.633   7.523 -0.5565  2.0193 -0.2618
   32CHL1   C14 2310   5.114   4.730   7.658 -0.0869 -0.0159 -0.3295
   32CHL1   H14 2311   5.215   4.777   7.660 -0.3111  0.4705 -0.5086
   32CHL1   C15 2312   5.129   4.627   7.776  0.3231  0.6100 -0.0857
   32CHL1  H15A 2313   5.045   4.554   7.773  0.7650  0.0485  0.8115
   32CHL1  H15B 2314   5.232   4.584   7.776  0.4421  0.8957  0.1165
   32CHL1   C16 2315   5.109   4.713   7.907 -0.1067 -0.0742 -0.1779
   32CHL1  H16A 2316   5.022   4.669   7.960  0.3757  0.2839  0.9213
   32CHL1  H16B 2317   5.194   4.723   7.979  0.5189 -1.3095 -0.7162
   32CHL1   C17 2318   5.075   4.864   7.855 -0.4596  0.1202  0.5471
   32CHL1   H17 2319   5.170   4.922   7.854 -1.1600  1.2494 -1.0593
   32CHL1   C13 2320   5.027   4.838   7.711 -0.6497 -0.3455  0.0918
   32CHL1   C18 2321   4.880   4.783   7.722 -0.6541 -0.3323 -0.1842
   32CHL1  H18A 2322   4.804   4.859   7.752  0.9706  1.2499  0.0085
   32CHL1  H18B 2323   4.840   4.746   7.626 -0.8195  2.8091 -1.4045
   32CHL1  H18C 2324   4.870   4.691   7.784 -0.6995  0.2615  0.7095
   32CHL1   C12 2325   5.050   4.965   7.617  0.8304  0.1675 -0.3652
   32CHL1  H12A 2326   4.985   5.048   7.654  1.1302  1.2708 -2.2354
   32CHL1  H12B 2327   5.153   5.007   7.620  0.0816  1.9992  0.4550
   32CHL1   C11 2328   5.012   4.924   7.469  0.2044  0.1884  0.4849
   32CHL1  H11A 2329   4.905   4.895   7.471  0.4668 -0.9459 -1.4474
   32CHL1  H11B 2330   5.019   4.999   7.387  0.4192 -1.6942 -1.2508
   32CHL1    C9 2331   5.095   4.804   7.428  0.0361  0.2770  0.0224
   32CHL1    H9 2332   5.200   4.839   7.430  0.3583 -0.7380  1.5642
   32CHL1   C10 2333   5.066   4.766   7.278  0.5402  0.6885  1.0429
   32CHL1   C19 2334   4.917   4.782   7.245  0.0053  0.4519  0.4716
   32CHL1  H19A 2335   4.890   4.733   7.149  1.4238 -1.4549  1.0091
   32CHL1  H19B 2336   4.863   4.728   7.326  1.2468  0.2693  1.1895
   32CHL1  H19C 2337   4.881   4.887   7.236 -0.3733  0.2897  0.1038
   32CHL1    C1 2338   5.146   4.872   7.188  0.4248  0.4561 -0.1891
   32CHL1   H1A 2339   5.092   4.968   7.201  1.2912  1.0579 -1.0292
   32CHL1   H1B 2340   5.247   4.886   7.231  0.2024 -1.1021  0.9102
   32CHL1    C2 2341   5.165   4.844   7.042 -0.8624  0.0885 -0.2187
   32CHL1   H2A 2342   5.237   4.910   6.990 -2.6231  2.2744  0.0563
   32CHL1   H2B 2343   5.067   4.858   6.991 -0.0437 -2.3010 -2.5357
   32CHL1   C20 2344   4.973   4.950   7.942 -0.1151 -0.1886  0.1942
   32CHL1   H20 2345   4.909   5.011   7.875  0.7129 -0.1007 -0.5184
   32CHL1   C21 2346   5.058   5.054   8.018 -0.2743  0.3134 -0.4234
   32CHL1  H21A 2347   4.998   5.131   8.070 -1.3889 -0.6012 -0.3455
   32CHL1  H21B 2348   5.124   5.107   7.946 -1.3108 -0.0720 -1.6655
   32CHL1  H21C 2349   5.121   4.993   8.087 -1.2687  0.4619  0.6406
   32CHL1   C22 2350   4.883   4.870   8.041  0.5690 -0.1583 -0.2782
   32CHL1  H22A 2351   4.831   4.791   7.982 -1.6623  1.7552 -0.9648
   32CHL1  H22B 2352   4.940   4.814   8.118  0.3723  1.2729  0.9405
   32CHL1   C23 2353   4.786   4.963   8.109 -0.0654 -0.2379 -0.5569
   32CHL1  H23A 2354   4.847   5.026   8.177 -0.3632 -2.4481  1.8280
   32CHL1  H23B 2355   4.737   5.025   8.032  2.0611 -0.6104 -2.2832
   32CHL1   C24 2356   4.690   4.888   8.204 -0.4337  0.4898  0.6096
   32CHL1  H24A 2357   4.617   4.822   8.152 -1.8412 -0.5191  3.7068
   32CHL1  H24B 2358   4.755   4.829   8.272  1.8501  1.7849 -0.4088
   32CHL1   C25 2359   4.607   4.984   8.289 -0.0374 -0.4239  0.5644
   32CHL1   H25 2360   4.649   5.087   8.290 -0.6754 -0.1321  3.5893
   32CHL1   C26 2361   4.463   4.995   8.232  0.2310  1.2722 -0.2444
   32CHL1  H26A 2362   4.462   5.031   8.126  1.5977  0.2415 -0.6259
   32CHL1  H26B 2363   4.424   4.892   8.244 -1.0282  2.2750  5.7657
   32CHL1  H26C 2364   4.400   5.064   8.291 -0.6087  0.1015  0.2557
   32CHL1   C27 2365   4.595   4.935   8.436  0.3217 -0.6562  0.0221
   32CHL1  H27A 2366   4.514   4.989   8.491 -0.1073 -1.0468 -0.2285
   32CHL1  H27B 2367   4.561   4.830   8.438  1.1384 -0.9295 -0.1365
   32CHL1  H27C 2368   4.693   4.947   8.487  0.9999  0.0741 -1.4441
   33CHL1    C3 2369   6.046   4.782   6.780  0.2191  0.5427  0.2363
   33CHL1    H3 2370   5.961   4.712   6.798  0.1392  0.7680  0.7439
   33CHL1    O3 2371   6.051   4.812   6.642  0.1560 -0.5792  0.0304
   33CHL1   H3' 2372   6.046   4.727   6.599 -1.4744 -1.2862  1.5428
   33CHL1    C4 2373   6.022   4.896   6.877 -0.5339 -0.3768  0.6481
   33CHL1   H4A 2374   6.104   4.971   6.872 -0.5381 -0.3925  0.3137
   33CHL1   H4B 2375   5.936   4.954   6.839 -1.2835 -1.0451  1.3128
   33CHL1    C5 2376   6.015   4.840   7.019  0.2085  0.3568 -0.4793
   33CHL1    C6 2377   5.911   4.874   7.099  0.6026 -0.5420 -0.0193
   33CHL1    H6 2378   5.834   4.942   7.062  1.0808  0.0768  0.1180
   33CHL1    C7 2379   5.887   4.826   7.239  0.0917 -0.1548 -0.0089
   33CHL1   H7A 2380   5.859   4.911   7.305 -2.1436  0.3781 -1.5770
   33CHL1   H7B 2381   5.799   4.759   7.236  0.3504 -0.4379 -2.3701
   33CHL1    C8 2382   6.017   4.758   7.295 -0.4177  0.1291  0.1296
   33CHL1    H8 2383   6.087   4.842   7.314 -0.2183  0.1329 -0.5987
   33CHL1   C14 2384   5.993   4.691   7.429  0.5969  0.4333  0.3712
   33CHL1   H14 2385   5.932   4.602   7.403  0.1298  0.9580 -0.3516
   33CHL1   C15 2386   5.916   4.766   7.538  0.0235 -0.2404  0.1546
   33CHL1  H15A 2387   5.976   4.857   7.558  0.4713 -0.0434 -1.9236
   33CHL1  H15B 2388   5.809   4.790   7.519 -0.3249 -1.0063  1.1074
   33CHL1   C16 2389   5.940   4.672   7.657 -1.1822  0.6368  0.2542
   33CHL1  H16A 2390   6.001   4.728   7.732  0.0076 -0.4267  0.1110
   33CHL1  H16B 2391   5.848   4.637   7.708 -0.9053  0.7760  0.8547
   33CHL1   C17 2392   6.041   4.559   7.622 -0.0535 -0.6349  0.1435
   33CHL1   H17 2393   5.983   4.472   7.585  1.6603 -1.1250 -1.4938
   33CHL1   C13 2394   6.111   4.612   7.491  0.5948  0.4483  0.2416
   33CHL1   C18 2395   6.219   4.703   7.546 -0.6108  0.4000 -1.4568
   33CHL1  H18A 2396   6.263   4.772   7.471  2.3014  3.0439  2.4786
   33CHL1  H18B 2397   6.171   4.768   7.623 -1.0995 -0.3262 -1.1431
   33CHL1  H18C 2398   6.302   4.646   7.593 -1.9036  0.0948  0.5353
   33CHL1   C12 2399   6.165   4.510   7.393  0.1813  0.2299 -0.3986
   33CHL1  H12A 2400   6.258   4.469   7.437  1.3367  1.2920 -1.8035
   33CHL1  H12B 2401   6.094   4.433   7.356  1.1464 -0.7427 -0.2565
   33CHL1   C11 2402   6.202   4.584   7.257  0.4880  0.5783 -0.0872
   33CHL1  H11A 2403   6.293   4.644   7.279 -0.4657  1.6443  1.0258
   33CHL1  H11B 2404   6.228   4.504   7.184 -1.3767  0.4208 -0.6125
   33CHL1    C9 2405   6.088   4.666   7.201 -0.1330 -0.5674 -0.4774
   33CHL1    H9 2406   6.010   4.594   7.168 -1.0265  0.0522  0.2231
   33CHL1   C10 2407   6.125   4.736   7.061  0.0945 -0.3497  0.6461
   33CHL1   C19 2408   6.250   4.828   7.084  0.3616  0.4300 -0.7217
   33CHL1  H19A 2409   6.226   4.900   7.165  2.3356 -0.3732  0.6274
   33CHL1  H19B 2410   6.343   4.774   7.111 -0.2426 -0.7168 -0.9230
   33CHL1  H19C 2411   6.283   4.883   6.993  0.6308 -0.5937 -1.2485
   33CHL1    C1 2412   6.149   4.627   6.950  0.3547  0.6087  0.1801
   33CHL1   H1A 2413   6.235   4.561   6.976 -0.5599 -0.3719  0.7679
   33CHL1   H1B 2414   6.067   4.552   6.945  2.0836 -1.2765 -1.0971
   33CHL1    C2 2415   6.163   4.684   6.803  0.1540 -0.0364  0.1165
   33CHL1   H2A 2416   6.153   4.590   6.745  0.4894  0.4252 -0.6861
   33CHL1   H2B 2417   6.257   4.742   6.802 -1.1723  2.3330  3.3314
   33CHL1   C20 2418   6.124   4.513   7.740 -0.2837  0.1308  0.2327
   33CHL1   H20 2419   6.188   4.596   7.778 -1.6266  2.0778 -1.6598
   33CHL1   C21 2420   6.218   4.392   7.697 -0.2586  0.0831 -0.5673
   33CHL1  H21A 2421   6.282   4.355   7.781 -2.1821 -0.2651  0.7643
   33CHL1  H21B 2422   6.293   4.426   7.622  1.7092 -0.0365  1.2913
   33CHL1  H21C 2423   6.151   4.311   7.661 -0.4515  0.1018 -0.2522
   33CHL1   C22 2424   6.041   4.475   7.871  0.2232 -1.0977  0.6202
   33CHL1  H22A 2425   5.979   4.560   7.905 -1.1309 -2.3118  1.2303
   33CHL1  H22B 2426   5.965   4.397   7.846 -0.0677 -0.7848  0.5236
   33CHL1   C23 2427   6.129   4.419   7.980  0.5859  0.0923 -0.0586
   33CHL1  H23A 2428   6.162   4.315   7.959 -1.3912 -0.5985  0.1732
   33CHL1  H23B 2429   6.223   4.479   7.988  0.0678  0.9367 -0.2828
   33CHL1   C24 2430   6.070   4.433   8.122 -0.1135 -0.2656 -0.2166
   33CHL1  H24A 2431   6.078   4.538   8.158  0.2831 -0.1126 -0.7371
   33CHL1  H24B 2432   5.965   4.396   8.121  0.0719 -0.7946 -0.8930
   33CHL1   C25 2433   6.147   4.356   8.239  0.1107 -0.1386  0.3490
   33CHL1   H25 2434   6.165   4.256   8.193  3.2417  1.2782 -1.6842
   33CHL1   C26 2435   6.294   4.411   8.259  1.1696 -0.9544 -0.4305
   33CHL1  H26A 2436   6.292   4.512   8.304 -0.2442 -0.5633 -1.3291
   33CHL1  H26B 2437   6.332   4.348   8.342 -1.0997 -0.6742  0.8827
   33CHL1  H26C 2438   6.357   4.404   8.168  2.4641 -2.8911  0.5828
   33CHL1   C27 2439   6.065   4.337   8.367 -0.0842 -0.0734  0.6227
   33CHL1  H27A 2440   5.958   4.328   8.341 -0.2032  2.4878  0.0843
   33CHL1  H27B 2441   6.092   4.239   8.413  2.0047  0.4230  0.5355
   33CHL1  H27C 2442   6.070   4.425   8.435 -2.5701  0.4807  0.1301
   34CHL1    C3 2443   0.468   3.615   7.207  0.2617 -0.1314 -0.3284
   34CHL1    H3 2444   0.476   3.716   7.253 -0.0456 -0.4016  0.3240
   34CHL1    O3 2445   0.416   3.626   7.079 -0.2892  0.1875  0.4262
   34CHL1   H3' 2446   0.441   3.546   7.033 -2.7180  0.6379 -1.7812
   34CHL1    C4 2447   0.608   3.549   7.203 -0.2569 -0.6099 -0.5895
   34CHL1   H4A 2448   0.590   3.449   7.158 -0.2450 -0.5326 -0.7641
   34CHL1   H4B 2449   0.682   3.605   7.142 -0.4383 -0.2512 -0.4838
   34CHL1    C5 2450   0.665   3.529   7.341 -0.0497  0.0008  0.0045
   34CHL1    C6 2451   0.782   3.591   7.372  0.7622 -0.4643 -0.9602
   34CHL1    H6 2452   0.841   3.646   7.296 -0.2554  1.5420 -0.3354
   34CHL1    C7 2453   0.855   3.582   7.504  0.2212 -0.7182  0.5107
   34CHL1   H7A 2454   0.964   3.559   7.496  0.6718  1.8046 -1.2706
   34CHL1   H7B 2455   0.857   3.680   7.558 -1.6684  0.3451 -1.2918
   34CHL1    C8 2456   0.788   3.479   7.595  0.1663  0.1771 -0.4250
   34CHL1    H8 2457   0.824   3.376   7.575  2.7466  1.1071 -0.6401
   34CHL1   C14 2458   0.833   3.499   7.739  0.4914  0.1259  0.0747
   34CHL1   H14 2459   0.802   3.600   7.772 -1.7769 -0.5423  0.0425
   34CHL1   C15 2460   0.980   3.498   7.780  0.4011  0.6760  0.3097
   34CHL1  H15A 2461   1.030   3.413   7.730 -0.0754  1.1231 -0.9693
   34CHL1  H15B 2462   1.033   3.589   7.743 -1.5151  1.3270 -0.9237
   34CHL1   C16 2463   0.983   3.483   7.932  0.8669  0.0845  0.0864
   34CHL1  H16A 2464   1.062   3.409   7.958  0.9093  0.2506  0.4322
   34CHL1  H16B 2465   1.016   3.579   7.976  1.0238  1.8949 -3.7320
   34CHL1   C17 2466   0.836   3.456   7.969 -0.2039 -0.8824 -0.3220
   34CHL1   H17 2467   0.800   3.560   7.981 -0.3712 -0.6332 -2.8184
   34CHL1   C13 2468   0.768   3.409   7.842 -0.4069  0.0904  0.0079
   34CHL1   C18 2469   0.811   3.263   7.816 -0.0517 -0.4570 -1.3058
   34CHL1  H18A 2470   0.770   3.227   7.719 -1.2214  1.2323 -1.4691
   34CHL1  H18B 2471   0.922   3.259   7.824  0.1563  0.6413 -3.2261
   34CHL1  H18C 2472   0.769   3.188   7.886 -0.5273  0.1626 -0.9213
   34CHL1   C12 2473   0.619   3.442   7.841 -0.3385 -0.1047  0.3075
   34CHL1  H12A 2474   0.572   3.389   7.926 -1.9568  2.2584  0.9252
   34CHL1  H12B 2475   0.614   3.551   7.860 -0.8063 -0.0841  0.0919
   34CHL1   C11 2476   0.565   3.412   7.699  0.3619  0.3064 -0.1671
   34CHL1  H11A 2477   0.579   3.302   7.687  0.9066  0.2493  0.9142
   34CHL1  H11B 2478   0.454   3.414   7.693  0.3827  1.0967 -0.2783
   34CHL1    C9 2479   0.631   3.486   7.592 -0.0067 -0.3305 -0.2657
   34CHL1    H9 2480   0.600   3.588   7.625 -2.6475 -0.7360 -1.4377
   34CHL1   C10 2481   0.575   3.463   7.455  0.0066  0.2484  0.5823
   34CHL1   C19 2482   0.571   3.304   7.429  0.1063 -0.3603 -0.9222
   34CHL1  H19A 2483   0.674   3.266   7.441  0.4904  0.6931 -0.8244
   34CHL1  H19B 2484   0.513   3.243   7.502 -0.7358  1.5829  0.0810
   34CHL1  H19C 2485   0.539   3.281   7.325  2.0377  2.7541 -2.2908
   34CHL1    C1 2486   0.422   3.519   7.437 -0.0629  0.0826  0.2003
   34CHL1   H1A 2487   0.353   3.445   7.483  1.4750  0.8574  3.9588
   34CHL1   H1B 2488   0.405   3.617   7.488 -0.7932 -0.0530  0.2267
   34CHL1    C2 2489   0.376   3.524   7.289  0.2213 -0.0958 -0.3893
   34CHL1   H2A 2490   0.270   3.556   7.283 -0.0297 -0.1491  2.7453
   34CHL1   H2B 2491   0.384   3.428   7.234 -1.5388  0.2586 -1.2899
   34CHL1   C20 2492   0.815   3.387   8.096  0.1474 -0.0566 -0.4798
   34CHL1   H20 2493   0.719   3.332   8.099  1.4557 -2.4598 -1.3861
   34CHL1   C21 2494   0.795   3.490   8.204  0.2699 -0.3354 -0.4590
   34CHL1  H21A 2495   0.705   3.550   8.178  0.0189  0.9591  3.0887
   34CHL1  H21B 2496   0.883   3.556   8.222 -0.7228  0.8753  0.0670
   34CHL1  H21C 2497   0.779   3.441   8.303 -1.6178  2.1510  0.5342
   34CHL1   C22 2498   0.924   3.283   8.138  0.3308  0.5635 -0.0330
   34CHL1  H22A 2499   0.967   3.238   8.046 -1.1993 -0.8942 -0.0701
   34CHL1  H22B 2500   1.007   3.341   8.183  0.6643 -0.1901  0.3348
   34CHL1   C23 2501   0.879   3.178   8.235  0.4430 -0.1566  0.1949
   34CHL1  H23A 2502   0.960   3.102   8.238  0.0186 -0.7726 -2.2712
   34CHL1  H23B 2503   0.854   3.208   8.339 -0.4880 -0.5372  0.0869
   34CHL1   C24 2504   0.755   3.094   8.185  1.1341 -0.2608  1.2810
   34CHL1  H24A 2505   0.664   3.147   8.223 -1.5185 -2.3699 -1.8362
   34CHL1  H24B 2506   0.757   3.081   8.075  1.9345 -2.7150  1.5369
   34CHL1   C25 2507   0.739   2.953   8.246 -0.2591 -0.3137 -0.4142
   34CHL1   H25 2508   0.643   2.914   8.205 -0.7844 -0.4291  0.9090
   34CHL1   C26 2509   0.852   2.856   8.202  0.0967 -0.5137  0.0365
   34CHL1  H26A 2510   0.858   2.858   8.091  0.8704 -1.7529  0.0550
   34CHL1  H26B 2511   0.945   2.891   8.251  0.9714 -0.5601 -1.5543
   34CHL1  H26C 2512   0.826   2.753   8.235  0.1298 -0.0095  1.6686
   34CHL1   C27 2513   0.711   2.951   8.403 -0.2319 -0.4695 -0.1607
   34CHL1  H27A 2514   0.647   3.038   8.429 -2.0483 -2.0711  0.8584
   34CHL1  H27B 2515   0.680   2.849   8.432 -2.0493  0.5876  1.7108
   34CHL1  H27C 2516   0.808   2.966   8.456  0.9303 -0.3648 -2.2312
   35CHL1    C3 2517   4.016   5.054   7.248  0.2446  0.2200  0.1464
   35CHL1    H3 2518   3.986   5.152   7.291 -0.7923  0.1330 -0.3699
   35CHL1    O3 2519   4.033   5.065   7.106 -0.2513 -0.4306 -0.5111
   35CHL1   H3' 2520   3.944   5.083   7.075 -0.0506  1.0843 -0.2281
   35CHL1    C4 2521   4.144   4.998   7.312 -0.5370  0.2127 -0.1213
   35CHL1   H4A 2522   4.169   4.896   7.276  2.3123  1.7449 -2.7592
   35CHL1   H4B 2523   4.232   5.060   7.284 -1.0691  0.4651 -1.3071
   35CHL1    C5 2524   4.129   4.981   7.463  0.2149 -0.7303  0.0966
   35CHL1    C6 2525   4.211   5.052   7.544 -0.3549 -0.1611 -0.4225
   35CHL1    H6 2526   4.286   5.116   7.495 -0.8542  0.2862 -0.6092
   35CHL1    C7 2527   4.211   5.048   7.697  0.3098 -0.3866  0.0223
   35CHL1   H7A 2528   4.312   5.025   7.737  0.7815  0.9847 -0.3229
   35CHL1   H7B 2529   4.173   5.143   7.739  1.3846  0.5417 -1.0625
   35CHL1    C8 2530   4.116   4.936   7.746  0.2088 -0.8523 -0.0889
   35CHL1    H8 2531   4.172   4.840   7.744  2.6571  0.5577 -2.0399
   35CHL1   C14 2532   4.073   4.959   7.889  0.6456  0.5834 -0.0046
   35CHL1   H14 2533   4.014   5.053   7.894 -0.2135  0.0614 -0.1961
   35CHL1   C15 2534   4.186   4.981   7.986 -0.4145  0.6472  0.0500
   35CHL1  H15A 2535   4.264   4.918   7.939 -2.5663 -1.5061 -0.7365
   35CHL1  H15B 2536   4.230   5.083   7.987 -2.0223  1.3513  0.9834
   35CHL1   C16 2537   4.137   4.938   8.124 -0.3794  0.4767 -0.2074
   35CHL1  H16A 2538   4.210   4.859   8.151  0.8872  1.7582  0.1859
   35CHL1  H16B 2539   4.141   5.023   8.195  2.0169  0.4983 -0.3089
   35CHL1   C17 2540   3.993   4.887   8.105  0.3598 -0.7047 -0.3317
   35CHL1   H17 2541   3.916   4.967   8.115  1.1502  0.2899 -2.0539
   35CHL1   C13 2542   3.989   4.851   7.957 -0.3645 -0.1452  0.9201
   35CHL1   C18 2543   4.036   4.704   7.939 -0.9668 -0.0905  0.2769
   35CHL1  H18A 2544   4.061   4.685   7.833 -0.8422 -1.5606  0.5541
   35CHL1  H18B 2545   4.130   4.700   7.999 -1.6175  0.4298  1.3465
   35CHL1  H18C 2546   3.960   4.635   7.981 -0.9895  1.7103  3.3856
   35CHL1   C12 2547   3.861   4.865   7.882  0.0689  0.2622 -0.2109
   35CHL1  H12A 2548   3.787   4.789   7.915  0.7656  0.1207  1.0381
   35CHL1  H12B 2549   3.815   4.965   7.898  0.5192  0.7139 -1.6209
   35CHL1   C11 2550   3.882   4.838   7.729 -0.0524  0.0293  0.7777
   35CHL1  H11A 2551   3.900   4.729   7.717 -1.8355 -0.1574 -0.3648
   35CHL1  H11B 2552   3.788   4.851   7.671  0.5540 -1.5817 -0.6261
   35CHL1    C9 2553   3.990   4.930   7.657  0.2613  1.2448 -0.5194
   35CHL1    H9 2554   3.960   5.037   7.654 -2.2456  0.5754 -0.5507
   35CHL1   C10 2555   4.005   4.913   7.506  0.6352  0.4239 -0.3381
   35CHL1   C19 2556   4.025   4.770   7.471  0.7909 -0.5172  0.2859
   35CHL1  H19A 2557   4.036   4.749   7.363 -0.9261  1.5376 -0.3145
   35CHL1  H19B 2558   4.111   4.729   7.528 -0.0221 -2.1213  0.3631
   35CHL1  H19C 2559   3.934   4.714   7.502 -0.6896  2.1031  0.8976
   35CHL1    C1 2560   3.877   4.967   7.431 -0.0816 -0.0688 -0.1010
   35CHL1   H1A 2561   3.786   4.905   7.448  0.2878 -0.8384 -0.9032
   35CHL1   H1B 2562   3.852   5.064   7.478  2.2577  0.4552  0.1162
   35CHL1    C2 2563   3.897   4.963   7.275  0.2528  0.3472 -0.1851
   35CHL1   H2A 2564   3.809   4.999   7.218  0.3547  0.8063 -0.0570
   35CHL1   H2B 2565   3.916   4.858   7.246  0.2161 -0.2869  2.0078
   35CHL1   C20 2566   3.950   4.780   8.206 -0.3150  0.6764 -0.4966
   35CHL1   H20 2567   4.014   4.691   8.188 -0.0632  0.7496  0.0511
   35CHL1   C21 2568   3.807   4.750   8.179  0.5134  0.6400  0.1658
   35CHL1  H21A 2569   3.800   4.694   8.083  1.1641  0.6197  0.1233
   35CHL1  H21B 2570   3.745   4.842   8.177 -2.0453 -1.0609  0.1846
   35CHL1  H21C 2571   3.757   4.692   8.259  0.7406 -0.0688 -0.2076
   35CHL1   C22 2572   3.974   4.827   8.356  0.1778  0.0993  0.6338
   35CHL1  H22A 2573   4.073   4.877   8.369  0.2228  0.5613 -1.3233
   35CHL1  H22B 2574   3.895   4.901   8.381  1.2182  1.0278  1.2102
   35CHL1   C23 2575   3.965   4.702   8.457 -0.3881 -0.4385 -0.0860
   35CHL1  H23A 2576   3.865   4.654   8.468  0.0020 -1.6050 -1.4375
   35CHL1  H23B 2577   4.035   4.625   8.417 -1.0260 -0.7658 -0.5858
   35CHL1   C24 2578   4.021   4.746   8.600 -0.2013  0.5399  0.6648
   35CHL1  H24A 2579   4.125   4.782   8.585 -0.1601 -0.2234 -0.9437
   35CHL1  H24B 2580   3.962   4.826   8.650  1.2235  1.6181  0.6580
   35CHL1   C25 2581   4.046   4.635   8.705  0.5699  0.2194  0.0657
   35CHL1   H25 2582   3.955   4.638   8.768 -0.1887 -1.4704 -0.9143
   35CHL1   C26 2583   4.074   4.494   8.643 -0.4488  0.6191 -0.5401
   35CHL1  H26A 2584   4.174   4.491   8.595  0.9873  0.5856  2.4081
   35CHL1  H26B 2585   4.080   4.414   8.720  0.6911  0.6667 -0.5837
   35CHL1  H26C 2586   3.995   4.459   8.572 -1.5342  0.3466  0.7770
   35CHL1   C27 2587   4.158   4.676   8.799 -0.4500  0.8627  0.3277
   35CHL1  H27A 2588   4.161   4.594   8.875 -0.2622  1.6947  1.2268
   35CHL1  H27B 2589   4.141   4.778   8.840  0.7029  0.1695  2.5938
   35CHL1  H27C 2590   4.249   4.668   8.736 -0.3882  1.5348  0.3270
   36CHL1    C3 2591   4.701   3.852   6.960 -1.2615 -0.6364  0.3684
   36CHL1    H3 2592   4.734   3.957   6.969 -1.4264 -0.7008  1.7304
   36CHL1    O3 2593   4.649   3.822   6.830 -0.2411  0.5228 -0.4830
   36CHL1   H3' 2594   4.627   3.729   6.832  0.6079  0.3035 -0.9593
   36CHL1    C4 2595   4.815   3.759   6.994 -0.0061  0.1956  0.2827
   36CHL1   H4A 2596   4.783   3.656   6.969  2.0510 -0.5350  0.5583
   36CHL1   H4B 2597   4.888   3.774   6.911  1.0113 -2.3272  0.6704
   36CHL1    C5 2598   4.870   3.746   7.129  0.2863  0.1730 -0.0765
   36CHL1    C6 2599   4.997   3.756   7.166  0.6780 -0.0763  0.9900
   36CHL1    H6 2600   5.077   3.790   7.099  0.3529  1.0046  1.1365
   36CHL1    C7 2601   5.051   3.750   7.308 -0.8128 -0.2371  0.5627
   36CHL1   H7A 2602   5.142   3.686   7.313  1.7476  3.0757 -1.7146
   36CHL1   H7B 2603   5.080   3.852   7.343 -0.6010 -0.3364  0.6729
   36CHL1    C8 2604   4.944   3.694   7.410 -0.9208  0.1630 -0.0614
   36CHL1    H8 2605   4.948   3.586   7.385  0.6603  0.2498 -0.2443
   36CHL1   C14 2606   4.986   3.722   7.556 -0.3304 -0.1572 -0.0673
   36CHL1   H14 2607   4.986   3.833   7.568 -0.7051 -0.0643 -0.8804
   36CHL1   C15 2608   5.127   3.682   7.607 -0.9442  0.1361 -0.6241
   36CHL1  H15A 2609   5.145   3.580   7.568 -1.1762  0.1348 -0.7339
   36CHL1  H15B 2610   5.194   3.761   7.566 -0.2878  0.9900  1.9912
   36CHL1   C16 2611   5.108   3.674   7.764  0.2572 -0.3397 -0.2915
   36CHL1  H16A 2612   5.130   3.570   7.796  0.6152  0.7075  3.0111
   36CHL1  H16B 2613   5.168   3.756   7.810  0.5836 -1.2426  0.9055
   36CHL1   C17 2614   4.956   3.698   7.791  0.3913 -0.0760  0.0375
   36CHL1   H17 2615   4.933   3.806   7.803 -2.6367 -0.6196 -0.3814
   36CHL1   C13 2616   4.879   3.671   7.656 -0.4486  0.6286 -0.2660
   36CHL1   C18 2617   4.868   3.514   7.642 -0.7121  0.0801  0.3112
   36CHL1  H18A 2618   4.845   3.487   7.537  0.2652 -1.0456  0.3734
   36CHL1  H18B 2619   4.962   3.459   7.665 -0.2126  0.9490  0.3951
   36CHL1  H18C 2620   4.799   3.464   7.713 -0.4102  1.1879  1.4154
   36CHL1   C12 2621   4.752   3.754   7.634  0.2256 -0.7527  0.1554
   36CHL1  H12A 2622   4.677   3.734   7.714  0.0325  0.9310  0.4249
   36CHL1  H12B 2623   4.777   3.861   7.650 -1.2285 -0.3508 -0.1211
   36CHL1   C11 2624   4.698   3.727   7.494 -0.3979  0.0599  0.2279
   36CHL1  H11A 2625   4.663   3.622   7.486  0.5372 -0.3213  1.0914
   36CHL1  H11B 2626   4.612   3.796   7.479 -0.6196  0.1116  1.7209
   36CHL1    C9 2627   4.807   3.754   7.384 -0.2104 -0.1738 -0.4294
   36CHL1    H9 2628   4.825   3.863   7.388  1.2780 -0.3895 -0.9389
   36CHL1   C10 2629   4.758   3.725   7.241  0.3452 -0.3900  0.5000
   36CHL1   C19 2630   4.709   3.575   7.235 -0.4668 -0.1416 -0.2712
   36CHL1  H19A 2631   4.629   3.546   7.307 -0.8765  1.7339  0.0430
   36CHL1  H19B 2632   4.690   3.533   7.134 -1.3675 -1.4143  0.4117
   36CHL1  H19C 2633   4.797   3.514   7.266 -0.3754  0.8710  1.5382
   36CHL1    C1 2634   4.635   3.824   7.202  0.4144  0.0783 -0.1189
   36CHL1   H1A 2635   4.543   3.784   7.248 -0.1077  0.8756 -0.4578
   36CHL1   H1B 2636   4.658   3.923   7.247 -3.3130 -0.1937  2.6688
   36CHL1    C2 2637   4.592   3.838   7.062 -0.2751  0.1178  0.2243
   36CHL1   H2A 2638   4.526   3.925   7.039 -0.8814  0.2282  2.2428
   36CHL1   H2B 2639   4.530   3.749   7.039  0.2692 -0.5957  1.4774
   36CHL1   C20 2640   4.916   3.636   7.921  0.3810 -0.0990 -0.4582
   36CHL1   H20 2641   4.932   3.526   7.924  1.1307 -0.0217 -1.4658
   36CHL1   C21 2642   4.760   3.644   7.939 -0.3150 -0.0919 -0.4205
   36CHL1  H21A 2643   4.707   3.569   7.876 -2.0652 -1.5002  2.6509
   36CHL1  H21B 2644   4.733   3.749   7.913 -0.3003 -0.1085 -0.5044
   36CHL1  H21C 2645   4.744   3.613   8.044  2.0369 -0.6668 -0.2222
   36CHL1   C22 2646   4.993   3.711   8.029 -0.4280  0.1827 -0.4519
   36CHL1  H22A 2647   5.100   3.684   8.020 -0.1669  1.4350 -1.3000
   36CHL1  H22B 2648   4.982   3.821   8.021 -0.1521  0.4166  2.0981
   36CHL1   C23 2649   4.967   3.664   8.171  0.6191  0.3734 -0.6536
   36CHL1  H23A 2650   4.867   3.703   8.201  0.3033 -0.0585 -1.1362
   36CHL1  H23B 2651   4.968   3.553   8.169  0.6168  0.2931  1.9543
   36CHL1   C24 2652   5.086   3.691   8.265  0.7310 -0.0452 -0.0123
   36CHL1  H24A 2653   5.164   3.626   8.220 -0.4381 -1.0442 -0.6225
   36CHL1  H24B 2654   5.111   3.799   8.268 -0.4891  0.2456 -0.1303
   36CHL1   C25 2655   5.078   3.623   8.405 -0.1332 -0.6217  0.4419
   36CHL1   H25 2656   5.078   3.512   8.399  0.0468 -0.5497 -0.9877
   36CHL1   C26 2657   5.200   3.646   8.496 -0.5350 -0.7191  0.4440
   36CHL1  H26A 2658   5.295   3.615   8.447 -1.3350 -0.5944 -1.2195
   36CHL1  H26B 2659   5.214   3.750   8.531 -0.8398 -0.7824  0.7591
   36CHL1  H26C 2660   5.180   3.582   8.585  1.2518 -0.8330  0.7877
   36CHL1   C27 2661   4.948   3.657   8.483 -0.3422  0.7482  0.1923
   36CHL1  H27A 2662   4.861   3.601   8.443 -0.4051  0.3776  0.8293
   36CHL1  H27B 2663   4.963   3.620   8.587  1.4984 -0.8421 -0.6149
   36CHL1  H27C 2664   4.931   3.766   8.495  1.2392  0.8017  2.2725
   37CHL1    C3 2665   0.927   5.805   6.957  0.7442 -0.7169 -0.9790
   37CHL1    H3 2666   0.922   5.902   7.011  2.0306 -1.2855  0.1914
   37CHL1    O3 2667   0.950   5.831   6.819 -0.0648 -0.0508 -0.1397
   37CHL1   H3' 2668   0.950   5.742   6.783 -1.3227 -0.2373  0.2963
   37CHL1    C4 2669   1.049   5.745   7.019  0.2323 -0.1269  0.9220
   37CHL1   H4A 2670   1.065   5.644   6.976  0.4830  0.8696 -1.3937
   37CHL1   H4B 2671   1.142   5.803   6.999  0.0266 -0.5236 -1.2453
   37CHL1    C5 2672   1.021   5.734   7.168 -0.2349 -0.9015 -0.5391
   37CHL1    C6 2673   1.093   5.794   7.260  0.4710  0.3112 -0.3733
   37CHL1    H6 2674   1.184   5.846   7.228  0.8208 -0.7888 -1.1905
   37CHL1    C7 2675   1.072   5.784   7.408  0.1666 -0.1530  0.2768
   37CHL1   H7A 2676   1.171   5.760   7.451  1.0151 -1.0861 -2.1263
   37CHL1   H7B 2677   1.036   5.883   7.443  1.3890  1.7506 -3.5979
   37CHL1    C8 2678   0.971   5.670   7.452  1.0064 -0.1655  0.0756
   37CHL1    H8 2679   1.025   5.575   7.434  0.3774 -0.2151 -1.7080
   37CHL1   C14 2680   0.927   5.676   7.598  1.3727  0.4625  0.1593
   37CHL1   H14 2681   0.875   5.773   7.610 -1.8565 -1.2899  1.0223
   37CHL1   C15 2682   1.034   5.665   7.698 -0.2606  0.5067  0.1659
   37CHL1  H15A 2683   1.114   5.591   7.679  0.2411  0.5713  1.9471
   37CHL1  H15B 2684   1.089   5.762   7.701 -0.1642  0.4295  1.1103
   37CHL1   C16 2685   0.962   5.641   7.827  0.1186 -0.5939  0.0509
   37CHL1  H16A 2686   1.021   5.575   7.894  1.6948  0.7464  0.0038
   37CHL1  H16B 2687   0.947   5.737   7.880 -0.7429 -0.1451 -0.9872
   37CHL1   C17 2688   0.826   5.579   7.786  0.2766  0.4869 -0.3864
   37CHL1   H17 2689   0.766   5.672   7.794 -1.1143 -0.2340 -2.0078
   37CHL1   C13 2690   0.837   5.561   7.634 -0.3165 -0.2010  0.1761
   37CHL1   C18 2691   0.894   5.419   7.616 -0.3461 -0.2505 -0.1350
   37CHL1  H18A 2692   0.980   5.419   7.687 -1.3623  1.6110  1.1529
   37CHL1  H18B 2693   0.812   5.348   7.641  1.4754 -2.6680 -0.8206
   37CHL1  H18C 2694   0.936   5.399   7.515  1.0152  1.3881  0.0806
   37CHL1   C12 2695   0.705   5.577   7.555 -0.0018 -0.5185  0.0838
   37CHL1  H12A 2696   0.635   5.494   7.579  0.7703 -1.4106 -0.6522
   37CHL1  H12B 2697   0.670   5.678   7.583 -1.1607 -0.6278 -0.9208
   37CHL1   C11 2698   0.737   5.575   7.404 -0.4273 -0.8503  0.1370
   37CHL1  H11A 2699   0.764   5.470   7.379 -0.6178 -0.1291 -3.3994
   37CHL1  H11B 2700   0.641   5.607   7.359  0.6314  0.2135 -1.4108
   37CHL1    C9 2701   0.853   5.666   7.357 -0.4586 -0.4093  0.3451
   37CHL1    H9 2702   0.808   5.767   7.370 -1.7588 -0.6879 -1.6729
   37CHL1   C10 2703   0.899   5.652   7.205 -0.6540 -0.7305 -0.6493
   37CHL1   C19 2704   0.948   5.501   7.180 -0.6613 -0.6535 -0.0260
   37CHL1  H19A 2705   0.855   5.440   7.184 -0.5701 -0.8690 -1.1434
   37CHL1  H19B 2706   0.997   5.474   7.084 -0.2602  0.2914 -0.0847
   37CHL1  H19C 2707   1.017   5.465   7.260  1.3046  2.0476 -0.4455
   37CHL1    C1 2708   0.775   5.690   7.124  0.4142  0.4953 -0.2159
   37CHL1   H1A 2709   0.692   5.618   7.142  0.1259  0.8933  0.0685
   37CHL1   H1B 2710   0.736   5.786   7.164 -1.1829 -1.0972  2.1707
   37CHL1    C2 2711   0.805   5.717   6.979 -0.0271 -0.4481  0.7984
   37CHL1   H2A 2712   0.722   5.775   6.933  1.5878  0.2576 -1.3238
   37CHL1   H2B 2713   0.815   5.618   6.930 -0.0265 -0.2546  0.4014
   37CHL1   C20 2714   0.779   5.475   7.888  1.2074  0.6031  0.2241
   37CHL1   H20 2715   0.828   5.375   7.888  0.7289  0.3691  0.0406
   37CHL1   C21 2716   0.628   5.453   7.860 -0.2376 -0.9289  0.8167
   37CHL1  H21A 2717   0.577   5.385   7.932 -1.5946  0.5701  1.3084
   37CHL1  H21B 2718   0.618   5.401   7.762  3.7723 -0.2303 -0.0649
   37CHL1  H21C 2719   0.563   5.543   7.865 -1.6667 -1.9321  0.3315
   37CHL1   C22 2720   0.789   5.523   8.037  0.1923 -0.6708  0.3348
   37CHL1  H22A 2721   0.896   5.550   8.052  0.2378 -0.0163 -1.0808
   37CHL1  H22B 2722   0.731   5.617   8.055  0.8716 -0.2306  0.2376
   37CHL1   C23 2723   0.737   5.432   8.146 -0.0067  0.4115 -0.9398
   37CHL1  H23A 2724   0.627   5.440   8.142 -0.0819 -0.0764 -0.0010
   37CHL1  H23B 2725   0.764   5.325   8.136 -1.9550 -0.3779  1.6903
   37CHL1   C24 2726   0.778   5.481   8.285  0.8466  0.9102  0.1800
   37CHL1  H24A 2727   0.889   5.489   8.281  1.0599 -0.9609  1.6498
   37CHL1  H24B 2728   0.735   5.581   8.306 -0.6571  0.2109  0.4657
   37CHL1   C25 2729   0.735   5.373   8.386  0.2155  0.4833 -0.2971
   37CHL1   H25 2730   0.748   5.274   8.337  0.4059  0.5875 -0.4580
   37CHL1   C26 2731   0.813   5.394   8.519  0.5831  0.3492  1.0400
   37CHL1  H26A 2732   0.791   5.326   8.604  0.0501 -0.8590 -0.0450
   37CHL1  H26B 2733   0.920   5.395   8.490  0.1767  2.1258 -0.4443
   37CHL1  H26C 2734   0.786   5.499   8.543 -0.0457  1.1379 -2.8653
   37CHL1   C27 2735   0.585   5.388   8.405 -0.0424 -0.2819  0.7150
   37CHL1  H27A 2736   0.535   5.351   8.312 -1.9760  3.4712  0.1436
   37CHL1  H27B 2737   0.540   5.323   8.483  1.0528 -0.7145  0.9877
   37CHL1  H27C 2738   0.558   5.492   8.435 -3.9183 -1.1235  0.4747
   38CHL1    C3 2739   4.175   0.598   6.569 -0.2734  0.7977  0.8143
   38CHL1    H3 2740   4.225   0.697   6.567  2.6410 -0.6260  0.7502
   38CHL1    O3 2741   4.154   0.570   6.429 -0.0635 -0.5492 -0.3104
   38CHL1   H3' 2742   4.240   0.549   6.390 -1.2166 -0.9768 -2.7488
   38CHL1    C4 2743   4.275   0.495   6.627  0.4408  0.2385 -0.3436
   38CHL1   H4A 2744   4.233   0.398   6.593  1.7289 -0.2853 -0.4431
   38CHL1   H4B 2745   4.372   0.498   6.575  0.7474  1.5969  0.2778
   38CHL1    C5 2746   4.279   0.502   6.781 -0.0283  0.0861 -0.4734
   38CHL1    C6 2747   4.402   0.500   6.835  0.2812 -0.0423 -0.5294
   38CHL1    H6 2748   4.480   0.473   6.763  0.5340  2.5887 -1.3037
   38CHL1    C7 2749   4.432   0.505   6.986  0.5808  0.3329  0.0648
   38CHL1   H7A 2750   4.502   0.423   7.014  2.6224  2.6356  1.9759
   38CHL1   H7B 2751   4.481   0.602   7.008  1.2893  0.2175 -0.9844
   38CHL1    C8 2752   4.295   0.485   7.074 -0.5277 -0.4554 -0.3742
   38CHL1    H8 2753   4.270   0.377   7.072  0.4679 -0.6878 -0.9528
   38CHL1   C14 2754   4.315   0.523   7.225  0.3584 -0.0088  0.7611
   38CHL1   H14 2755   4.350   0.628   7.218  0.9586 -0.2461  0.1935
   38CHL1   C15 2756   4.422   0.457   7.315  0.1498 -1.0556  0.1051
   38CHL1  H15A 2757   4.443   0.355   7.274 -1.2661 -0.6566 -1.6802
   38CHL1  H15B 2758   4.517   0.514   7.312  1.0947 -2.5513  0.6615
   38CHL1   C16 2759   4.365   0.454   7.457  0.4006  0.5238 -0.1339
   38CHL1  H16A 2760   4.339   0.348   7.476 -2.2582  1.2829  0.6152
   38CHL1  H16B 2761   4.439   0.493   7.530 -0.8606  0.3290  1.2558
   38CHL1   C17 2762   4.244   0.550   7.453  0.1371 -0.4421  1.0392
   38CHL1   H17 2763   4.286   0.653   7.443 -2.5229  0.4083 -2.2253
   38CHL1   C13 2764   4.188   0.527   7.305 -0.3297 -0.8415 -0.5278
   38CHL1   C18 2765   4.125   0.385   7.302  0.7948  0.4081 -0.5336
   38CHL1  H18A 2766   4.098   0.355   7.198 -1.6168  1.6381 -0.2867
   38CHL1  H18B 2767   4.196   0.307   7.340  0.5218  0.3342 -0.1773
   38CHL1  H18C 2768   4.040   0.380   7.372 -0.5324  1.9223 -1.9977
   38CHL1   C12 2769   4.091   0.630   7.240 -0.1420  0.0959 -0.4609
   38CHL1  H12A 2770   3.998   0.622   7.300  0.3972 -0.8413  0.2718
   38CHL1  H12B 2771   4.119   0.738   7.233 -1.3380  0.5005  0.7378
   38CHL1   C11 2772   4.060   0.595   7.091 -0.1661  0.3770 -0.1553
   38CHL1  H11A 2773   3.991   0.509   7.087 -0.0124  0.2676 -0.4909
   38CHL1  H11B 2774   4.010   0.683   7.045 -0.5191 -0.2456 -0.9613
   38CHL1    C9 2775   4.184   0.573   7.004 -0.6896  0.8239  0.6163
   38CHL1    H9 2776   4.234   0.672   6.997  2.2608 -0.4219  3.0451
   38CHL1   C10 2777   4.147   0.525   6.859 -0.2818 -0.3714  0.0850
   38CHL1   C19 2778   4.076   0.395   6.864  0.1294  0.0798 -0.5808
   38CHL1  H19A 2779   4.120   0.323   6.937  0.9580  1.1336 -0.0151
   38CHL1  H19B 2780   3.972   0.415   6.896  1.0910  0.5102  2.4183
   38CHL1  H19C 2781   4.082   0.343   6.766 -0.6555 -2.0724  0.4974
   38CHL1    C1 2782   4.073   0.637   6.787  0.0224  0.8192 -0.3658
   38CHL1   H1A 2783   3.976   0.642   6.840 -0.3431 -1.5778 -0.7430
   38CHL1   H1B 2784   4.124   0.735   6.802  1.3712  0.2601 -1.1423
   38CHL1    C2 2785   4.044   0.613   6.641 -0.1253  0.3009  0.6377
   38CHL1   H2A 2786   3.985   0.691   6.588  0.4784  1.4837  1.6704
   38CHL1   H2B 2787   3.976   0.526   6.647  0.2129 -0.0081  0.0859
   38CHL1   C20 2788   4.139   0.540   7.569  0.7953 -0.2991 -0.0110
   38CHL1   H20 2789   4.042   0.535   7.516  0.4744  0.8608  0.4419
   38CHL1   C21 2790   4.137   0.680   7.638 -0.2668 -0.0695  0.1359
   38CHL1  H21A 2791   4.073   0.683   7.729 -0.5437  0.5430 -0.0794
   38CHL1  H21B 2792   4.109   0.762   7.568 -0.6039  0.8309  1.2994
   38CHL1  H21C 2793   4.239   0.698   7.679 -0.5883 -0.5236  1.1708
   38CHL1   C22 2794   4.162   0.416   7.661  0.3727  0.7978  0.3679
   38CHL1  H22A 2795   4.167   0.329   7.592 -0.9363  0.9534  0.0568
   38CHL1  H22B 2796   4.264   0.429   7.703  0.6516  1.2495 -0.4328
   38CHL1   C23 2797   4.050   0.392   7.756 -0.3328 -0.0916  0.2722
   38CHL1  H23A 2798   4.042   0.482   7.821 -1.0541 -0.9955  1.4623
   38CHL1  H23B 2799   3.954   0.362   7.707 -0.6667  0.1585  0.7719
   38CHL1   C24 2800   4.091   0.283   7.852 -0.6095 -0.8264  0.1359
   38CHL1  H24A 2801   4.129   0.192   7.801 -0.9037  0.2983 -2.1439
   38CHL1  H24B 2802   4.177   0.313   7.916 -0.5484  0.6706 -0.6250
   38CHL1   C25 2803   3.987   0.242   7.957 -0.2080 -0.1668  0.2683
   38CHL1   H25 2804   3.898   0.209   7.900  0.8386 -0.2440 -1.3757
   38CHL1   C26 2805   4.034   0.128   8.042  0.7110  0.8999  0.2572
   38CHL1  H26A 2806   4.050   0.041   7.975  1.2419  2.1454 -1.2582
   38CHL1  H26B 2807   4.131   0.159   8.088  0.2596  0.7811  1.3186
   38CHL1  H26C 2808   3.953   0.115   8.116  0.7144 -1.1568 -0.0787
   38CHL1   C27 2809   3.940   0.348   8.051  0.0221  0.2141  0.4920
   38CHL1  H27A 2810   3.891   0.428   7.991  0.5067 -0.5135 -0.9080
   38CHL1  H27B 2811   3.868   0.308   8.126  1.6170 -3.1133  0.3654
   38CHL1  H27C 2812   4.025   0.389   8.110 -1.6813  2.4153  1.4868
   39CHL1    C3 2813   3.654   6.334   6.935 -0.2926  0.0323  0.3278
   39CHL1    H3 2814   3.744   6.393   6.907  0.1832  1.2069  4.0590
   39CHL1    O3 2815   3.567   6.317   6.829  0.3298 -0.6344  0.4273
   39CHL1   H3' 2816   3.503   6.388   6.827 -1.2047 -1.9956 -1.7589
   39CHL1    C4 2817   3.710   6.200   6.989  0.0138 -0.3277  0.1940
   39CHL1   H4A 2818   3.621   6.137   7.009  1.1067 -1.4262  1.7274
   39CHL1   H4B 2819   3.750   6.136   6.907  1.3057 -0.5639  0.9878
   39CHL1    C5 2820   3.792   6.211   7.110 -0.4736 -0.1365  0.0720
   39CHL1    C6 2821   3.913   6.154   7.118 -0.9350 -0.5622  0.2231
   39CHL1    H6 2822   3.953   6.093   7.036 -0.5617  0.4871 -0.3785
   39CHL1    C7 2823   3.987   6.161   7.253 -0.5818  0.0353 -0.5451
   39CHL1   H7A 2824   4.038   6.067   7.282 -1.7092 -0.7381 -1.0722
   39CHL1   H7B 2825   4.070   6.236   7.247 -0.1745 -0.1820  1.8641
   39CHL1    C8 2826   3.909   6.214   7.376 -0.3607  0.4633  0.2255
   39CHL1    H8 2827   3.847   6.124   7.399 -1.5360  1.2871  0.3308
   39CHL1   C14 2828   4.004   6.252   7.481  0.1646 -0.0569 -0.4692
   39CHL1   H14 2829   4.054   6.346   7.449 -0.4514  0.3052 -0.3745
   39CHL1   C15 2830   4.120   6.167   7.533 -0.0615 -0.2212 -0.3559
   39CHL1  H15A 2831   4.108   6.059   7.510 -0.8727 -0.0408 -0.7830
   39CHL1  H15B 2832   4.216   6.195   7.484  0.5985 -0.5729  0.7325
   39CHL1   C16 2833   4.132   6.199   7.682  0.1026 -0.0332 -0.1305
   39CHL1  H16A 2834   4.097   6.112   7.741  0.4286  0.6971  1.1774
   39CHL1  H16B 2835   4.236   6.204   7.722 -0.2291 -0.8471  0.8371
   39CHL1   C17 2836   4.052   6.323   7.709  0.4172  0.2151  0.0953
   39CHL1   H17 2837   4.108   6.407   7.664  0.3219  0.1413 -0.1643
   39CHL1   C13 2838   3.930   6.299   7.611 -0.2033 -0.0586 -0.3282
   39CHL1   C18 2839   3.849   6.186   7.660 -0.8807 -0.1332 -0.6294
   39CHL1  H18A 2840   3.906   6.098   7.694 -1.2033 -0.4797 -0.9822
   39CHL1  H18B 2841   3.777   6.208   7.742  0.3525 -0.0918  0.4666
   39CHL1  H18C 2842   3.776   6.148   7.585 -1.7837  0.5890 -0.1404
   39CHL1   C12 2843   3.849   6.422   7.582  0.2621  0.6055 -0.8012
   39CHL1  H12A 2844   3.787   6.453   7.668 -0.3524 -1.4991 -0.4588
   39CHL1  H12B 2845   3.921   6.501   7.554  0.9813 -0.4501 -2.0272
   39CHL1   C11 2846   3.758   6.392   7.462  0.4942 -0.7029  0.4381
   39CHL1  H11A 2847   3.685   6.317   7.499 -1.5316  1.2334  0.5208
   39CHL1  H11B 2848   3.703   6.483   7.430  0.0185 -0.1087  2.7841
   39CHL1    C9 2849   3.822   6.324   7.339 -0.2658 -0.7570  0.5444
   39CHL1    H9 2850   3.899   6.394   7.300  0.0502 -0.7948  1.0885
   39CHL1   C10 2851   3.727   6.289   7.225 -0.9304  0.7863 -0.0333
   39CHL1   C19 2852   3.617   6.195   7.279 -0.1261 -0.6948  0.0546
   39CHL1  H19A 2853   3.557   6.250   7.354  2.8551  0.7207  1.5050
   39CHL1  H19B 2854   3.541   6.173   7.201 -0.3005  0.9105 -0.2380
   39CHL1  H19C 2855   3.658   6.103   7.325 -0.0857  0.8839  3.3056
   39CHL1    C1 2856   3.664   6.419   7.172  0.0434 -0.3864  0.5810
   39CHL1   H1A 2857   3.607   6.484   7.243  1.0203 -0.2649  1.2600
   39CHL1   H1B 2858   3.750   6.484   7.147 -1.6358  1.8338  0.3720
   39CHL1    C2 2859   3.574   6.412   7.044 -0.8571  0.7186 -0.9028
   39CHL1   H2A 2860   3.540   6.513   7.014 -1.0945  1.0795  0.5385
   39CHL1   H2B 2861   3.485   6.353   7.075  0.6568 -0.5106  1.2583
   39CHL1   C20 2862   4.033   6.363   7.853  0.2989 -1.2868  0.2707
   39CHL1   H20 2863   3.930   6.403   7.852  0.6876 -0.2598  0.2667
   39CHL1   C21 2864   4.134   6.473   7.882  0.4051  0.0747  0.9343
   39CHL1  H21A 2865   4.112   6.518   7.981  2.6439  3.2299  0.0804
   39CHL1  H21B 2866   4.131   6.553   7.805 -1.0944 -1.7293 -0.9484
   39CHL1  H21C 2867   4.236   6.429   7.874  0.3587  0.3234 -1.3527
   39CHL1   C22 2868   4.047   6.249   7.951  0.8948 -0.0226  0.2011
   39CHL1  H22A 2869   3.980   6.165   7.923  1.5574 -0.4216 -0.1811
   39CHL1  H22B 2870   4.150   6.207   7.955  0.3753 -1.2470  1.1183
   39CHL1   C23 2871   4.028   6.288   8.097  0.3017  0.8417 -0.0596
   39CHL1  H23A 2872   4.030   6.191   8.152  1.9588 -0.0119 -1.5791
   39CHL1  H23B 2873   4.117   6.339   8.137 -1.0611  2.3644  1.0935
   39CHL1   C24 2874   3.898   6.358   8.136 -0.0416 -0.0829 -0.3939
   39CHL1  H24A 2875   3.876   6.451   8.079  1.0949  0.3569 -0.1402
   39CHL1  H24B 2876   3.805   6.298   8.130 -0.4149  0.6029 -1.6005
   39CHL1   C25 2877   3.913   6.412   8.282 -0.5219  0.2253  0.5110
   39CHL1   H25 2878   3.971   6.334   8.337  3.2584  0.4812 -2.8437
   39CHL1   C26 2879   3.990   6.542   8.274 -0.6631 -0.1809  0.7408
   39CHL1  H26A 2880   4.080   6.524   8.211  0.6168  0.0659  2.4720
   39CHL1  H26B 2881   3.943   6.626   8.219 -0.6370 -0.8054 -0.2389
   39CHL1  H26C 2882   4.029   6.568   8.375 -0.0354 -0.6280  0.6202
   39CHL1   C27 2883   3.779   6.426   8.357  0.9114  0.4369 -0.2171
   39CHL1  H27A 2884   3.718   6.498   8.298  2.4737  2.4809  0.6090
   39CHL1  H27B 2885   3.725   6.331   8.376  1.1523  0.1555 -0.9367
   39CHL1  H27C 2886   3.781   6.500   8.440 -1.4956 -0.7603  0.9815
   40CHL1    C3 2887   6.660   5.098   6.974 -0.1185 -0.3991 -0.7384
   40CHL1    H3 2888   6.605   5.003   6.958 -1.2595  0.0461  0.4598
   40CHL1    O3 2889   6.657   5.167   6.852  0.2273 -0.9093  0.8850
   40CHL1   H3' 2890   6.736   5.221   6.846 -0.5421  0.0697 -1.1310
   40CHL1    C4 2891   6.581   5.178   7.077 -0.0701  0.3262 -0.1715
   40CHL1   H4A 2892   6.630   5.277   7.082  1.2596 -0.3998  2.1678
   40CHL1   H4B 2893   6.479   5.191   7.035 -1.0212 -0.5952  1.7327
   40CHL1    C5 2894   6.588   5.109   7.213  0.8591  0.2612 -0.5782
   40CHL1    C6 2895   6.479   5.062   7.275  0.3955  0.7824 -0.5606
   40CHL1    H6 2896   6.380   5.092   7.234  0.3111  2.0869  0.5642
   40CHL1    C7 2897   6.476   4.990   7.408 -0.2637  0.1943  0.0664
   40CHL1   H7A 2898   6.400   5.033   7.477 -0.0271 -1.1657  1.1906
   40CHL1   H7B 2899   6.446   4.884   7.395  0.5792  0.0496 -0.7385
   40CHL1    C8 2900   6.611   4.998   7.484 -0.1587 -0.2491  0.5458
   40CHL1    H8 2901   6.617   5.106   7.511 -1.4715 -0.0728  0.2065
   40CHL1   C14 2902   6.618   4.896   7.599  0.2958 -0.3273  0.2638
   40CHL1   H14 2903   6.609   4.793   7.559 -2.7443 -0.4793  1.1987
   40CHL1   C15 2904   6.506   4.904   7.701 -0.1347  0.6696  0.0936
   40CHL1  H15A 2905   6.487   5.009   7.732  1.0735  0.7600  0.5586
   40CHL1  H15B 2906   6.416   4.854   7.660  1.5758 -1.6782 -0.8980
   40CHL1   C16 2907   6.555   4.821   7.820 -0.4731  0.2493  0.1682
   40CHL1  H16A 2908   6.547   4.881   7.913 -0.6586  0.3456  0.0907
   40CHL1  H16B 2909   6.499   4.725   7.830 -1.3401  0.7657  0.3671
   40CHL1   C17 2910   6.708   4.802   7.790 -0.2862 -0.0611  0.8308
   40CHL1   H17 2911   6.710   4.705   7.735 -0.7544  2.2571 -3.4602
   40CHL1   C13 2912   6.753   4.899   7.674 -0.4564  0.1050 -0.6871
   40CHL1   C18 2913   6.788   5.027   7.743  1.3627  0.3256 -0.0818
   40CHL1  H18A 2914   6.887   5.016   7.792  1.0360  0.2190  0.5533
   40CHL1  H18B 2915   6.786   5.109   7.667 -0.8082  0.5865  0.2175
   40CHL1  H18C 2916   6.714   5.052   7.822 -2.0381  0.1785 -3.0705
   40CHL1   C12 2917   6.853   4.843   7.564 -0.0348  0.1058  0.0795
   40CHL1  H12A 2918   6.953   4.824   7.608 -0.0324  3.6900  1.8064
   40CHL1  H12B 2919   6.822   4.743   7.526 -0.2077 -0.0249  0.5582
   40CHL1   C11 2920   6.868   4.939   7.448 -0.6494  0.3169  1.0261
   40CHL1  H11A 2921   6.925   5.022   7.492  0.0519 -0.3271  1.3354
   40CHL1  H11B 2922   6.936   4.904   7.367 -1.2973 -2.5787  1.6738
   40CHL1    C9 2923   6.727   4.973   7.386  0.0385 -0.1690 -1.2876
   40CHL1    H9 2924   6.696   4.875   7.346 -2.6513 -0.2140  0.7596
   40CHL1   C10 2925   6.724   5.075   7.265 -0.1771 -0.1843  0.6284
   40CHL1   C19 2926   6.793   5.203   7.316 -0.4478 -0.0445 -0.3420
   40CHL1  H19A 2927   6.786   5.290   7.246 -1.0629 -0.7168 -1.1356
   40CHL1  H19B 2928   6.754   5.237   7.414  0.6211 -0.3461  0.1886
   40CHL1  H19C 2929   6.902   5.180   7.318 -0.2251  0.9431 -0.6932
   40CHL1    C1 2930   6.805   5.011   7.154  0.2467 -0.0722  0.4720
   40CHL1   H1A 2931   6.908   4.985   7.186 -0.4904 -0.3217  2.7440
   40CHL1   H1B 2932   6.753   4.915   7.132 -1.4346  0.9495 -0.0858
   40CHL1    C2 2933   6.805   5.078   7.017  0.2270 -0.1125 -0.3277
   40CHL1   H2A 2934   6.859   5.025   6.936 -0.3677 -0.3161 -0.5927
   40CHL1   H2B 2935   6.852   5.179   7.023  1.1251 -0.4998 -0.7506
   40CHL1   C20 2936   6.791   4.779   7.911  0.4908  0.0182 -0.4127
   40CHL1   H20 2937   6.786   4.872   7.971  0.1556  0.2749 -0.8340
   40CHL1   C21 2938   6.940   4.761   7.879 -0.1969  0.1995  0.1514
   40CHL1  H21A 2939   6.994   4.850   7.838  0.1511 -0.4997 -0.9207
   40CHL1  H21B 2940   6.951   4.664   7.826  1.5475  1.8302 -2.6140
   40CHL1  H21C 2941   6.997   4.753   7.974  0.4274  1.2646 -0.1172
   40CHL1   C22 2942   6.742   4.662   7.999 -0.8946 -0.4264  0.4132
   40CHL1  H22A 2943   6.640   4.696   8.027 -0.4896 -0.0463  1.4209
   40CHL1  H22B 2944   6.735   4.571   7.936 -0.2040 -2.8841  3.7638
   40CHL1   C23 2945   6.811   4.646   8.126 -0.1874 -0.2465  0.8857
   40CHL1  H23A 2946   6.901   4.585   8.103  0.2496  1.3824 -1.8701
   40CHL1  H23B 2947   6.827   4.740   8.183 -2.8904  1.8762 -1.7186
   40CHL1   C24 2948   6.724   4.567   8.224  0.4804 -0.5793 -0.4525
   40CHL1  H24A 2949   6.630   4.620   8.250  0.6465  0.5739 -2.0997
   40CHL1  H24B 2950   6.698   4.471   8.175  2.0286 -2.4700  2.2788
   40CHL1   C25 2951   6.796   4.519   8.349 -0.0864  0.0592 -0.5076
   40CHL1   H25 2952   6.836   4.610   8.399  0.3985 -0.8020  0.7036
   40CHL1   C26 2953   6.685   4.458   8.442 -0.3976  0.4427 -0.0197
   40CHL1  H26A 2954   6.609   4.530   8.477  0.3472  1.7508 -1.0713
   40CHL1  H26B 2955   6.634   4.373   8.391 -2.5438  0.4356  2.0760
   40CHL1  H26C 2956   6.730   4.411   8.533  0.6296  1.1729 -0.1416
   40CHL1   C27 2957   6.911   4.416   8.332 -0.4938 -0.7540 -0.6851
   40CHL1  H27A 2958   6.999   4.454   8.276 -0.3100 -3.4276 -2.3004
   40CHL1  H27B 2959   6.957   4.383   8.428 -0.3955  0.4509 -0.3096
   40CHL1  H27C 2960   6.876   4.325   8.280 -1.7123 -0.8106  0.2054
   41CHL1    C3 2961   0.611   4.618   7.074  0.2106  0.7815  0.6971
   41CHL1    H3 2962   0.717   4.641   7.098  1.1635 -1.6099 -0.9932
   41CHL1    O3 2963   0.605   4.639   6.931 -0.1641 -0.6777 -0.0763
   41CHL1   H3' 2964   0.629   4.730   6.912  1.1995 -0.7544  1.2206
   41CHL1    C4 2965   0.575   4.479   7.109  0.0919  0.1118 -0.1093
   41CHL1   H4A 2966   0.470   4.455   7.080  0.0975 -0.5812  0.4275
   41CHL1   H4B 2967   0.632   4.407   7.047 -0.8630 -0.8077  0.0458
   41CHL1    C5 2968   0.584   4.460   7.261 -0.5254  0.4240 -0.3121
   41CHL1    C6 2969   0.670   4.372   7.307  0.6175  0.1242 -0.2393
   41CHL1    H6 2970   0.734   4.312   7.242  0.0775 -0.0370 -0.6198
   41CHL1    C7 2971   0.686   4.348   7.457 -0.1090  0.1136  0.7097
   41CHL1   H7A 2972   0.694   4.239   7.477  0.6754  0.1855  0.7859
   41CHL1   H7B 2973   0.781   4.397   7.487  0.9283 -0.5058 -1.5029
   41CHL1    C8 2974   0.576   4.412   7.540  0.2977  0.3308  0.6407
   41CHL1    H8 2975   0.490   4.346   7.518  0.3782  0.7496 -0.9699
   41CHL1   C14 2976   0.620   4.404   7.687 -0.1072  0.3485 -0.6045
   41CHL1   H14 2977   0.710   4.467   7.704  0.3255 -0.8168  1.5807
   41CHL1   C15 2978   0.668   4.268   7.737 -0.1181  0.1131 -0.7067
   41CHL1  H15A 2979   0.602   4.187   7.703  2.1574 -2.8497  1.6198
   41CHL1  H15B 2980   0.775   4.248   7.715  0.4808 -0.1535  2.2737
   41CHL1   C16 2981   0.652   4.282   7.891 -0.0482 -0.1382  0.4495
   41CHL1  H16A 2982   0.579   4.203   7.919  0.5127 -1.0458 -0.6520
   41CHL1  H16B 2983   0.746   4.267   7.947  0.7301  2.5506 -0.0369
   41CHL1   C17 2984   0.594   4.428   7.915  0.4099 -0.3771  0.0667
   41CHL1   H17 2985   0.670   4.509   7.911  0.4701 -0.4752 -1.0908
   41CHL1   C13 2986   0.517   4.458   7.783 -0.6913  0.2287  0.0558
   41CHL1   C18 2987   0.381   4.376   7.779  0.4286 -0.3267 -0.5028
   41CHL1  H18A 2988   0.404   4.275   7.818  1.3437 -0.3947 -1.1870
   41CHL1  H18B 2989   0.306   4.425   7.844  0.5449 -1.8606  0.8106
   41CHL1  H18C 2990   0.352   4.369   7.672  1.4606 -1.2472 -0.7288
   41CHL1   C12 2991   0.486   4.609   7.749 -0.1494  0.3678  0.0564
   41CHL1  H12A 2992   0.411   4.658   7.814 -3.0618 -3.3757 -0.3388
   41CHL1  H12B 2993   0.585   4.658   7.759 -0.7428  1.3361  1.3527
   41CHL1   C11 2994   0.446   4.624   7.601 -0.1417  0.3596 -0.1589
   41CHL1  H11A 2995   0.340   4.594   7.583 -0.6185  0.9316  1.5479
   41CHL1  H11B 2996   0.461   4.729   7.567  1.9189  1.0430  2.6266
   41CHL1    C9 2997   0.538   4.549   7.493  0.4507 -0.0589 -0.3651
   41CHL1    H9 2998   0.632   4.609   7.497  1.8160 -2.0288 -1.8825
   41CHL1   C10 2999   0.495   4.554   7.347 -0.7545 -0.1287 -0.4798
   41CHL1   C19 3000   0.348   4.505   7.340 -0.5007  0.3805  0.4149
   41CHL1  H19A 3001   0.312   4.470   7.241 -0.0548  0.8510  0.0879
   41CHL1  H19B 3002   0.345   4.415   7.406  0.1182  0.6283  0.7778
   41CHL1  H19C 3003   0.276   4.580   7.378 -0.2230  0.0822  1.5416
   41CHL1    C1 3004   0.522   4.700   7.298  0.3904  0.3063  0.3791
   41CHL1   H1A 3005   0.446   4.755   7.357 -1.6913 -1.0001 -1.0448
   41CHL1   H1B 3006   0.627   4.722   7.327  1.3276 -2.3622 -0.8181
   41CHL1    C2 3007   0.512   4.714   7.147  0.9516  0.3155  0.0701
   41CHL1   H2A 3008   0.537   4.820   7.129  0.9504  0.0489 -1.6714
   41CHL1   H2B 3009   0.407   4.687   7.122  1.2131 -0.8714  0.2213
   41CHL1   C20 3010   0.513   4.433   8.049  0.0597 -1.0800 -0.3449
   41CHL1   H20 3011   0.434   4.356   8.045 -1.3448  0.3357 -0.5962
   41CHL1   C21 3012   0.443   4.569   8.072  0.1001  0.2798 -0.0512
   41CHL1  H21A 3013   0.355   4.577   8.004  0.2652  0.0109 -0.3002
   41CHL1  H21B 3014   0.518   4.650   8.062  1.1498 -0.5267  1.1492
   41CHL1  H21C 3015   0.400   4.580   8.174  1.8961 -0.4603  0.8055
   41CHL1   C22 3016   0.613   4.411   8.170  0.6180  0.7093  0.0574
   41CHL1  H22A 3017   0.548   4.413   8.260 -0.5005 -1.7202 -0.6422
   41CHL1  H22B 3018   0.671   4.316   8.159 -1.4258 -0.5136 -0.4840
   41CHL1   C23 3019   0.726   4.520   8.194  0.6289 -0.7635  0.4117
   41CHL1  H23A 3020   0.795   4.517   8.106 -0.9146 -0.5363 -0.8342
   41CHL1  H23B 3021   0.675   4.617   8.213 -0.7542 -1.5816  0.9234
   41CHL1   C24 3022   0.809   4.493   8.318  0.0209  0.5659  0.5181
   41CHL1  H24A 3023   0.741   4.490   8.406 -0.9683 -2.0752 -0.2903
   41CHL1  H24B 3024   0.847   4.389   8.303  0.3691  0.7209  0.3425
   41CHL1   C25 3025   0.926   4.586   8.355 -0.7263 -0.6432 -0.3188
   41CHL1   H25 3026   1.001   4.601   8.275  0.5770 -0.7922  0.8680
   41CHL1   C26 3027   0.863   4.719   8.404  0.1798 -0.3211  0.1006
   41CHL1  H26A 3028   0.797   4.693   8.490  0.9378 -1.1808  0.4421
   41CHL1  H26B 3029   0.932   4.802   8.429  2.8450 -1.4352 -3.1036
   41CHL1  H26C 3030   0.794   4.762   8.328 -0.0329  0.5396  0.7780
   41CHL1   C27 3031   0.999   4.515   8.470 -0.2558  0.2460 -0.5044
   41CHL1  H27A 3032   1.087   4.578   8.495 -0.1757 -0.3414  0.6898
   41CHL1  H27B 3033   0.940   4.499   8.563  0.5941 -0.7712 -0.1273
   41CHL1  H27C 3034   1.040   4.414   8.449  2.4791  0.7462  2.1443
   42CHL1    C3 3035   2.210   2.351   7.090  0.8132 -0.8812  0.3795
   42CHL1    H3 3036   2.111   2.370   7.138  1.5247 -1.8573  2.3026
   42CHL1    O3 3037   2.205   2.373   6.950  0.1323  0.0541  0.3303
   42CHL1   H3' 3038   2.293   2.376   6.912  0.6656  1.5774  1.6358
   42CHL1    C4 3039   2.311   2.456   7.143 -0.0306  0.5455  0.3461
   42CHL1   H4A 3040   2.408   2.445   7.090 -0.3689 -0.5959 -0.0491
   42CHL1   H4B 3041   2.271   2.557   7.120  0.8644  0.0608 -3.7118
   42CHL1    C5 3042   2.328   2.445   7.296  0.2435  0.2505 -0.9197
   42CHL1    C6 3043   2.298   2.539   7.381 -0.5841 -0.0241  0.4930
   42CHL1    H6 3044   2.275   2.640   7.343 -0.8986 -0.3281 -0.1351
   42CHL1    C7 3045   2.328   2.534   7.527 -0.1958 -0.1571 -0.1754
   42CHL1   H7A 3046   2.392   2.622   7.545 -0.4385  0.3763 -1.8293
   42CHL1   H7B 3047   2.240   2.546   7.594  0.1850  0.8987  0.1308
   42CHL1    C8 3048   2.400   2.395   7.566  0.3275 -0.4577  0.1997
   42CHL1    H8 3049   2.505   2.407   7.533  0.2282 -1.0253 -0.3193
   42CHL1   C14 3050   2.385   2.380   7.720 -0.0599 -0.2488  0.3029
   42CHL1   H14 3051   2.277   2.371   7.743  0.3968 -0.4113  2.4626
   42CHL1   C15 3052   2.432   2.495   7.815 -0.3960 -0.1303  0.4881
   42CHL1  H15A 3053   2.532   2.532   7.783 -0.3320 -0.0883  0.7355
   42CHL1  H15B 3054   2.358   2.577   7.804  0.4062  0.2762 -2.3012
   42CHL1   C16 3055   2.433   2.429   7.954 -0.2675  0.2075  0.1435
   42CHL1  H16A 3056   2.521   2.454   8.016  1.4325  1.5561 -2.7375
   42CHL1  H16B 3057   2.349   2.462   8.020  0.0995  0.9352  0.2461
   42CHL1   C17 3058   2.418   2.272   7.926  0.1977 -0.9051  0.3976
   42CHL1   H17 3059   2.310   2.257   7.945 -0.1203  2.3388  1.5063
   42CHL1   C13 3060   2.450   2.253   7.781  0.2595 -0.2070 -0.4095
   42CHL1   C18 3061   2.600   2.259   7.759  0.0775 -0.2644 -0.7286
   42CHL1  H18A 3062   2.648   2.319   7.840 -0.8327 -1.3312  0.6343
   42CHL1  H18B 3063   2.637   2.156   7.779  0.3417 -0.0705 -0.1959
   42CHL1  H18C 3064   2.642   2.292   7.662 -1.0069 -1.2053 -1.5335
   42CHL1   C12 3065   2.388   2.130   7.710  0.0307  0.0808 -0.0527
   42CHL1  H12A 3066   2.427   2.031   7.741 -0.4468 -0.0223  0.2316
   42CHL1  H12B 3067   2.282   2.137   7.741  0.1999  0.2931  0.4921
   42CHL1   C11 3068   2.409   2.139   7.559 -1.1255 -0.2133  0.6944
   42CHL1  H11A 3069   2.518   2.139   7.537 -1.5779  1.9990 -1.8845
   42CHL1  H11B 3070   2.373   2.049   7.504 -2.8374  2.1962 -2.2528
   42CHL1    C9 3071   2.347   2.270   7.496  0.0561  0.5206 -0.3836
   42CHL1    H9 3072   2.238   2.259   7.513  0.3899 -1.3656  0.6584
   42CHL1   C10 3073   2.373   2.302   7.340 -0.5276  0.3173 -0.0204
   42CHL1   C19 3074   2.523   2.285   7.303  0.8007 -0.6214  0.3519
   42CHL1  H19A 3075   2.556   2.181   7.327 -0.8248 -0.9421  1.2384
   42CHL1  H19B 3076   2.546   2.312   7.198  2.1241  2.2213  1.3166
   42CHL1  H19C 3077   2.588   2.356   7.359 -0.5787  0.5658  0.4555
   42CHL1    C1 3078   2.286   2.189   7.271 -0.4572  0.1593  0.1614
   42CHL1   H1A 3079   2.338   2.092   7.281 -0.0833  0.3307 -0.0790
   42CHL1   H1B 3080   2.189   2.203   7.324  0.1567 -0.7897  1.5541
   42CHL1    C2 3081   2.264   2.210   7.122  0.5787 -0.5263 -0.6045
   42CHL1   H2A 3082   2.180   2.149   7.084 -0.8591 -0.7144  2.6835
   42CHL1   H2B 3083   2.361   2.199   7.069  0.4013  2.0077 -1.4834
   42CHL1   C20 3084   2.493   2.190   8.030  0.2563  0.2671 -0.7074
   42CHL1   H20 3085   2.601   2.215   8.036 -0.0770  1.3113  1.4293
   42CHL1   C21 3086   2.482   2.042   8.004  0.0372 -0.0917 -0.6163
   42CHL1  H21A 3087   2.377   2.005   8.014  0.6772 -1.8016 -0.1441
   42CHL1  H21B 3088   2.537   1.985   8.082  0.3475  1.9912  0.7221
   42CHL1  H21C 3089   2.511   2.017   7.900 -2.8861  1.7931 -1.9593
   42CHL1   C22 3090   2.431   2.223   8.166  0.0355  1.2501 -0.8542
   42CHL1  H22A 3091   2.459   2.326   8.198  0.9841  0.6794  0.2066
   42CHL1  H22B 3092   2.321   2.213   8.156 -0.2356  1.1269  1.8053
   42CHL1   C23 3093   2.482   2.139   8.283 -0.6374  0.4887  0.3489
   42CHL1  H23A 3094   2.450   2.033   8.273  1.5868 -0.0974 -0.9936
   42CHL1  H23B 3095   2.591   2.147   8.264 -0.5412  0.1617  0.7586
   42CHL1   C24 3096   2.444   2.190   8.420 -0.1004  1.1565 -0.5086
   42CHL1  H24A 3097   2.450   2.301   8.424  3.7119  1.0139 -0.5371
   42CHL1  H24B 3098   2.340   2.152   8.429 -0.0867  1.2723  0.1819
   42CHL1   C25 3099   2.528   2.134   8.532  0.0932 -0.1263 -0.3047
   42CHL1   H25 3100   2.633   2.157   8.503  0.8781 -1.3128  1.4465
   42CHL1   C26 3101   2.488   2.186   8.668  0.5650 -0.3464 -0.1647
   42CHL1  H26A 3102   2.517   2.293   8.673  2.8615 -0.9994  1.5221
   42CHL1  H26B 3103   2.379   2.169   8.683  0.0656  2.5264 -0.3715
   42CHL1  H26C 3104   2.544   2.124   8.741 -0.0542 -0.7849 -0.0568
   42CHL1   C27 3105   2.531   1.988   8.540 -0.9942  0.5186  0.1584
   42CHL1  H27A 3106   2.540   1.938   8.442 -0.9444  1.9294 -0.5821
   42CHL1  H27B 3107   2.436   1.954   8.586 -1.8668  2.0372 -0.4900
   42CHL1  H27C 3108   2.623   1.957   8.593 -1.6655 -0.8750  0.5128
   43CHL1    C3 3109   1.645   6.273   6.864  1.1338 -0.0442 -0.1891
   43CHL1    H3 3110   1.568   6.353   6.867  0.1935 -0.7410 -3.4098
   43CHL1    O3 3111   1.696   6.288   6.737  0.0933  0.1340 -0.2006
   43CHL1   H3' 3112   1.716   6.200   6.705  0.7220  1.4933 -3.6903
   43CHL1    C4 3113   1.757   6.298   6.974 -0.0451 -0.0148  0.3080
   43CHL1   H4A 3114   1.850   6.240   6.955 -0.5834 -0.4675 -1.0300
   43CHL1   H4B 3115   1.796   6.401   6.967 -1.1723  0.4829  1.2634
   43CHL1    C5 3116   1.701   6.267   7.117 -0.5397 -0.1727  0.6258
   43CHL1    C6 3117   1.705   6.353   7.222  0.3076 -0.1556  0.7188
   43CHL1    H6 3118   1.757   6.449   7.206 -0.0194  0.4740  3.1206
   43CHL1    C7 3119   1.641   6.323   7.358  0.0357 -0.3275 -0.1538
   43CHL1   H7A 3120   1.704   6.379   7.430 -0.5494 -0.8525  0.7812
   43CHL1   H7B 3121   1.541   6.371   7.367  0.4122  0.7516 -1.5330
   43CHL1    C8 3122   1.641   6.174   7.381 -0.9874  0.2104 -0.4964
   43CHL1    H8 3123   1.748   6.145   7.383 -1.1288 -0.3158 -0.5726
   43CHL1   C14 3124   1.564   6.136   7.504 -0.0521  0.1340 -0.5179
   43CHL1   H14 3125   1.464   6.180   7.485 -0.5247 -0.8033 -0.2390
   43CHL1   C15 3126   1.613   6.192   7.642 -0.0027 -0.1587  0.3626
   43CHL1  H15A 3127   1.723   6.186   7.651 -0.0326  1.7345  2.4977
   43CHL1  H15B 3128   1.587   6.300   7.646 -0.9257 -0.4181  1.5352
   43CHL1   C16 3129   1.546   6.096   7.745 -0.4370 -0.8245  0.3093
   43CHL1  H16A 3130   1.624   6.059   7.814  1.1348 -0.6138 -1.3436
   43CHL1  H16B 3131   1.463   6.146   7.801  0.5049 -2.1096  2.9203
   43CHL1   C17 3132   1.474   5.980   7.667  0.3915  0.3213  0.3327
   43CHL1   H17 3133   1.370   6.006   7.641  0.4199  1.1819  1.0539
   43CHL1   C13 3134   1.545   5.984   7.533 -0.0583  1.1131 -0.0800
   43CHL1   C18 3135   1.687   5.918   7.547  0.7055  0.2081 -0.6372
   43CHL1  H18A 3136   1.667   5.811   7.571  0.8138  0.1268 -0.9067
   43CHL1  H18B 3137   1.741   5.898   7.452 -1.3156 -0.6359 -1.6319
   43CHL1  H18C 3138   1.753   5.967   7.622  0.4160 -0.3197 -0.0289
   43CHL1   C12 3139   1.465   5.924   7.416 -0.4486  0.2394 -0.5716
   43CHL1  H12A 3140   1.440   5.817   7.434  1.1583 -0.4987 -2.5975
   43CHL1  H12B 3141   1.365   5.973   7.426 -1.0578 -0.5461 -2.5306
   43CHL1   C11 3142   1.538   5.950   7.286 -0.1309  0.7321 -0.8586
   43CHL1  H11A 3143   1.628   5.885   7.289 -0.9470 -0.3743  1.0307
   43CHL1  H11B 3144   1.481   5.893   7.210  0.4258 -2.3853  0.9604
   43CHL1    C9 3145   1.575   6.098   7.257  0.3535 -0.4199 -0.1954
   43CHL1    H9 3146   1.478   6.150   7.248 -0.7721 -2.7949 -2.6233
   43CHL1   C10 3147   1.634   6.120   7.120 -0.1632  0.5374  0.1055
   43CHL1   C19 3148   1.738   6.013   7.097  0.0065 -0.2460 -0.2055
   43CHL1  H19A 3149   1.792   6.031   7.002 -1.3065  0.1071 -0.8920
   43CHL1  H19B 3150   1.823   6.022   7.168  2.5020  1.7260 -3.3154
   43CHL1  H19C 3151   1.685   5.916   7.100 -1.0665  0.3459  0.7939
   43CHL1    C1 3152   1.521   6.124   7.018  0.7846  0.3576 -0.3095
   43CHL1   H1A 3153   1.477   6.023   7.036  0.7606  0.3981 -0.1375
   43CHL1   H1B 3154   1.450   6.207   7.038 -0.6963 -1.3073  1.5516
   43CHL1    C2 3155   1.572   6.135   6.872 -0.8892 -0.0891  0.0512
   43CHL1   H2A 3156   1.489   6.136   6.798  0.6792  2.5614 -1.7628
   43CHL1   H2B 3157   1.639   6.051   6.846  0.0339  0.9915 -1.1227
   43CHL1   C20 3158   1.469   5.848   7.758 -0.4019 -0.6072  0.7843
   43CHL1   H20 3159   1.564   5.834   7.815 -0.5343  1.4934  1.5926
   43CHL1   C21 3160   1.431   5.724   7.671  0.0782  0.6925 -0.0620
   43CHL1  H21A 3161   1.508   5.698   7.595  1.9240  0.7515  1.7098
   43CHL1  H21B 3162   1.334   5.741   7.621 -0.2249  2.5191  1.1088
   43CHL1  H21C 3163   1.420   5.633   7.735 -1.1790 -0.5562 -2.0019
   43CHL1   C22 3164   1.360   5.862   7.863  0.0371  0.1450 -0.2797
   43CHL1  H22A 3165   1.366   5.963   7.909 -3.0187 -0.1100  0.7797
   43CHL1  H22B 3166   1.264   5.856   7.809 -0.9824 -1.3861  1.6548
   43CHL1   C23 3167   1.365   5.779   7.997 -0.1843  0.0089  0.3386
   43CHL1  H23A 3168   1.353   5.671   7.974 -2.2912  0.2461  0.2047
   43CHL1  H23B 3169   1.468   5.792   8.034 -0.7837  0.3079  1.9437
   43CHL1   C24 3170   1.265   5.820   8.106  0.2577 -0.0454 -0.0456
   43CHL1  H24A 3171   1.293   5.918   8.152  0.2950  0.5373 -1.2986
   43CHL1  H24B 3172   1.167   5.830   8.055  1.4644  0.8877 -2.2262
   43CHL1   C25 3173   1.249   5.719   8.227 -0.5195 -0.2085 -0.9927
   43CHL1   H25 3174   1.200   5.627   8.188  1.0249 -0.1744 -3.0855
   43CHL1   C26 3175   1.390   5.680   8.272  0.0806 -0.8751  0.2684
   43CHL1  H26A 3176   1.460   5.627   8.203  1.0460  1.2986 -0.4680
   43CHL1  H26B 3177   1.441   5.775   8.298  0.3060 -0.4815 -1.5637
   43CHL1  H26C 3178   1.387   5.625   8.369 -0.2554 -0.3281  0.5663
   43CHL1   C27 3179   1.165   5.770   8.342  0.5917  0.5841  0.0973
   43CHL1  H27A 3180   1.209   5.858   8.394  2.6147 -0.7845  0.7505
   43CHL1  H27B 3181   1.063   5.800   8.309 -0.6660 -0.2170  3.0981
   43CHL1  H27C 3182   1.161   5.694   8.423  2.5754  1.2181  0.8292
   44CHL1    C3 3183   1.882   4.841   6.750  0.0011  0.3835 -0.1127
   44CHL1    H3 3184   1.778   4.867   6.778  0.6552  0.6979  2.1438
   44CHL1    O3 3185   1.890   4.837   6.605  0.6072 -0.5116  0.6884
   44CHL1   H3' 3186   1.863   4.927   6.587 -1.1227 -1.2937 -0.7332
   44CHL1    C4 3187   1.985   4.945   6.803  0.7149  0.5771  0.1631
   44CHL1   H4A 3188   2.075   4.895   6.759 -0.9258 -1.8683 -0.4886
   44CHL1   H4B 3189   1.961   5.040   6.750 -0.9329 -0.7561 -1.5756
   44CHL1    C5 3190   1.984   4.955   6.958  0.0091  0.9639  0.5918
   44CHL1    C6 3191   1.967   5.075   7.019 -0.7956  0.5129  0.5343
   44CHL1    H6 3192   1.962   5.166   6.958 -1.4232 -0.5045 -0.9475
   44CHL1    C7 3193   1.953   5.089   7.166  0.1945 -0.2953  0.2499
   44CHL1   H7A 3194   1.986   5.188   7.205 -0.3832 -0.9939  2.5696
   44CHL1   H7B 3195   1.844   5.098   7.186  0.3344  0.9130  0.5375
   44CHL1    C8 3196   2.004   4.963   7.245  0.3412 -0.0358  0.1364
   44CHL1    H8 3197   2.115   4.968   7.251  0.4403  0.4743 -1.9239
   44CHL1   C14 3198   1.947   4.973   7.384  0.9193 -0.0374  0.2933
   44CHL1   H14 3199   1.837   4.958   7.376  0.9269 -1.9118  3.0423
   44CHL1   C15 3200   1.959   5.108   7.464 -0.4800  0.1869 -0.7701
   44CHL1  H15A 3201   2.061   5.152   7.473 -0.6973  0.2843  1.4157
   44CHL1  H15B 3202   1.887   5.182   7.425 -3.0892 -3.0050 -2.2572
   44CHL1   C16 3203   1.919   5.060   7.605 -0.1510 -0.0676 -0.2787
   44CHL1  H16A 3204   1.999   5.100   7.671 -1.8787  1.9806  0.6729
   44CHL1  H16B 3205   1.823   5.107   7.635  0.6885  1.8792 -0.5776
   44CHL1   C17 3206   1.915   4.903   7.613  0.0449  0.1820 -0.3962
   44CHL1   H17 3207   1.809   4.870   7.605  0.4527 -0.7439 -2.1917
   44CHL1   C13 3208   1.987   4.864   7.481 -0.1310  0.4880  0.3565
   44CHL1   C18 3209   2.147   4.849   7.493 -0.1351  0.4195  0.0218
   44CHL1  H18A 3210   2.194   4.833   7.393 -1.2325  2.4984 -0.8645
   44CHL1  H18B 3211   2.190   4.946   7.525 -1.0037  0.7321  0.2558
   44CHL1  H18C 3212   2.167   4.764   7.562 -1.5374 -1.9806 -2.4203
   44CHL1   C12 3213   1.930   4.728   7.417 -0.1533 -0.1457 -0.3862
   44CHL1  H12A 3214   1.951   4.641   7.483  0.0729  0.0340 -0.2225
   44CHL1  H12B 3215   1.822   4.751   7.426  0.2650  1.2055  1.6164
   44CHL1   C11 3216   1.956   4.712   7.275  0.2375 -0.1064  0.2085
   44CHL1  H11A 3217   2.054   4.661   7.265  0.3363  0.5738 -2.7493
   44CHL1  H11B 3218   1.886   4.635   7.236 -1.6545  0.8732  1.6161
   44CHL1    C9 3219   1.942   4.836   7.187  0.1103  0.1257 -0.6028
   44CHL1    H9 3220   1.831   4.848   7.184  0.2618  2.9903  2.4864
   44CHL1   C10 3221   1.988   4.820   7.039 -0.5392  0.1693  0.3022
   44CHL1   C19 3222   2.138   4.770   7.040 -0.0064  0.3464 -0.1834
   44CHL1  H19A 3223   2.154   4.671   7.088 -0.1261  0.7288  0.6412
   44CHL1  H19B 3224   2.177   4.766   6.936 -0.8579 -2.9347 -0.4434
   44CHL1  H19C 3225   2.210   4.831   7.098 -0.2089  2.0592 -1.7025
   44CHL1    C1 3226   1.890   4.719   6.970  0.5796 -0.0171 -0.6768
   44CHL1   H1A 3227   1.913   4.622   7.018 -0.6767 -0.7636 -1.5530
   44CHL1   H1B 3228   1.785   4.745   6.994  0.1303 -1.2946 -1.2196
   44CHL1    C2 3229   1.904   4.704   6.819 -0.4653  0.0138 -0.4154
   44CHL1   H2A 3230   1.841   4.621   6.780 -1.0911  0.3023 -0.0118
   44CHL1   H2B 3231   2.004   4.667   6.786  0.1233  1.9544 -0.8479
   44CHL1   C20 3232   1.975   4.860   7.749  0.2035  0.1340  0.5979
   44CHL1   H20 3233   2.081   4.895   7.748 -0.9254  3.7192 -0.9971
   44CHL1   C21 3234   1.968   4.703   7.777 -0.2988  0.6514  0.0339
   44CHL1  H21A 3235   1.863   4.669   7.789  0.4307 -1.2273  1.2601
   44CHL1  H21B 3236   2.022   4.686   7.872 -0.9026 -0.9988  0.0973
   44CHL1  H21C 3237   2.005   4.646   7.689 -0.1049 -0.5353  0.8833
   44CHL1   C22 3238   1.905   4.925   7.874 -0.9059  0.0974 -0.5664
   44CHL1  H22A 3239   1.923   5.031   7.847  0.2208 -0.6870 -3.1349
   44CHL1  H22B 3240   1.796   4.909   7.873 -1.2237  2.1764 -1.4206
   44CHL1   C23 3241   1.981   4.896   8.007  0.1421 -0.1374  0.2930
   44CHL1  H23A 3242   1.932   4.810   8.058  0.8462 -0.1357  0.9797
   44CHL1  H23B 3243   2.085   4.862   7.988 -0.1660  0.0753 -1.9052
   44CHL1   C24 3244   1.977   5.014   8.112 -0.6300  0.1391 -0.5464
   44CHL1  H24A 3245   2.051   5.093   8.086 -2.0333  1.7293  0.2384
   44CHL1  H24B 3246   1.877   5.063   8.113 -0.2344  0.9868 -2.1124
   44CHL1   C25 3247   2.014   4.972   8.257  0.8744 -0.3149  0.4772
   44CHL1   H25 3248   2.009   5.074   8.299 -0.4295  0.5759 -1.7514
   44CHL1   C26 3249   1.905   4.887   8.318  0.1901  0.1551 -0.3814
   44CHL1  H26A 3250   1.880   4.802   8.252  0.9346 -0.8788  0.6430
   44CHL1  H26B 3251   1.939   4.848   8.417  0.3442 -0.5663 -0.7226
   44CHL1  H26C 3252   1.812   4.944   8.338  0.8126  0.7355  0.9820
   44CHL1   C27 3253   2.161   4.914   8.267 -0.2561  0.3834  0.3345
   44CHL1  H27A 3254   2.173   4.875   8.370  0.9765 -2.4881 -0.8746
   44CHL1  H27B 3255   2.183   4.826   8.204 -3.7502  1.0452 -1.9949
   44CHL1  H27C 3256   2.231   4.997   8.243 -2.6861  2.3072 -0.4526
   45CHL1    C3 3257   3.402   3.165   6.971 -0.3898  0.6006  0.0826
   45CHL1    H3 3258   3.293   3.148   6.967 -0.0944 -1.3655 -0.3210
   45CHL1    O3 3259   3.442   3.167   6.836 -0.2696 -0.0163 -0.0362
   45CHL1   H3' 3260   3.538   3.165   6.843 -0.1764  1.5663 -0.8101
   45CHL1    C4 3261   3.439   3.296   7.045  0.0608  0.3215  0.1762
   45CHL1   H4A 3262   3.548   3.302   7.027 -0.5466  2.1287 -3.2752
   45CHL1   H4B 3263   3.404   3.387   6.992  0.3245  0.3916  0.1221
   45CHL1    C5 3264   3.403   3.291   7.192 -0.3733 -0.6657 -0.9012
   45CHL1    C6 3265   3.323   3.388   7.251  0.1739 -0.0117  0.4860
   45CHL1    H6 3266   3.298   3.479   7.193  1.2231 -0.0148 -0.0029
   45CHL1    C7 3267   3.281   3.391   7.393  0.1639 -0.0863 -0.5882
   45CHL1   H7A 3268   3.300   3.490   7.438 -1.5179 -0.6731  1.5009
   45CHL1   H7B 3269   3.171   3.370   7.396 -0.1518  1.0297 -3.2396
   45CHL1    C8 3270   3.351   3.286   7.481 -0.5245 -0.1428  0.1149
   45CHL1    H8 3271   3.443   3.335   7.521 -1.6009  0.8977  1.3447
   45CHL1   C14 3272   3.271   3.258   7.606 -0.4367  0.1867 -0.2309
   45CHL1   H14 3273   3.176   3.214   7.570 -0.2152  0.6667 -1.4649
   45CHL1   C15 3274   3.225   3.385   7.680 -0.1059 -0.3294  0.2663
   45CHL1  H15A 3275   3.300   3.467   7.683  0.8695 -1.1902 -0.0687
   45CHL1  H15B 3276   3.136   3.422   7.626  0.0559 -1.9661 -1.1607
   45CHL1   C16 3277   3.194   3.323   7.821  0.3995 -0.0710 -0.2263
   45CHL1  H16A 3278   3.260   3.372   7.896 -0.4743 -0.2689  0.6879
   45CHL1  H16B 3279   3.090   3.342   7.857 -1.0419 -3.3807 -2.3333
   45CHL1   C17 3280   3.233   3.173   7.814  0.3516 -1.2238 -0.7763
   45CHL1   H17 3281   3.143   3.115   7.784 -0.7556  0.2683 -0.3757
   45CHL1   C13 3282   3.340   3.167   7.707 -0.5579 -0.5007 -0.6963
   45CHL1   C18 3283   3.474   3.223   7.762  1.1771  0.7178 -0.1930
   45CHL1  H18A 3284   3.463   3.329   7.791  1.6248  1.6916 -3.3941
   45CHL1  H18B 3285   3.518   3.169   7.849  0.5376 -1.0517 -0.9518
   45CHL1  H18C 3286   3.548   3.224   7.679  2.8922 -2.8449  1.1896
   45CHL1   C12 3287   3.365   3.039   7.634 -0.3640  0.4673 -0.0572
   45CHL1  H12A 3288   3.429   2.968   7.690  0.6060  0.7081 -0.8439
   45CHL1  H12B 3289   3.266   2.998   7.606 -0.4001  1.0905 -0.8862
   45CHL1   C11 3290   3.447   3.052   7.505  0.1136 -0.2119  0.1499
   45CHL1  H11A 3291   3.552   3.082   7.527 -0.4125 -0.3503  3.1034
   45CHL1  H11B 3292   3.462   2.950   7.462 -0.4495 -0.3927  0.3830
   45CHL1    C9 3293   3.381   3.151   7.409  0.2275 -0.3838  0.2942
   45CHL1    H9 3294   3.282   3.103   7.395  0.7463 -2.1115  2.3948
   45CHL1   C10 3295   3.455   3.167   7.267  0.0373  0.0993  0.7044
   45CHL1   C19 3296   3.602   3.201   7.295 -0.1270 -0.0823  0.2934
   45CHL1  H19A 3297   3.621   3.289   7.360  1.2988  0.1051 -0.3779
   45CHL1  H19B 3298   3.653   3.119   7.350  1.2482  0.6527  0.1089
   45CHL1  H19C 3299   3.666   3.213   7.206 -0.3718  0.2936  0.1650
   45CHL1    C1 3300   3.437   3.039   7.189  0.1020  0.4847 -0.0337
   45CHL1   H1A 3301   3.497   2.954   7.228 -2.1263 -1.3213 -0.4310
   45CHL1   H1B 3302   3.329   3.013   7.196 -0.2920  1.9098 -0.7140
   45CHL1    C2 3303   3.475   3.049   7.044 -0.4784  0.4754  0.2891
   45CHL1   H2A 3304   3.449   2.960   6.984  2.1296  0.2268 -0.5402
   45CHL1   H2B 3305   3.585   3.054   7.028 -0.3478  0.7508  1.2821
   45CHL1   C20 3306   3.265   3.116   7.953 -0.0899  0.2446  0.0789
   45CHL1   H20 3307   3.361   3.151   7.995  0.5357 -1.7556  0.3732
   45CHL1   C21 3308   3.276   2.965   7.937 -0.1190 -0.6599 -0.5253
   45CHL1  H21A 3309   3.371   2.937   7.885  1.4411  1.6158  1.0287
   45CHL1  H21B 3310   3.187   2.918   7.889  0.3552 -1.5373 -0.5603
   45CHL1  H21C 3311   3.290   2.917   8.036 -2.4445  1.0145  0.6308
   45CHL1   C22 3312   3.151   3.159   8.055 -0.4688  0.1780  0.6094
   45CHL1  H22A 3313   3.163   3.268   8.068  1.2166 -0.0281  0.8544
   45CHL1  H22B 3314   3.064   3.114   8.002 -0.5093 -0.1016  0.9111
   45CHL1   C23 3315   3.158   3.099   8.198  0.0170 -0.5572  0.0669
   45CHL1  H23A 3316   3.117   2.998   8.178  0.4880 -0.6494 -0.4506
   45CHL1  H23B 3317   3.257   3.096   8.249 -0.5213 -0.1400  1.1324
   45CHL1   C24 3318   3.064   3.168   8.293 -0.1365  0.1707 -0.3725
   45CHL1  H24A 3319   3.111   3.258   8.340 -0.0227 -0.7543  1.3187
   45CHL1  H24B 3320   2.982   3.221   8.240  0.5988  0.6680 -1.0310
   45CHL1   C25 3321   3.012   3.075   8.400  0.3650  0.9774 -0.3306
   45CHL1   H25 3322   3.103   3.020   8.429  0.4088  2.1385  1.8427
   45CHL1   C26 3323   2.961   3.154   8.525  0.6190 -0.1217 -0.5853
   45CHL1  H26A 3324   3.045   3.207   8.576  1.3740 -0.1341 -1.8048
   45CHL1  H26B 3325   2.893   3.235   8.490  1.9227  1.4950  0.5330
   45CHL1  H26C 3326   2.909   3.079   8.589 -2.4514 -0.2412 -3.1389
   45CHL1   C27 3327   2.901   2.974   8.355  0.0881 -0.3993  0.3725
   45CHL1  H27A 3328   2.931   2.934   8.256  0.5413  2.5480 -0.7309
   45CHL1  H27B 3329   2.884   2.890   8.426 -1.0537  0.1426  0.7544
   45CHL1  H27C 3330   2.809   3.034   8.340  0.9535  0.3838 -2.0194
   46CHL1    C3 3331   2.728   4.328   6.775 -0.5979  0.2246 -0.2422
   46CHL1    H3 3332   2.650   4.260   6.816  0.8741 -0.6234  1.1835
   46CHL1    O3 3333   2.697   4.343   6.636  0.0182  0.0073 -0.0067
   46CHL1   H3' 3334   2.753   4.416   6.609 -1.2701  1.5146  1.2423
   46CHL1    C4 3335   2.714   4.461   6.853  0.6283  0.3342 -0.2315
   46CHL1   H4A 3336   2.787   4.536   6.815  2.2221 -0.3811  1.3142
   46CHL1   H4B 3337   2.609   4.494   6.841  0.2202 -0.2398  1.5475
   46CHL1    C5 3338   2.748   4.439   7.002  0.2961 -0.3374 -0.0326
   46CHL1    C6 3339   2.658   4.457   7.096  0.0150 -0.6202  1.2566
   46CHL1    H6 3340   2.556   4.487   7.068  0.5463  0.1495  0.1062
   46CHL1    C7 3341   2.688   4.439   7.240 -0.0381 -0.0646 -0.5156
   46CHL1   H7A 3342   2.633   4.505   7.310 -2.1475 -1.0154 -1.2149
   46CHL1   H7B 3343   2.639   4.341   7.263  1.1575 -0.8097 -1.0888
   46CHL1    C8 3344   2.839   4.432   7.274  0.2457 -0.0508 -0.7126
   46CHL1    H8 3345   2.885   4.530   7.252  1.0815 -0.5023 -0.9927
   46CHL1   C14 3346   2.856   4.394   7.414  0.1512  0.5744  0.1284
   46CHL1   H14 3347   2.829   4.287   7.430  0.4280  0.3824 -0.6711
   46CHL1   C15 3348   2.780   4.483   7.516  0.4857  0.2783  0.3723
   46CHL1  H15A 3349   2.777   4.581   7.463  1.3459 -0.7459 -1.6358
   46CHL1  H15B 3350   2.681   4.435   7.533  1.3204 -0.4883  3.4153
   46CHL1   C16 3351   2.868   4.473   7.640  0.2309 -0.1222 -0.2893
   46CHL1  H16A 3352   2.898   4.575   7.674  0.9932 -0.7546  0.9365
   46CHL1  H16B 3353   2.811   4.421   7.720 -1.0348  1.0661 -0.3886
   46CHL1   C17 3354   2.988   4.383   7.608 -0.2339  0.2231  0.5799
   46CHL1   H17 3355   2.963   4.276   7.630 -0.8543 -0.5476 -3.5198
   46CHL1   C13 3356   3.010   4.400   7.456 -0.7323  0.3705  0.0285
   46CHL1   C18 3357   3.076   4.535   7.430  0.0984  0.0103 -0.3160
   46CHL1  H18A 3358   3.170   4.538   7.487  0.4138  0.5782 -0.8577
   46CHL1  H18B 3359   3.096   4.562   7.324 -0.9287  1.5155 -0.1495
   46CHL1  H18C 3360   3.014   4.618   7.470 -1.3767 -0.3000 -1.8547
   46CHL1   C12 3361   3.078   4.281   7.377  0.2817 -0.7635  0.2692
   46CHL1  H12A 3362   3.187   4.259   7.385 -0.0416 -2.8599 -0.7316
   46CHL1  H12B 3363   3.022   4.190   7.408 -1.0376  0.0857  0.4209
   46CHL1   C11 3364   3.057   4.299   7.223 -0.2919 -0.5688 -0.1622
   46CHL1  H11A 3365   3.123   4.387   7.207 -0.4986 -0.5623 -1.0156
   46CHL1  H11B 3366   3.103   4.211   7.175  1.9032  0.6659 -0.3883
   46CHL1    C9 3367   2.908   4.332   7.181  0.2376 -0.3874  0.4781
   46CHL1    H9 3368   2.859   4.233   7.184 -1.0214  0.1293 -2.4313
   46CHL1   C10 3369   2.893   4.384   7.030 -0.8676 -0.3628  0.1520
   46CHL1   C19 3370   3.001   4.491   7.010  0.1860 -0.4827 -0.1318
   46CHL1  H19A 3371   2.986   4.542   6.912  0.6260 -0.0960  0.0033
   46CHL1  H19B 3372   3.002   4.571   7.087  4.1681  1.5138 -2.1317
   46CHL1  H19C 3373   3.098   4.439   7.002  0.1579 -0.5522 -0.0041
   46CHL1    C1 3374   2.920   4.258   6.934 -0.3197 -0.4751  0.0575
   46CHL1   H1A 3375   3.030   4.241   6.938 -0.5130 -1.6137  0.5705
   46CHL1   H1B 3376   2.869   4.169   6.976  1.0021 -0.4618  1.7888
   46CHL1    C2 3377   2.873   4.281   6.791 -0.4704 -0.3332  0.2913
   46CHL1   H2A 3378   2.873   4.185   6.734 -0.3539  0.3727 -0.9112
   46CHL1   H2B 3379   2.948   4.350   6.746 -0.2208  1.1705  2.9537
   46CHL1   C20 3380   3.109   4.404   7.707  0.3417  0.0749 -0.2321
   46CHL1   H20 3381   3.153   4.506   7.713 -2.5443  1.5247 -2.0097
   46CHL1   C21 3382   3.221   4.301   7.669 -0.0141 -1.0074 -0.2174
   46CHL1  H21A 3383   3.255   4.307   7.564 -1.9234  0.8495 -0.7643
   46CHL1  H21B 3384   3.176   4.200   7.676 -2.4766  0.2159  3.4273
   46CHL1  H21C 3385   3.305   4.314   7.741  0.4435 -1.9387 -0.5791
   46CHL1   C22 3386   3.072   4.373   7.860  0.6873  0.0185 -0.5070
   46CHL1  H22A 3387   3.152   4.411   7.927  0.4920 -0.2858 -0.0976
   46CHL1  H22B 3388   2.978   4.429   7.873 -0.1928 -1.6499  0.6073
   46CHL1   C23 3389   3.054   4.230   7.910 -0.5037 -0.7592  0.3682
   46CHL1  H23A 3390   2.964   4.187   7.861  1.4393 -3.7886 -0.6841
   46CHL1  H23B 3391   3.138   4.167   7.876 -1.0613 -1.2045 -0.2121
   46CHL1   C24 3392   3.054   4.203   8.056  1.5255  0.3959 -0.3176
   46CHL1  H24A 3393   3.002   4.106   8.064 -0.1067  1.1884 -1.0996
   46CHL1  H24B 3394   3.152   4.215   8.107 -0.1210 -0.9160  3.2867
   46CHL1   C25 3395   2.959   4.296   8.147  0.3542 -0.6665 -0.0691
   46CHL1   H25 3396   2.994   4.400   8.127 -1.9313  0.0254 -0.5812
   46CHL1   C26 3397   2.814   4.294   8.102 -0.3630  0.1150 -0.2152
   46CHL1  H26A 3398   2.756   4.344   8.183  1.3901 -2.1146  2.5061
   46CHL1  H26B 3399   2.804   4.338   8.001  0.2362 -1.8226 -1.1352
   46CHL1  H26C 3400   2.767   4.194   8.107  0.3534 -0.2285 -0.2442
   46CHL1   C27 3401   2.961   4.270   8.304 -0.2693 -0.2092 -0.3349
   46CHL1  H27A 3402   3.058   4.300   8.348 -0.2661 -0.1904 -0.3546
   46CHL1  H27B 3403   2.885   4.327   8.360  1.7046  1.3979  0.7590
   46CHL1  H27C 3404   2.944   4.161   8.320 -1.7977 -0.3459 -2.6261
   47CHL1    C3 3405   1.770   4.296   6.644  0.0942  0.3898 -0.4931
   47CHL1    H3 3406   1.763   4.407   6.652  2.2553  0.6568 -2.0335
   47CHL1    O3 3407   1.730   4.261   6.517  0.8101 -0.1251  0.1631
   47CHL1   H3' 3408   1.811   4.255   6.467  0.7496  0.2242  0.0204
   47CHL1    C4 3409   1.909   4.244   6.661 -0.6839  0.2372 -0.3144
   47CHL1   H4A 3410   1.910   4.138   6.628  1.6524 -0.4543  1.7947
   47CHL1   H4B 3411   1.971   4.299   6.588  0.6295  1.8235  1.9142
   47CHL1    C5 3412   1.964   4.255   6.796  0.6726 -0.1879 -0.2549
   47CHL1    C6 3413   2.072   4.335   6.805  0.5980 -0.2851  0.3401
   47CHL1    H6 3414   2.116   4.363   6.708  0.1353  1.8545  0.7119
   47CHL1    C7 3415   2.139   4.375   6.935 -0.2290 -0.4297  0.7916
   47CHL1   H7A 3416   2.250   4.371   6.928 -0.0942  0.5988  1.9561
   47CHL1   H7B 3417   2.128   4.482   6.964 -1.2924  0.0986 -1.4403
   47CHL1    C8 3418   2.091   4.286   7.045  0.1174  0.0432  0.6629
   47CHL1    H8 3419   2.136   4.185   7.032  0.1788  0.0647  0.7085
   47CHL1   C14 3420   2.139   4.346   7.176 -0.4987  0.6533 -0.3063
   47CHL1   H14 3421   2.089   4.445   7.183 -3.1275 -0.6494 -0.3422
   47CHL1   C15 3422   2.288   4.380   7.186 -0.0314  0.7742 -0.3242
   47CHL1  H15A 3423   2.359   4.303   7.148  0.4265 -0.2228  2.4711
   47CHL1  H15B 3424   2.304   4.477   7.134  0.6152 -0.0903 -1.7854
   47CHL1   C16 3425   2.314   4.379   7.336  0.1205 -0.2706  0.2017
   47CHL1  H16A 3426   2.388   4.300   7.358 -0.0633 -0.3438  0.5745
   47CHL1  H16B 3427   2.340   4.483   7.367 -0.1230 -0.3031  0.5261
   47CHL1   C17 3428   2.179   4.351   7.408  0.5389  0.3252  0.6498
   47CHL1   H17 3429   2.129   4.448   7.428  0.2682  0.0222  1.4745
   47CHL1   C13 3430   2.098   4.273   7.306 -0.3409 -0.5252  0.7573
   47CHL1   C18 3431   2.145   4.121   7.309  0.4374 -0.4067  0.3432
   47CHL1  H18A 3432   2.108   4.072   7.401  0.7245 -1.8725 -0.3119
   47CHL1  H18B 3433   2.092   4.074   7.224 -2.9148  0.0608  2.1019
   47CHL1  H18C 3434   2.256   4.114   7.301  0.1951 -2.3321 -1.7379
   47CHL1   C12 3435   1.945   4.280   7.312 -0.6959  0.3069  0.2047
   47CHL1  H12A 3436   1.903   4.230   7.402  1.5681 -0.3505  0.9085
   47CHL1  H12B 3437   1.918   4.387   7.309  3.1951  1.3821  1.0840
   47CHL1   C11 3438   1.884   4.213   7.188  0.0604 -0.7049 -0.6969
   47CHL1  H11A 3439   1.902   4.103   7.188  2.3085 -0.3647 -0.2606
   47CHL1  H11B 3440   1.774   4.225   7.193  0.1323 -0.5538  1.2072
   47CHL1    C9 3441   1.939   4.273   7.051  1.6500 -0.1089  0.2275
   47CHL1    H9 3442   1.901   4.377   7.060 -0.8839 -0.8649 -1.4213
   47CHL1   C10 3443   1.882   4.214   6.916  0.3164 -0.0261  0.0597
   47CHL1   C19 3444   1.889   4.056   6.929 -0.2490 -0.1248  0.6623
   47CHL1  H19A 3445   1.859   4.020   6.828 -0.8742  3.5992 -0.5366
   47CHL1  H19B 3446   1.997   4.044   6.949  0.1271  0.5656 -0.9458
   47CHL1  H19C 3447   1.820   4.017   7.007  1.1312 -0.1351  1.8890
   47CHL1    C1 3448   1.733   4.261   6.891 -0.8433  0.6849  0.2685
   47CHL1   H1A 3449   1.664   4.209   6.961 -1.1995 -1.8876 -1.8815
   47CHL1   H1B 3450   1.730   4.366   6.927  1.7089  1.2796 -1.1505
   47CHL1    C2 3451   1.675   4.238   6.743 -0.1817 -0.8625  0.6576
   47CHL1   H2A 3452   1.576   4.290   6.742  0.2329 -0.0666  0.0886
   47CHL1   H2B 3453   1.646   4.134   6.720 -1.6962 -0.3856  0.3517
   47CHL1   C20 3454   2.210   4.289   7.546  0.2865  0.5987  0.1160
   47CHL1   H20 3455   2.246   4.186   7.524  1.1406  1.3315 -2.0845
   47CHL1   C21 3456   2.078   4.288   7.624  0.3113 -0.4005  0.0219
   47CHL1  H21A 3457   2.030   4.387   7.610 -1.4543 -0.9735  1.6937
   47CHL1  H21B 3458   2.093   4.269   7.733  1.0683  0.7574  0.1164
   47CHL1  H21C 3459   2.009   4.207   7.590 -0.6761  0.2268  0.5005
   47CHL1   C22 3460   2.318   4.353   7.628  0.1192  0.0544 -0.1411
   47CHL1  H22A 3461   2.321   4.304   7.728 -2.5560  1.4671  0.6884
   47CHL1  H22B 3462   2.416   4.342   7.578  1.0938 -1.9966  2.1186
   47CHL1   C23 3463   2.310   4.507   7.643  0.6579 -0.5052  0.1331
   47CHL1  H23A 3464   2.313   4.560   7.546 -0.3183 -0.8759 -0.1018
   47CHL1  H23B 3465   2.212   4.524   7.692  2.2618  1.6813  2.7263
   47CHL1   C24 3466   2.414   4.579   7.732 -0.4327 -0.0994 -0.6498
   47CHL1  H24A 3467   2.517   4.563   7.692 -0.0118 -1.3314  0.8837
   47CHL1  H24B 3468   2.397   4.687   7.710 -0.8557 -0.7780 -3.9521
   47CHL1   C25 3469   2.415   4.541   7.877 -0.3667  0.1412 -0.9909
   47CHL1   H25 3470   2.426   4.431   7.883 -0.1193  0.2572  0.8836
   47CHL1   C26 3471   2.534   4.595   7.961 -0.0532  0.0940  0.3411
   47CHL1  H26A 3472   2.535   4.705   7.975  0.7149  0.2592 -0.9686
   47CHL1  H26B 3473   2.534   4.537   8.056 -1.0359 -1.3629 -0.5247
   47CHL1  H26C 3474   2.625   4.570   7.904 -0.5130  0.9229 -0.7812
   47CHL1   C27 3475   2.281   4.566   7.949 -0.2022 -0.1012  0.0224
   47CHL1  H27A 3476   2.220   4.650   7.909 -2.3538 -1.7156 -0.2007
   47CHL1  H27B 3477   2.220   4.474   7.939  0.3272 -0.6625  1.8400
   47CHL1  H27C 3478   2.295   4.580   8.058 -0.9268 -1.2243  0.2576
   48CHL1    C3 3479   4.569   0.038   6.425  0.0832  0.0266 -0.0325
   48CHL1    H3 3480   4.466   0.062   6.459  0.2069 -0.9640  1.0605
   48CHL1    O3 3481   4.568   0.046   6.286  0.4572 -0.0918 -0.3994
   48CHL1   H3' 3482   4.520   0.125   6.261 -0.8456 -0.9687 -0.7273
   48CHL1    C4 3483   4.652   0.146   6.496 -0.3063 -0.3759  0.6444
   48CHL1   H4A 3484   4.752   0.173   6.455 -0.8507  2.4510  1.0873
   48CHL1   H4B 3485   4.594   0.239   6.478 -0.3616 -0.4393  0.4957
   48CHL1    C5 3486   4.658   0.121   6.643 -0.0494 -0.2589 -0.6992
   48CHL1    C6 3487   4.622   0.217   6.732  0.1598 -0.2132  0.2153
   48CHL1    H6 3488   4.578   0.314   6.705  1.9822  0.7641  0.6910
   48CHL1    C7 3489   4.629   0.206   6.886 -0.5081  0.5871  0.4848
   48CHL1   H7A 3490   4.648   0.300   6.942 -3.2001  1.2739  0.3185
   48CHL1   H7B 3491   4.528   0.169   6.915  0.1243 -1.2089  0.4566
   48CHL1    C8 3492   4.723   0.090   6.921 -0.1870 -0.3766  0.1441
   48CHL1    H8 3493   4.825   0.122   6.895  0.0905 -1.0192  0.4142
   48CHL1   C14 3494   4.708   0.063   7.072 -0.1982  0.5675  0.8234
   48CHL1   H14 3495   4.601   0.039   7.093 -0.2667  1.1461  1.1676
   48CHL1   C15 3496   4.727   0.177   7.169 -0.1307 -0.1428  0.7756
   48CHL1  H15A 3497   4.828   0.216   7.146  0.6270 -0.2414  3.8351
   48CHL1  H15B 3498   4.654   0.261   7.163  0.5281  0.3299 -0.9950
   48CHL1   C16 3499   4.750   0.109   7.308  0.1440  0.0903 -0.0210
   48CHL1  H16A 3500   4.853   0.135   7.339 -0.0041  1.5299 -0.7288
   48CHL1  H16B 3501   4.680   0.153   7.382 -0.4211 -0.8089 -0.0103
   48CHL1   C17 3502   4.746  -0.047   7.276  0.1998 -0.1666  0.1241
   48CHL1   H17 3503   4.637  -0.070   7.270 -0.0413  0.5463  1.6182
   48CHL1   C13 3504   4.783  -0.057   7.127  0.1471  0.8813 -0.0586
   48CHL1   C18 3505   4.932  -0.051   7.110  0.1297 -0.6512 -0.2794
   48CHL1  H18A 3506   4.948  -0.032   7.001  0.0170  0.1760 -0.1601
   48CHL1  H18B 3507   4.975   0.035   7.167  0.2500  0.0799 -1.4464
   48CHL1  H18C 3508   4.978  -0.143   7.150 -1.2837 -1.3118 -0.1847
   48CHL1   C12 3509   4.727  -0.182   7.043 -0.5614  0.3888  0.0110
   48CHL1  H12A 3510   4.780  -0.277   7.066 -0.7612  0.3109  0.1598
   48CHL1  H12B 3511   4.620  -0.200   7.067 -0.9003  3.1259  0.7000
   48CHL1   C11 3512   4.740  -0.169   6.902  0.2768  0.0836  0.4881
   48CHL1  H11A 3513   4.849  -0.160   6.880  0.7710  0.1848  2.8632
   48CHL1  H11B 3514   4.692  -0.253   6.847  0.6194 -0.8734  1.6446
   48CHL1    C9 3515   4.681  -0.034   6.843 -0.4353  0.0264  0.1077
   48CHL1    H9 3516   4.572  -0.040   6.863 -0.3500  1.3058  0.9968
   48CHL1   C10 3517   4.700  -0.020   6.686 -0.4850 -0.5643  0.1377
   48CHL1   C19 3518   4.852  -0.039   6.657  0.1183  0.0454 -0.2071
   48CHL1  H19A 3519   4.915   0.013   6.732 -1.8661  0.3200  1.3075
   48CHL1  H19B 3520   4.865  -0.149   6.653  1.6451  0.2462 -1.1848
   48CHL1  H19C 3521   4.884   0.002   6.559  1.9840 -0.1389  0.3132
   48CHL1    C1 3522   4.615  -0.123   6.615 -0.6787 -0.7717 -0.1892
   48CHL1   H1A 3523   4.648  -0.226   6.642 -0.4730 -0.7357 -0.3011
   48CHL1   H1B 3524   4.513  -0.106   6.655 -0.7616 -2.9639  0.5915
   48CHL1    C2 3525   4.613  -0.103   6.460 -0.0643  0.1910 -0.0872
   48CHL1   H2A 3526   4.555  -0.177   6.401  0.5328 -1.0450  0.8495
   48CHL1   H2B 3527   4.715  -0.123   6.420  0.0453  3.2309 -1.4699
   48CHL1   C20 3528   4.824  -0.135   7.374 -0.0875 -0.5943  0.3506
   48CHL1   H20 3529   4.934  -0.122   7.369  0.0358 -1.4420  0.8052
   48CHL1   C21 3530   4.794  -0.276   7.350 -0.3488 -0.2957 -0.1261
   48CHL1  H21A 3531   4.685  -0.292   7.335 -0.4385  2.8348 -3.6544
   48CHL1  H21B 3532   4.842  -0.349   7.418 -0.2796 -0.9081 -0.8197
   48CHL1  H21C 3533   4.835  -0.298   7.249 -1.2684  2.4095 -1.1499
   48CHL1   C22 3534   4.792  -0.104   7.532  0.6696 -0.3352 -0.0855
   48CHL1  H22A 3535   4.756   0.001   7.538  1.3666 -0.1309  0.5908
   48CHL1  H22B 3536   4.715  -0.180   7.555 -1.5020  1.4923 -1.1118
   48CHL1   C23 3537   4.918  -0.108   7.625  0.4081  0.1590  0.1027
   48CHL1  H23A 3538   4.965  -0.201   7.586 -2.4500 -1.1210 -0.4594
   48CHL1  H23B 3539   4.991  -0.025   7.617  0.5924 -0.0733 -0.6630
   48CHL1   C24 3540   4.893  -0.119   7.774 -0.1885  0.0398 -0.1823
   48CHL1  H24A 3541   4.835  -0.030   7.807 -1.4599 -0.3723 -1.2700
   48CHL1  H24B 3542   4.829  -0.206   7.800 -1.2993  0.3155 -1.9300
   48CHL1   C25 3543   5.017  -0.129   7.861 -0.4442  0.3397  0.3937
   48CHL1   H25 3544   5.077  -0.037   7.844  1.4057 -0.6991  1.1521
   48CHL1   C26 3545   4.968  -0.136   8.010  0.4704 -0.3344 -0.8177
   48CHL1  H26A 3546   4.870  -0.188   8.008  0.3215  0.0010 -4.0307
   48CHL1  H26B 3547   5.043  -0.189   8.072  0.5944 -0.4748 -1.0875
   48CHL1  H26C 3548   4.953  -0.032   8.049  0.0176 -0.9219  0.6148
   48CHL1   C27 3549   5.088  -0.269   7.831  0.0117  0.4232 -0.5602
   48CHL1  H27A 3550   5.129  -0.275   7.728 -0.5149 -0.0948 -0.7422
   48CHL1  H27B 3551   5.167  -0.287   7.907  0.0994  1.2616 -0.4416
   48CHL1  H27C 3552   5.011  -0.349   7.840  1.1236 -0.4638  1.4121
   49CHL1    C3 3553   4.313   1.422   6.654  0.2546 -0.2054 -0.0165
   49CHL1    H3 3554   4.241   1.342   6.629  0.6741 -0.9241  1.0409
   49CHL1    O3 3555   4.365   1.477   6.530  0.5978  0.0614 -0.3488
   49CHL1   H3' 3556   4.363   1.571   6.549  1.5381  0.3246 -1.4982
   49CHL1    C4 3557   4.239   1.532   6.733 -0.0214 -0.2073  0.4063
   49CHL1   H4A 3558   4.297   1.626   6.743 -0.9186  0.7812 -2.7966
   49CHL1   H4B 3559   4.140   1.547   6.684  0.1242 -2.5135 -0.6583
   49CHL1    C5 3560   4.208   1.485   6.874  0.4393 -0.2687 -0.5679
   49CHL1    C6 3561   4.089   1.482   6.929  0.2029  0.0580  0.4554
   49CHL1    H6 3562   4.001   1.513   6.872 -2.2184 -2.9311  2.3814
   49CHL1    C7 3563   4.058   1.446   7.073  0.9779 -0.0924 -0.1385
   49CHL1   H7A 3564   3.971   1.507   7.105 -0.8618 -2.3670 -0.6170
   49CHL1   H7B 3565   4.007   1.348   7.057 -1.0160  0.5994  1.7723
   49CHL1    C8 3566   4.180   1.437   7.164  0.5991 -0.5225  0.4415
   49CHL1    H8 3567   4.217   1.541   7.182  2.1485 -1.2676  1.6964
   49CHL1   C14 3568   4.138   1.367   7.288  0.6943 -0.5317  0.2375
   49CHL1   H14 3569   4.112   1.263   7.257 -0.9786  0.2158 -0.9404
   49CHL1   C15 3570   4.012   1.420   7.368 -0.8422  0.1048  0.9910
   49CHL1  H15A 3571   4.003   1.531   7.374  1.1757  0.4825 -1.9066
   49CHL1  H15B 3572   3.913   1.386   7.330 -0.0683 -1.0551 -0.0222
   49CHL1   C16 3573   4.041   1.366   7.512 -0.4465  0.1373 -0.4430
   49CHL1  H16A 3574   4.047   1.453   7.581 -1.8655  0.4070 -0.6532
   49CHL1  H16B 3575   3.956   1.303   7.545 -1.1397  1.7385  0.9174
   49CHL1   C17 3576   4.178   1.285   7.507 -0.2460  0.2652 -0.3701
   49CHL1   H17 3577   4.139   1.184   7.482 -0.9196  0.5592 -0.5063
   49CHL1   C13 3578   4.258   1.350   7.389 -0.0996 -0.0759  0.3261
   49CHL1   C18 3579   4.318   1.486   7.431 -0.0313  0.5453 -0.2251
   49CHL1  H18A 3580   4.234   1.549   7.467 -0.9625 -2.1047  2.4437
   49CHL1  H18B 3581   4.390   1.470   7.514 -2.2638  0.0518  1.6666
   49CHL1  H18C 3582   4.365   1.539   7.345 -2.1904 -0.7201 -2.2530
   49CHL1   C12 3583   4.367   1.271   7.326 -0.1648 -0.3224  0.3661
   49CHL1  H12A 3584   4.459   1.266   7.390  0.8275  3.1161 -0.6975
   49CHL1  H12B 3585   4.337   1.165   7.316  1.1583 -0.4776 -2.2174
   49CHL1   C11 3586   4.408   1.323   7.185  0.0747 -0.3755  0.0069
   49CHL1  H11A 3587   4.465   1.416   7.205 -0.3556 -0.3233  1.0696
   49CHL1  H11B 3588   4.480   1.246   7.150  1.7206  0.6474  1.0822
   49CHL1    C9 3589   4.284   1.351   7.096  0.8049  0.6235 -0.4590
   49CHL1    H9 3590   4.244   1.248   7.077  4.1324 -0.5561 -1.3067
   49CHL1   C10 3591   4.321   1.422   6.956  0.1277 -0.0869 -0.2413
   49CHL1   C19 3592   4.420   1.537   6.987  0.3394 -0.8423  0.7488
   49CHL1  H19A 3593   4.518   1.489   7.006 -0.0710 -1.4240  1.4145
   49CHL1  H19B 3594   4.426   1.601   6.896 -0.9270  2.4100  2.8661
   49CHL1  H19C 3595   4.393   1.600   7.074  3.3543 -2.2297  2.7775
   49CHL1    C1 3596   4.389   1.312   6.870  0.0513  0.2765 -0.0925
   49CHL1   H1A 3597   4.479   1.276   6.925 -0.0965  0.2253  0.1209
   49CHL1   H1B 3598   4.328   1.221   6.855  0.4521  0.0109 -0.1246
   49CHL1    C2 3599   4.434   1.360   6.731 -0.4017 -0.1147  0.1449
   49CHL1   H2A 3600   4.462   1.274   6.668 -0.7296 -0.2572  0.1889
   49CHL1   H2B 3601   4.522   1.427   6.734 -0.8365  0.4766 -0.2001
   49CHL1   C20 3602   4.245   1.278   7.645 -0.6238  0.4718 -0.0096
   49CHL1   H20 3603   4.259   1.384   7.675  2.9449 -0.5551  2.2202
   49CHL1   C21 3604   4.385   1.220   7.643  0.0904  0.1640  0.2884
   49CHL1  H21A 3605   4.387   1.129   7.580  1.8436 -0.2515  0.9175
   49CHL1  H21B 3606   4.436   1.200   7.740  0.2085 -2.2694 -0.2459
   49CHL1  H21C 3607   4.448   1.295   7.590  0.1010  0.3376  0.5448
   49CHL1   C22 3608   4.149   1.200   7.742  0.2780 -0.2212  0.2104
   49CHL1  H22A 3609   4.046   1.242   7.744  0.8785  1.3301 -0.5556
   49CHL1  H22B 3610   4.143   1.100   7.694 -0.5743 -0.6157  1.1101
   49CHL1   C23 3611   4.221   1.185   7.882  0.1869 -0.5060  0.2685
   49CHL1  H23A 3612   4.297   1.104   7.892 -0.0956 -0.5235  2.4716
   49CHL1  H23B 3613   4.275   1.278   7.910 -0.8151 -0.2230  1.2959
   49CHL1   C24 3614   4.128   1.174   8.000  0.7045 -0.3176 -0.2021
   49CHL1  H24A 3615   4.036   1.234   7.981 -0.2968 -0.7123  3.1133
   49CHL1  H24B 3616   4.087   1.073   8.020  1.9006 -0.4160  1.7967
   49CHL1   C25 3617   4.172   1.209   8.144  0.1563  0.3798 -0.1560
   49CHL1   H25 3618   4.208   1.315   8.142 -0.1566  0.5511  1.9085
   49CHL1   C26 3619   4.059   1.199   8.251 -0.3860 -0.3291  0.1874
   49CHL1  H26A 3620   3.957   1.236   8.228 -0.2225  1.6651  2.4975
   49CHL1  H26B 3621   4.049   1.090   8.272 -0.3891 -0.2473  0.6049
   49CHL1  H26C 3622   4.091   1.251   8.344  1.4173 -1.3050  0.1345
   49CHL1   C27 3623   4.286   1.118   8.188 -0.5144 -0.4027  0.0389
   49CHL1  H27A 3624   4.326   1.139   8.290 -0.4251 -2.2693  0.3978
   49CHL1  H27B 3625   4.261   1.012   8.171 -0.3737 -0.1810 -1.6272
   49CHL1  H27C 3626   4.378   1.139   8.129  0.9173 -0.3697  2.2077
   50CHL1    C3 3627   5.379   2.355   6.805  0.5480 -0.1392  0.9616
   50CHL1    H3 3628   5.398   2.459   6.839  0.6775 -0.0552  0.6303
   50CHL1    O3 3629   5.430   2.348   6.675 -0.3676  0.3246 -0.4674
   50CHL1   H3' 3630   5.372   2.409   6.627 -0.6171  1.1895  0.9125
   50CHL1    C4 3631   5.455   2.264   6.900  0.0262 -0.7730  0.3195
   50CHL1   H4A 3632   5.449   2.166   6.849  3.0261 -1.0536  0.4368
   50CHL1   H4B 3633   5.563   2.290   6.899 -0.3293  0.8868  1.3199
   50CHL1    C5 3634   5.407   2.269   7.046 -0.2185  0.9370  0.3744
   50CHL1    C6 3635   5.493   2.302   7.148  0.3013  0.3349  0.5235
   50CHL1    H6 3636   5.602   2.310   7.132  0.1029  2.1295 -0.1625
   50CHL1    C7 3637   5.449   2.298   7.294  0.0667  0.7129  0.6181
   50CHL1   H7A 3638   5.522   2.245   7.360  0.7433  2.8019  1.5835
   50CHL1   H7B 3639   5.439   2.403   7.328 -1.2429  0.7953  0.0030
   50CHL1    C8 3640   5.307   2.231   7.312  0.3294 -0.4173 -0.5310
   50CHL1    H8 3641   5.319   2.121   7.300  0.2381 -0.4992  0.1027
   50CHL1   C14 3642   5.242   2.248   7.451  0.4720 -0.1635 -0.2352
   50CHL1   H14 3643   5.221   2.357   7.450 -0.1345 -0.2804 -0.2031
   50CHL1   C15 3644   5.333   2.210   7.565  0.1938 -0.5792  0.0856
   50CHL1  H15A 3645   5.388   2.115   7.548  0.9072 -0.4545  1.5942
   50CHL1  H15B 3646   5.410   2.289   7.581 -0.5094  0.3736 -1.1018
   50CHL1   C16 3647   5.247   2.210   7.682 -0.2254  0.0949  0.3947
   50CHL1  H16A 3648   5.264   2.121   7.747 -0.1793 -0.6565 -0.6282
   50CHL1  H16B 3649   5.269   2.297   7.748  2.2496 -1.1352  1.2727
   50CHL1   C17 3650   5.098   2.207   7.624  0.2624  0.6882  1.0016
   50CHL1   H17 3651   5.064   2.313   7.630 -2.9878 -0.2799  0.6425
   50CHL1   C13 3652   5.112   2.171   7.474 -0.5326  0.9187  0.3467
   50CHL1   C18 3653   5.134   2.014   7.464 -0.5725 -0.4045 -0.0879
   50CHL1  H18A 3654   5.173   1.972   7.369 -2.6381  0.1524 -1.2143
   50CHL1  H18B 3655   5.205   1.982   7.544  0.7576  2.0091 -0.2375
   50CHL1  H18C 3656   5.041   1.964   7.496  0.2765 -3.3186 -1.9655
   50CHL1   C12 3657   5.009   2.214   7.370 -0.0393 -0.3602 -0.0504
   50CHL1  H12A 3658   4.923   2.143   7.372  0.0776 -0.4523  1.9167
   50CHL1  H12B 3659   4.969   2.315   7.392  2.0499  0.4399  0.2031
   50CHL1   C11 3660   5.057   2.207   7.225  0.8011 -0.2149 -1.0374
   50CHL1  H11A 3661   5.045   2.100   7.196 -0.9192 -0.9037  2.0503
   50CHL1  H11B 3662   4.975   2.255   7.167 -0.7890 -0.5230  0.9263
   50CHL1    C9 3663   5.205   2.269   7.202 -0.4821  0.7411  0.4833
   50CHL1    H9 3664   5.197   2.380   7.211 -0.5226  0.6138  2.1685
   50CHL1   C10 3665   5.259   2.235   7.057 -0.0325  0.0612  0.2916
   50CHL1   C19 3666   5.241   2.087   7.026 -0.0813  0.2498 -0.2524
   50CHL1  H19A 3667   5.292   2.061   6.930 -0.6523  1.1649 -0.8019
   50CHL1  H19B 3668   5.288   2.028   7.108 -3.6509 -2.7601 -0.2603
   50CHL1  H19C 3669   5.132   2.073   7.011  0.0276  0.1439 -0.9880
   50CHL1    C1 3670   5.177   2.318   6.948  0.3304 -0.6752 -0.7173
   50CHL1   H1A 3671   5.080   2.268   6.926 -0.3236  0.4703 -0.4971
   50CHL1   H1B 3672   5.153   2.421   6.981 -0.2571 -0.7027 -1.0490
   50CHL1    C2 3673   5.236   2.317   6.802 -1.2629 -0.1716 -0.3009
   50CHL1   H2A 3674   5.185   2.375   6.722 -1.1678  1.1543  0.5813
   50CHL1   H2B 3675   5.232   2.217   6.753 -0.4381  0.2003 -1.1258
   50CHL1   C20 3676   5.001   2.129   7.709  0.0871  0.5668 -0.1197
   50CHL1   H20 3677   5.007   2.018   7.706 -0.9831  0.5032 -0.3172
   50CHL1   C21 3678   4.859   2.163   7.658 -0.4176  0.4574  0.2512
   50CHL1  H21A 3679   4.834   2.271   7.670  1.2145  0.8470  0.1940
   50CHL1  H21B 3680   4.783   2.095   7.703  0.2670 -1.0117 -0.7925
   50CHL1  H21C 3681   4.847   2.146   7.549  0.5951 -1.1166  0.3643
   50CHL1   C22 3682   5.024   2.170   7.860  0.1990 -0.3269 -0.2249
   50CHL1  H22A 3683   5.122   2.134   7.896 -0.3545  0.6400  2.3250
   50CHL1  H22B 3684   5.041   2.279   7.870  0.8854 -0.5821  1.4329
   50CHL1   C23 3685   4.915   2.134   7.967  0.3511 -0.2663  0.2445
   50CHL1  H23A 3686   4.835   2.212   7.960  1.0238  0.7885  3.6786
   50CHL1  H23B 3687   4.869   2.037   7.942 -0.1619 -1.0400  4.0338
   50CHL1   C24 3688   4.971   2.136   8.108  0.4046 -0.1410 -0.0743
   50CHL1  H24A 3689   5.045   2.053   8.117  0.4194 -0.2313 -0.9479
   50CHL1  H24B 3690   5.024   2.231   8.131  0.9560 -0.2874 -0.6978
   50CHL1   C25 3691   4.871   2.122   8.220  0.1743 -0.2218 -0.2849
   50CHL1   H25 3692   4.810   2.031   8.203 -0.9400  0.7757 -1.8319
   50CHL1   C26 3693   4.939   2.098   8.353 -0.0185  0.0624 -0.5788
   50CHL1  H26A 3694   5.029   2.035   8.338  0.8739  0.8845  1.1009
   50CHL1  H26B 3695   4.976   2.185   8.412  0.0526 -1.0533  1.0734
   50CHL1  H26C 3696   4.869   2.040   8.417  0.6678  1.1008  1.1344
   50CHL1   C27 3697   4.780   2.248   8.229 -0.2785 -0.0379  0.2134
   50CHL1  H27A 3698   4.730   2.261   8.327  0.2125  0.9556  0.3417
   50CHL1  H27B 3699   4.816   2.351   8.207 -3.1392  0.7505 -1.0289
   50CHL1  H27C 3700   4.694   2.238   8.160 -0.2380  0.0406  0.1524
   51CHL1    C3 3701   4.843   1.299   6.811 -0.1490  0.5878  0.6029
   51CHL1    H3 3702   4.747   1.246   6.831  0.0063  0.0382 -0.1100
   51CHL1    O3 3703   4.828   1.362   6.688 -0.0049  0.4164  0.2193
   51CHL1   H3' 3704   4.802   1.297   6.622  0.6487 -0.2768  0.6448
   51CHL1    C4 3705   4.860   1.417   6.919  0.0081  0.3808 -0.2245
   51CHL1   H4A 3706   4.950   1.476   6.894  0.6496 -0.7096 -0.5130
   51CHL1   H4B 3707   4.766   1.475   6.907  0.5970  1.2765 -0.4939
   51CHL1    C5 3708   4.878   1.355   7.056  0.6108  0.0434 -1.2562
   51CHL1    C6 3709   4.800   1.391   7.159 -0.0385  0.0578 -0.0285
   51CHL1    H6 3710   4.719   1.458   7.128  0.3912  0.2785 -0.6726
   51CHL1    C7 3711   4.822   1.331   7.300 -0.1725  0.7200 -0.3692
   51CHL1   H7A 3712   4.807   1.407   7.379 -0.9445 -1.4650  1.6483
   51CHL1   H7B 3713   4.741   1.256   7.314 -0.5864  0.8519 -1.9026
   51CHL1    C8 3714   4.952   1.255   7.331  0.2564 -0.0756 -0.3876
   51CHL1    H8 3715   5.029   1.332   7.352  0.4868 -0.6498  0.8888
   51CHL1   C14 3716   4.938   1.156   7.443  0.2187  0.3884 -0.1729
   51CHL1   H14 3717   4.872   1.071   7.417  0.0982  0.3197  0.3663
   51CHL1   C15 3718   4.872   1.200   7.573  0.6764 -0.4061  0.0483
   51CHL1  H15A 3719   4.912   1.297   7.610 -1.2998  0.0482  1.1134
   51CHL1  H15B 3720   4.761   1.213   7.572  0.7841  0.4785 -0.6171
   51CHL1   C16 3721   4.919   1.091   7.668  0.0480  0.0822 -0.2842
   51CHL1  H16A 3722   4.947   1.135   7.766 -0.0332 -2.3864  0.9089
   51CHL1  H16B 3723   4.829   1.030   7.694  1.2132 -1.1504  0.9385
   51CHL1   C17 3724   5.019   1.003   7.596 -0.4048  0.2812 -0.8994
   51CHL1   H17 3725   4.969   0.917   7.547  1.3328 -1.2672 -0.0012
   51CHL1   C13 3726   5.070   1.092   7.480  0.1349  0.3402  0.2724
   51CHL1   C18 3727   5.178   1.184   7.528 -0.9711  0.0229  0.6342
   51CHL1  H18A 3728   5.167   1.233   7.627  4.6588 -0.8310  1.8645
   51CHL1  H18B 3729   5.274   1.128   7.533 -0.7895  0.0795 -1.7137
   51CHL1  H18C 3730   5.204   1.262   7.453  0.5363 -2.1513 -1.2012
   51CHL1   C12 3731   5.109   1.004   7.355  0.6867  0.5078  0.5897
   51CHL1  H12A 3732   5.208   0.958   7.373  0.6984  0.3567  0.1451
   51CHL1  H12B 3733   5.040   0.920   7.329  1.4592 -0.4621  1.6443
   51CHL1   C11 3734   5.108   1.090   7.230 -0.2657  0.0757  0.5189
   51CHL1  H11A 3735   5.205   1.143   7.221  0.3347 -1.2962 -1.0884
   51CHL1  H11B 3736   5.114   1.019   7.145 -1.0334  3.0847 -2.1652
   51CHL1    C9 3737   4.988   1.179   7.201  0.1618 -0.4273 -1.3558
   51CHL1    H9 3738   4.901   1.110   7.194 -1.4748  1.2136  1.7353
   51CHL1   C10 3739   4.989   1.251   7.067 -0.2100 -0.0017  0.7657
   51CHL1   C19 3740   5.118   1.339   7.056  0.1649  0.0985  0.4654
   51CHL1  H19A 3741   5.122   1.382   7.159  0.7382 -0.8441  0.8497
   51CHL1  H19B 3742   5.213   1.283   7.040  1.3309  2.0177  0.5312
   51CHL1  H19C 3743   5.121   1.422   6.983  2.0252  0.9580  1.4756
   51CHL1    C1 3744   4.977   1.145   6.952  0.0234 -0.2438  0.4109
   51CHL1   H1A 3745   5.068   1.081   6.948  0.8157  0.9472 -1.5753
   51CHL1   H1B 3746   4.887   1.083   6.971  0.3069 -1.5434 -2.3002
   51CHL1    C2 3747   4.964   1.204   6.812  0.7887 -0.0533 -0.3406
   51CHL1   H2A 3748   4.956   1.130   6.730  0.0539  0.9338 -1.1823
   51CHL1   H2B 3749   5.054   1.264   6.790  0.8028 -0.4069 -1.2303
   51CHL1   C20 3750   5.130   0.951   7.687  0.0319 -0.6494 -0.2114
   51CHL1   H20 3751   5.202   1.025   7.726  0.9025 -1.5760 -0.0495
   51CHL1   C21 3752   5.215   0.839   7.612 -0.1532 -0.5283 -0.3533
   51CHL1  H21A 3753   5.268   0.774   7.685  1.9103  1.3253 -0.1354
   51CHL1  H21B 3754   5.293   0.892   7.553 -1.0149  1.5544  0.3149
   51CHL1  H21C 3755   5.158   0.779   7.538  1.2693 -0.5078 -1.4828
   51CHL1   C22 3756   5.064   0.874   7.799 -0.1014  1.0599 -0.0710
   51CHL1  H22A 3757   4.996   0.944   7.853 -0.9725  0.7800 -0.7822
   51CHL1  H22B 3758   4.988   0.801   7.762 -1.4982  2.4534 -0.0015
   51CHL1   C23 3759   5.152   0.800   7.896 -0.9043 -0.3069 -0.1260
   51CHL1  H23A 3760   5.177   0.694   7.871 -0.8289 -0.6661  1.4068
   51CHL1  H23B 3761   5.245   0.858   7.914 -0.9403 -0.3397  0.1693
   51CHL1   C24 3762   5.090   0.785   8.042  0.0586  0.0920  0.4304
   51CHL1  H24A 3763   5.078   0.888   8.081 -1.1996  0.2341 -0.2958
   51CHL1  H24B 3764   4.993   0.734   8.024  1.5107 -3.2254  1.4561
   51CHL1   C25 3765   5.167   0.701   8.158 -0.5060 -0.6276 -0.1856
   51CHL1   H25 3766   5.196   0.607   8.107 -0.4680 -0.9080  0.3560
   51CHL1   C26 3767   5.298   0.754   8.216  0.4087  0.7841  0.3669
   51CHL1  H26A 3768   5.276   0.848   8.271 -2.6034  0.5638 -0.3860
   51CHL1  H26B 3769   5.340   0.687   8.294 -0.9229  0.2303  0.6159
   51CHL1  H26C 3770   5.372   0.809   8.153  1.1863  1.6525  2.0182
   51CHL1   C27 3771   5.070   0.670   8.265 -0.7156 -0.0403  1.0529
   51CHL1  H27A 3772   5.057   0.753   8.337  1.9209  1.3546 -0.0471
   51CHL1  H27B 3773   4.968   0.649   8.226  0.5837 -0.4479 -2.2829
   51CHL1  H27C 3774   5.104   0.580   8.321  0.3237 -0.3428 -0.0597
   52CHL1    C3 3775   0.274   2.503   6.931  0.1834  0.1736  0.9077
   52CHL1    H3 3776   0.181   2.554   6.965  0.2714  0.1613  1.1731
   52CHL1    O3 3777   0.273   2.477   6.793  0.2122 -0.1139 -0.0855
   52CHL1   H3' 3778   0.242   2.387   6.782 -1.4482  0.2628  1.2658
   52CHL1    C4 3779   0.395   2.585   6.967  0.4577 -0.6062  0.1356
   52CHL1   H4A 3780   0.487   2.530   6.939  1.9293  1.6259  0.4773
   52CHL1   H4B 3781   0.403   2.683   6.914  0.2788  0.9025  2.7664
   52CHL1    C5 3782   0.393   2.620   7.113  0.4637  0.8757  0.1259
   52CHL1    C6 3783   0.405   2.747   7.161 -0.1132  0.4180 -0.2328
   52CHL1    H6 3784   0.413   2.825   7.084  2.6009 -0.1020 -0.5117
   52CHL1    C7 3785   0.413   2.788   7.305 -0.7095 -0.7328 -0.1210
   52CHL1   H7A 3786   0.500   2.856   7.316 -1.5700  0.1547  1.4744
   52CHL1   H7B 3787   0.318   2.842   7.325 -1.0478 -0.0183 -3.3733
   52CHL1    C8 3788   0.430   2.664   7.399 -1.0976  0.2708  0.0191
   52CHL1    H8 3789   0.536   2.633   7.405 -0.8641  0.3347 -2.8148
   52CHL1   C14 3790   0.390   2.697   7.543  0.1881 -0.4073  0.2431
   52CHL1   H14 3791   0.285   2.731   7.544  0.9053  1.8568  1.3193
   52CHL1   C15 3792   0.455   2.822   7.607  0.1102  1.1235 -0.5227
   52CHL1  H15A 3793   0.565   2.826   7.595 -0.2753  2.9980 -4.5447
   52CHL1  H15B 3794   0.412   2.916   7.564 -2.5051  0.4580  0.5618
   52CHL1   C16 3795   0.435   2.800   7.758 -0.6473 -0.3311 -0.0640
   52CHL1  H16A 3796   0.538   2.817   7.797 -1.0788 -0.6839  1.2822
   52CHL1  H16B 3797   0.378   2.875   7.818  1.0743  0.0305  1.1738
   52CHL1   C17 3798   0.384   2.656   7.772 -0.1635  0.7309 -0.5189
   52CHL1   H17 3799   0.273   2.663   7.778 -0.1511  0.3066  0.3124
   52CHL1   C13 3800   0.412   2.582   7.636 -0.7498  0.2793 -0.7258
   52CHL1   C18 3801   0.544   2.510   7.632 -0.3455 -0.2918  0.1375
   52CHL1  H18A 3802   0.529   2.410   7.679 -0.5351 -0.7825 -0.9542
   52CHL1  H18B 3803   0.578   2.492   7.528  0.1487 -0.7494  0.3729
   52CHL1  H18C 3804   0.618   2.566   7.693 -0.5833  1.0331 -0.7796
   52CHL1   C12 3805   0.299   2.476   7.599  0.1834  0.1175 -0.2952
   52CHL1  H12A 3806   0.306   2.390   7.670 -2.7023 -0.2726 -0.3981
   52CHL1  H12B 3807   0.204   2.535   7.604  0.0630  0.0252 -1.3408
   52CHL1   C11 3808   0.321   2.427   7.452 -0.8439  0.8432  0.1293
   52CHL1  H11A 3809   0.417   2.371   7.457 -0.8266  0.6848 -1.5968
   52CHL1  H11B 3810   0.234   2.365   7.421 -1.5800  2.3443 -0.8578
   52CHL1    C9 3811   0.342   2.547   7.347  0.0217 -0.3520  0.1905
   52CHL1    H9 3812   0.240   2.591   7.348  0.6114  1.0373  1.3174
   52CHL1   C10 3813   0.372   2.498   7.208 -0.2629  0.2861  0.4760
   52CHL1   C19 3814   0.505   2.416   7.206 -0.2186  0.3693  0.1220
   52CHL1  H19A 3815   0.575   2.483   7.261 -0.0880  0.6814 -0.4207
   52CHL1  H19B 3816   0.505   2.325   7.269  0.0893  0.0403 -0.3513
   52CHL1  H19C 3817   0.532   2.395   7.100 -1.4488 -0.4118 -0.0490
   52CHL1    C1 3818   0.251   2.407   7.160  0.0240  0.4998 -0.1713
   52CHL1   H1A 3819   0.264   2.314   7.219 -1.1670 -0.5514 -1.5249
   52CHL1   H1B 3820   0.157   2.460   7.186  0.7407  1.3291  0.7924
   52CHL1    C2 3821   0.264   2.372   7.011  0.4101  0.0167 -0.7609
   52CHL1   H2A 3822   0.182   2.301   6.987  1.2544 -1.2924  0.2131
   52CHL1   H2B 3823   0.365   2.327   7.000  0.7469  0.3269  0.9384
   52CHL1   C20 3824   0.422   2.588   7.906  0.0788 -1.0860  0.2932
   52CHL1   H20 3825   0.382   2.484   7.906  0.1695 -1.1276 -0.3510
   52CHL1   C21 3826   0.337   2.678   8.004  0.1175  0.3290 -0.8254
   52CHL1  H21A 3827   0.372   2.783   7.993 -2.6052  1.2565 -0.9088
   52CHL1  H21B 3828   0.351   2.633   8.105  0.0684 -0.0658 -0.9948
   52CHL1  H21C 3829   0.231   2.680   7.972  0.5000  1.9238 -2.0231
   52CHL1   C22 3830   0.565   2.596   7.949  0.9320  0.1696 -0.0261
   52CHL1  H22A 3831   0.642   2.607   7.870 -0.1088  0.9717 -0.9296
   52CHL1  H22B 3832   0.575   2.686   8.014 -0.6924 -0.1369  0.6645
   52CHL1   C23 3833   0.603   2.468   8.032  0.6640 -0.6009  0.0314
   52CHL1  H23A 3834   0.547   2.461   8.128  0.8887  3.0803  0.4919
   52CHL1  H23B 3835   0.578   2.382   7.967 -0.9787  0.7964 -1.2209
   52CHL1   C24 3836   0.753   2.462   8.038 -0.2993  0.3690  0.3410
   52CHL1  H24A 3837   0.794   2.451   7.935 -0.0082  0.2419  0.4719
   52CHL1  H24B 3838   0.797   2.559   8.070  0.1672 -0.2773  1.7006
   52CHL1   C25 3839   0.800   2.346   8.124 -0.8849 -0.1077 -0.3819
   52CHL1   H25 3840   0.905   2.311   8.115 -0.8077 -0.8277  2.7622
   52CHL1   C26 3841   0.786   2.389   8.274 -0.3147 -0.6641  0.3276
   52CHL1  H26A 3842   0.677   2.393   8.296 -0.9045 -1.0728 -2.3244
   52CHL1  H26B 3843   0.824   2.314   8.347 -2.0394 -2.2204 -0.3161
   52CHL1  H26C 3844   0.834   2.488   8.289  1.5699 -1.0442 -2.7162
   52CHL1   C27 3845   0.725   2.209   8.100 -0.1361 -0.6211 -0.2767
   52CHL1  H27A 3846   0.617   2.213   8.126 -0.3306  0.0120 -1.1746
   52CHL1  H27B 3847   0.736   2.188   7.992 -0.2551 -1.9144 -0.0528
   52CHL1  H27C 3848   0.770   2.126   8.159 -0.7003 -0.4818  0.3645
   53CHL1    C3 3849   2.656   6.213   6.895 -0.7075 -0.3248 -0.3957
   53CHL1    H3 3850   2.764   6.218   6.869 -0.6232 -2.1568 -0.4084
   53CHL1    O3 3851   2.582   6.217   6.774  0.0698 -0.6852  0.2801
   53CHL1   H3' 3852   2.614   6.139   6.728 -1.0450  0.2333 -2.1355
   53CHL1    C4 3853   2.636   6.083   6.969  0.6607 -1.0584  0.5209
   53CHL1   H4A 3854   2.529   6.063   6.987  0.0762  1.5456  0.1567
   53CHL1   H4B 3855   2.669   5.999   6.905  2.4133 -0.3491  0.4511
   53CHL1    C5 3856   2.709   6.082   7.102 -0.1929  0.5770 -0.1349
   53CHL1    C6 3857   2.784   5.977   7.132 -0.5068  0.0168 -0.2416
   53CHL1    H6 3858   2.786   5.893   7.061 -1.0073 -1.0937  1.0379
   53CHL1    C7 3859   2.830   5.958   7.273 -0.0959 -0.0695 -1.2615
   53CHL1   H7A 3860   2.815   5.852   7.305  0.0930 -0.3046 -1.9600
   53CHL1   H7B 3861   2.939   5.972   7.257  0.0842 -1.4067 -1.2750
   53CHL1    C8 3862   2.783   6.051   7.386  0.3103  0.1941  1.5598
   53CHL1    H8 3863   2.678   6.019   7.408 -0.7682  1.0344 -2.0717
   53CHL1   C14 3864   2.869   6.036   7.509 -0.3192 -1.5199 -0.7085
   53CHL1   H14 3865   2.968   6.078   7.484 -0.4257 -0.4324  0.6105
   53CHL1   C15 3866   2.898   5.902   7.569  0.9683  0.2853  0.2093
   53CHL1  H15A 3867   2.804   5.847   7.549  3.0927 -3.0780 -1.0652
   53CHL1  H15B 3868   2.974   5.854   7.503 -1.3658 -0.0308 -2.3167
   53CHL1   C16 3869   2.939   5.921   7.712  0.2273 -0.2406  0.3380
   53CHL1  H16A 3870   2.867   5.874   7.782  0.8523 -2.7219 -0.6359
   53CHL1  H16B 3871   3.043   5.891   7.739 -0.7062 -0.3316  4.1435
   53CHL1   C17 3872   2.919   6.075   7.736  0.0853 -0.0852  0.2754
   53CHL1   H17 3873   3.015   6.124   7.707  2.9526 -3.8845  2.8682
   53CHL1   C13 3874   2.814   6.119   7.627 -0.2968 -0.4258 -0.1953
   53CHL1   C18 3875   2.669   6.072   7.674  0.8037  0.1584  0.5366
   53CHL1  H18A 3876   2.590   6.086   7.597  2.3314  1.1279 -0.8877
   53CHL1  H18B 3877   2.670   5.964   7.700  1.1103  0.5186  2.0491
   53CHL1  H18C 3878   2.640   6.135   7.760 -0.4584  2.6593 -1.6474
   53CHL1   C12 3879   2.812   6.266   7.582 -0.4672 -0.3424  1.0963
   53CHL1  H12A 3880   2.763   6.323   7.664 -1.3876 -0.6445  0.7631
   53CHL1  H12B 3881   2.919   6.295   7.571 -0.3886 -1.3387 -0.9191
   53CHL1   C11 3882   2.741   6.294   7.449  0.3793 -0.0002  0.2133
   53CHL1  H11A 3883   2.636   6.276   7.480 -0.2780  0.1378 -1.8508
   53CHL1  H11B 3884   2.758   6.401   7.422 -4.1085  0.5276 -0.8537
   53CHL1    C9 3885   2.776   6.192   7.331  0.7357 -0.6802 -0.8793
   53CHL1    H9 3886   2.879   6.212   7.295  1.0398 -1.2368 -0.3301
   53CHL1   C10 3887   2.674   6.190   7.200  0.0183 -0.3571  0.0258
   53CHL1   C19 3888   2.523   6.183   7.245 -0.6575  0.0652  0.5756
   53CHL1  H19A 3889   2.509   6.096   7.313 -1.9445  0.5858  0.9779
   53CHL1  H19B 3890   2.507   6.276   7.303 -2.7524  1.6136 -2.3554
   53CHL1  H19C 3891   2.447   6.175   7.164 -0.2792 -2.2391  0.4193
   53CHL1    C1 3892   2.702   6.316   7.117  0.8505  0.2190  0.1666
   53CHL1   H1A 3893   2.677   6.396   7.190 -0.8417  0.9573 -1.1673
   53CHL1   H1B 3894   2.808   6.323   7.085  1.4169 -0.0560  1.9517
   53CHL1    C2 3895   2.622   6.329   6.990 -0.4311  0.4694  0.3842
   53CHL1   H2A 3896   2.658   6.430   6.961  1.3419 -0.1596  0.3535
   53CHL1   H2B 3897   2.512   6.327   7.003 -0.3895  1.4203  0.9393
   53CHL1   C20 3898   2.894   6.117   7.889 -0.1192  0.1009  0.1036
   53CHL1   H20 3899   2.792   6.088   7.920  0.6121 -0.8474  1.6834
   53CHL1   C21 3900   2.908   6.268   7.904  0.2252  0.4326 -0.6011
   53CHL1  H21A 3901   2.820   6.314   7.854  0.0109  0.5557 -0.1188
   53CHL1  H21B 3902   3.003   6.299   7.855 -0.2274  2.4081 -0.2740
   53CHL1  H21C 3903   2.898   6.305   8.008 -0.7920 -0.4196 -0.3918
   53CHL1   C22 3904   2.991   6.041   7.985  0.5090  0.4237  0.5004
   53CHL1  H22A 3905   2.973   5.931   7.983 -1.4270  0.6913  1.8055
   53CHL1  H22B 3906   3.097   6.058   7.957  0.0422  0.5581 -1.2235
   53CHL1   C23 3907   2.976   6.087   8.128 -1.0790  0.6586 -0.1918
   53CHL1  H23A 3908   3.015   6.189   8.144  1.0846 -0.2347  0.3904
   53CHL1  H23B 3909   2.867   6.091   8.150 -0.9329  0.9277  0.5115
   53CHL1   C24 3910   3.057   6.000   8.230 -0.4139 -0.8475 -0.1845
   53CHL1  H24A 3911   3.160   5.993   8.189 -0.4615 -0.4763 -0.3666
   53CHL1  H24B 3912   3.059   6.041   8.333 -3.1796 -2.0353  0.3816
   53CHL1   C25 3913   3.008   5.853   8.247  0.0095  0.0577  0.9914
   53CHL1   H25 3914   3.017   5.807   8.146  0.6880  1.6643  0.3127
   53CHL1   C26 3915   3.096   5.771   8.338  0.3655  0.3122  0.0870
   53CHL1  H26A 3916   3.072   5.663   8.327 -0.0791  0.3938  0.2484
   53CHL1  H26B 3917   3.201   5.784   8.306  0.5377  1.4026  1.0645
   53CHL1  H26C 3918   3.088   5.807   8.442 -0.9087 -1.7352  0.7322
   53CHL1   C27 3919   2.863   5.844   8.293 -0.3605 -0.5278  0.1283
   53CHL1  H27A 3920   2.843   5.736   8.304  1.5686 -0.9153 -0.1334
   53CHL1  H27B 3921   2.848   5.895   8.390  2.2458  1.2104 -0.3194
   53CHL1  H27C 3922   2.799   5.897   8.218  0.2081 -2.4642 -1.7834
   54CHL1    C3 3923   2.761   1.087   6.946  0.4251 -0.4900  0.2232
   54CHL1    H3 3924   2.665   1.035   6.968  1.0267 -1.6048  0.2616
   54CHL1    O3 3925   2.769   1.104   6.807  0.0584  0.0225  0.2201
   54CHL1   H3' 3926   2.827   1.036   6.771 -1.9158 -1.5613 -0.0524
   54CHL1    C4 3927   2.765   1.226   7.019  0.1554 -0.2451 -0.4286
   54CHL1   H4A 3928   2.857   1.280   6.986 -0.4852  0.7577 -0.5928
   54CHL1   H4B 3929   2.690   1.297   6.978  1.6581  1.0496 -1.0214
   54CHL1    C5 3930   2.759   1.223   7.170  0.4015  0.4531 -0.6619
   54CHL1    C6 3931   2.671   1.294   7.243 -0.2237 -0.3783 -0.4363
   54CHL1    H6 3932   2.592   1.356   7.197  0.2366  0.9962  0.6051
   54CHL1    C7 3933   2.661   1.293   7.394 -0.3521 -0.6949  0.0942
   54CHL1   H7A 3934   2.688   1.396   7.426  1.2794 -1.2088  0.4232
   54CHL1   H7B 3935   2.556   1.262   7.412 -0.9719  0.5684 -1.2126
   54CHL1    C8 3936   2.763   1.199   7.461 -0.7552 -0.2755 -0.6635
   54CHL1    H8 3937   2.860   1.249   7.482 -0.0613 -0.5552 -3.0333
   54CHL1   C14 3938   2.708   1.149   7.596  0.3580 -1.0322 -0.0292
   54CHL1   H14 3939   2.611   1.105   7.564 -0.9961  1.2201  0.8603
   54CHL1   C15 3940   2.658   1.260   7.691  0.4424  0.3137 -0.4092
   54CHL1  H15A 3941   2.734   1.342   7.691 -0.1959  0.9081 -0.4667
   54CHL1  H15B 3942   2.560   1.301   7.659  0.6970  2.7537  1.7077
   54CHL1   C16 3943   2.656   1.186   7.826  0.2225  0.1468 -0.1553
   54CHL1  H16A 3944   2.720   1.242   7.898 -1.7042  1.7824  0.3012
   54CHL1  H16B 3945   2.557   1.181   7.875 -0.4452  1.0377 -1.3923
   54CHL1   C17 3946   2.725   1.043   7.817  0.0021  0.1075 -1.1377
   54CHL1   H17 3947   2.638   0.976   7.802  0.1039 -0.1448 -0.6031
   54CHL1   C13 3948   2.796   1.056   7.681  0.0561 -0.1438  0.0444
   54CHL1   C18 3949   2.930   1.121   7.714 -0.5210 -0.0404 -0.0158
   54CHL1  H18A 3950   2.962   1.185   7.629 -1.7577  0.2730 -0.2522
   54CHL1  H18B 3951   2.921   1.188   7.802  1.2890  0.8945 -0.5239
   54CHL1  H18C 3952   3.012   1.053   7.745  0.6368  1.2381 -0.2120
   54CHL1   C12 3953   2.814   0.929   7.593 -0.5607  0.3244  0.7237
   54CHL1  H12A 3954   2.888   0.867   7.649 -0.0008 -1.0686 -1.4672
   54CHL1  H12B 3955   2.717   0.875   7.582  0.1278 -0.6453 -0.8834
   54CHL1   C11 3956   2.875   0.960   7.455 -0.3412 -1.1069  0.4628
   54CHL1  H11A 3957   2.974   1.005   7.475 -0.3310 -0.2676 -1.3818
   54CHL1  H11B 3958   2.873   0.869   7.391 -0.4778  0.5399 -1.9429
   54CHL1    C9 3959   2.800   1.076   7.371 -0.4024  0.2403 -0.4058
   54CHL1    H9 3960   2.705   1.022   7.350 -0.7733 -0.8256  3.7256
   54CHL1   C10 3961   2.852   1.114   7.233 -1.1867  0.6636  0.1337
   54CHL1   C19 3962   2.998   1.168   7.243  0.4937 -0.4892 -0.4147
   54CHL1  H19A 3963   3.034   1.192   7.141 -1.8722 -2.3133 -1.7113
   54CHL1  H19B 3964   2.992   1.263   7.301 -3.3323 -0.1243 -1.2576
   54CHL1  H19C 3965   3.064   1.100   7.301 -0.7493 -0.3500  1.2067
   54CHL1    C1 3966   2.856   0.985   7.143 -0.4383  0.9949 -0.4071
   54CHL1   H1A 3967   2.924   0.909   7.187  0.3820  0.7699 -2.0022
   54CHL1   H1B 3968   2.760   0.930   7.156  0.3347 -0.3577 -0.3072
   54CHL1    C2 3969   2.879   0.999   6.993  0.2554 -0.4381  0.1286
   54CHL1   H2A 3970   2.879   0.898   6.946  0.8539 -1.9466  3.2221
   54CHL1   H2B 3971   2.973   1.052   6.966 -0.6173 -0.0657 -2.2966
   54CHL1   C20 3972   2.791   0.986   7.948  0.2839  0.0057 -0.2472
   54CHL1   H20 3973   2.878   1.054   7.965  1.3201 -0.6794 -2.5658
   54CHL1   C21 3974   2.843   0.839   7.929 -0.2733 -0.5168  0.1055
   54CHL1  H21A 3975   2.881   0.812   8.030 -1.2204 -0.8359  0.3811
   54CHL1  H21B 3976   2.918   0.847   7.848 -1.5105  0.1449 -0.9914
   54CHL1  H21C 3977   2.758   0.776   7.896 -0.4081  0.1390 -0.8178
   54CHL1   C22 3978   2.702   0.994   8.069 -0.8172 -0.7073 -0.2765
   54CHL1  H22A 3979   2.642   1.087   8.069  0.5059  0.1877  2.1519
   54CHL1  H22B 3980   2.631   0.911   8.089  0.6150 -1.3932  2.2397
   54CHL1   C23 3981   2.776   1.000   8.205 -0.0064 -0.2240  0.2796
   54CHL1  H23A 3982   2.847   0.914   8.209  0.1695 -0.2237 -2.0038
   54CHL1  H23B 3983   2.848   1.085   8.214  0.5789 -0.8487  1.7341
   54CHL1   C24 3984   2.682   1.000   8.321 -0.1171 -0.1322 -0.0956
   54CHL1  H24A 3985   2.600   1.065   8.285 -0.2915 -0.9560 -1.2088
   54CHL1  H24B 3986   2.639   0.900   8.342  2.0286 -0.9411  0.5581
   54CHL1   C25 3987   2.746   1.058   8.450  0.1507 -0.4029  0.3225
   54CHL1   H25 3988   2.802   1.152   8.430  0.1749 -0.7384 -1.2590
   54CHL1   C26 3989   2.640   1.102   8.550 -0.3139 -0.1122  0.0395
   54CHL1  H26A 3990   2.611   1.011   8.606  1.9666  2.1692  5.2785
   54CHL1  H26B 3991   2.694   1.171   8.618  2.7223 -2.2206 -0.1419
   54CHL1  H26C 3992   2.554   1.153   8.501 -0.1215  1.7240  1.5288
   54CHL1   C27 3993   2.849   0.960   8.505  0.6358 -0.0192  0.6318
   54CHL1  H27A 3994   2.911   0.926   8.420  1.0167 -0.1034  0.9455
   54CHL1  H27B 3995   2.902   1.013   8.587 -0.6352 -0.6379  1.8767
   54CHL1  H27C 3996   2.813   0.864   8.548  2.0446  0.0948  2.1094
   55CHL1    C3 3997   3.397   2.081   6.861 -0.5967  0.0816 -0.0509
   55CHL1    H3 3998   3.307   2.144   6.879  0.5313  1.5865  0.3925
   55CHL1    O3 3999   3.418   2.075   6.721  0.4680  0.2812 -0.4907
   55CHL1   H3' 4000   3.396   2.164   6.693  1.5109  0.2433 -1.4482
   55CHL1    C4 4001   3.519   2.149   6.930 -0.2775 -0.1276 -0.2869
   55CHL1   H4A 4002   3.609   2.088   6.907  1.1756  0.6475  3.0674
   55CHL1   H4B 4003   3.528   2.248   6.880  0.0131  0.5188  1.0305
   55CHL1    C5 4004   3.513   2.157   7.079  0.0128 -0.5878  0.5468
   55CHL1    C6 4005   3.521   2.282   7.135 -0.6758 -0.9253 -0.0269
   55CHL1    H6 4006   3.543   2.369   7.071  1.9320 -0.9439  0.7878
   55CHL1    C7 4007   3.512   2.291   7.293  0.3420  0.0760 -0.3465
   55CHL1   H7A 4008   3.591   2.360   7.329  2.0408 -2.2304  0.4433
   55CHL1   H7B 4009   3.410   2.327   7.319 -0.4233 -0.4871 -2.4431
   55CHL1    C8 4010   3.520   2.156   7.366 -0.1618  0.8210 -0.3052
   55CHL1    H8 4011   3.627   2.129   7.360  0.1227  2.0887 -0.9635
   55CHL1   C14 4012   3.470   2.174   7.506  0.4350 -0.0261 -0.2200
   55CHL1   H14 4013   3.360   2.188   7.498  0.5308  0.4476 -0.7911
   55CHL1   C15 4014   3.525   2.297   7.586 -0.2087  0.3551 -0.2556
   55CHL1  H15A 4015   3.635   2.299   7.571 -0.0975  0.0802  0.5411
   55CHL1  H15B 4016   3.487   2.398   7.557  1.2053  1.2278  0.8712
   55CHL1   C16 4017   3.499   2.255   7.734  0.6889 -0.5174 -0.2072
   55CHL1  H16A 4018   3.598   2.256   7.784 -0.2587  2.7424  1.7502
   55CHL1  H16B 4019   3.443   2.330   7.794  1.5520 -0.8467  1.0481
   55CHL1   C17 4020   3.437   2.114   7.734  0.4496  0.2971  0.1692
   55CHL1   H17 4021   3.327   2.118   7.717  0.2975 -0.4482  0.9456
   55CHL1   C13 4022   3.483   2.056   7.595 -0.3286 -0.2388 -0.1837
   55CHL1   C18 4023   3.633   2.012   7.609 -1.3988  0.3440  0.2188
   55CHL1  H18A 4024   3.673   1.974   7.512 -1.6340 -0.5537  0.4662
   55CHL1  H18B 4025   3.703   2.089   7.649  0.1449 -1.5313  1.2224
   55CHL1  H18C 4026   3.634   1.923   7.675  0.4903  0.9054  0.9949
   55CHL1   C12 4027   3.390   1.952   7.534  0.3689 -0.0455  0.6984
   55CHL1  H12A 4028   3.401   1.863   7.600  0.5821 -0.5288  0.0097
   55CHL1  H12B 4029   3.282   1.975   7.542  0.1873 -0.6159 -0.1445
   55CHL1   C11 4030   3.428   1.923   7.389  0.5724  0.0746 -0.3898
   55CHL1  H11A 4031   3.533   1.890   7.403  1.3494  2.2484 -0.8762
   55CHL1  H11B 4032   3.369   1.840   7.344  1.5298  0.1334 -1.7924
   55CHL1    C9 4033   3.435   2.050   7.301 -0.5429 -0.0713 -0.1362
   55CHL1    H9 4034   3.337   2.100   7.286 -1.0505 -0.7918  0.7355
   55CHL1   C10 4035   3.478   2.024   7.149  0.2541 -0.1142 -0.0619
   55CHL1   C19 4036   3.613   1.945   7.146  0.0396  0.0611 -0.5309
   55CHL1  H19A 4037   3.655   1.945   7.043  1.9194  2.7933  0.1848
   55CHL1  H19B 4038   3.687   1.997   7.210 -0.3939  1.5915 -1.2677
   55CHL1  H19C 4039   3.597   1.837   7.168  2.3013  0.0032  1.0397
   55CHL1    C1 4040   3.364   1.951   7.074 -1.0260  0.3792  0.3497
   55CHL1   H1A 4041   3.351   1.851   7.119  1.0891 -0.5438 -1.0093
   55CHL1   H1B 4042   3.272   2.012   7.088  0.5493  2.2816  3.1360
   55CHL1    C2 4043   3.383   1.937   6.923  0.6073 -0.3130 -0.7773
   55CHL1   H2A 4044   3.295   1.896   6.869 -0.5204 -0.7565  1.3332
   55CHL1   H2B 4045   3.471   1.874   6.899  0.8173 -0.6251  0.7652
   55CHL1   C20 4046   3.460   2.032   7.865  0.4065 -1.0334 -0.1606
   55CHL1   H20 4047   3.568   2.006   7.878  0.4922  0.1721  1.6377
   55CHL1   C21 4048   3.378   1.904   7.862  0.3187 -0.3008 -0.1964
   55CHL1  H21A 4049   3.276   1.914   7.817  0.6396 -2.7964 -1.5618
   55CHL1  H21B 4050   3.364   1.863   7.964  2.2954 -1.8163 -0.5005
   55CHL1  H21C 4051   3.430   1.833   7.794 -0.6247  0.6319 -1.9486
   55CHL1   C22 4052   3.428   2.119   7.987 -0.3603 -0.2079 -0.1231
   55CHL1  H22A 4053   3.474   2.219   7.978  0.3366 -0.3071  2.1441
   55CHL1  H22B 4054   3.319   2.135   8.004 -0.3318 -0.0951 -0.0482
   55CHL1   C23 4055   3.492   2.068   8.120  0.0514 -0.5476  0.2185
   55CHL1  H23A 4056   3.457   1.972   8.163 -1.4064  0.5897  1.6610
   55CHL1  H23B 4057   3.603   2.071   8.116 -0.0233  1.6873 -0.9611
   55CHL1   C24 4058   3.453   2.164   8.235  0.6276  0.0038  0.1478
   55CHL1  H24A 4059   3.532   2.242   8.230  0.4915  0.0873 -0.9177
   55CHL1  H24B 4060   3.355   2.212   8.215  0.8837  0.1063 -0.9153
   55CHL1   C25 4061   3.434   2.098   8.372  0.1037 -0.4465  0.4291
   55CHL1   H25 4062   3.522   2.032   8.379  1.3184  0.8513 -1.8762
   55CHL1   C26 4063   3.442   2.208   8.481 -0.3159  0.2942 -0.0954
   55CHL1  H26A 4064   3.551   2.232   8.486  0.0540 -1.2187 -0.3485
   55CHL1  H26B 4065   3.376   2.296   8.470 -0.9577 -0.1752 -0.0363
   55CHL1  H26C 4066   3.413   2.155   8.574  0.7837  0.1009  0.1545
   55CHL1   C27 4067   3.303   2.024   8.372 -0.8801 -0.8354  0.0416
   55CHL1  H27A 4068   3.285   1.974   8.469  2.3586  0.6041  1.4493
   55CHL1  H27B 4069   3.221   2.097   8.358 -0.7697 -1.1343 -2.3180
   55CHL1  H27C 4070   3.295   1.941   8.298 -1.8714 -0.6493 -0.0673
   56CHL1    C3 4071   1.861   0.349   6.867 -0.4409  0.2481 -0.3558
   56CHL1    H3 4072   1.970   0.334   6.881 -0.2541 -1.4917 -3.1755
   56CHL1    O3 4073   1.833   0.376   6.730 -0.7885  0.4860 -0.5354
   56CHL1   H3' 4074   1.739   0.392   6.732 -1.0828 -1.1040 -0.6840
   56CHL1    C4 4075   1.784   0.218   6.906  0.6637  1.2983 -0.1021
   56CHL1   H4A 4076   1.683   0.237   6.865 -0.3763 -0.2101  1.6959
   56CHL1   H4B 4077   1.829   0.136   6.847  1.7534 -0.1665  2.6487
   56CHL1    C5 4078   1.787   0.187   7.054 -0.5534  0.6456 -0.5046
   56CHL1    C6 4079   1.844   0.078   7.103  0.5870  0.6082  0.9779
   56CHL1    H6 4080   1.886   0.007   7.031 -0.2348  0.6002  0.5026
   56CHL1    C7 4081   1.848   0.034   7.242  0.4821 -0.4869 -0.1758
   56CHL1   H7A 4082   1.826  -0.075   7.240  0.8591 -0.5467 -1.2504
   56CHL1   H7B 4083   1.954   0.048   7.274 -0.1043 -0.9789  2.1186
   56CHL1    C8 4084   1.754   0.119   7.331  0.3570 -0.2161  0.3124
   56CHL1    H8 4085   1.648   0.090   7.312  0.9336 -0.1258 -3.4581
   56CHL1   C14 4086   1.789   0.106   7.477 -0.2362  0.2517  0.0026
   56CHL1   H14 4087   1.895   0.139   7.485 -0.5450  1.1863  0.3650
   56CHL1   C15 4088   1.781  -0.037   7.537 -0.0434 -0.1529  0.0163
   56CHL1  H15A 4089   1.685  -0.083   7.505 -0.3695  1.7327 -1.7937
   56CHL1  H15B 4090   1.862  -0.106   7.507 -0.6887 -0.6504 -0.5841
   56CHL1   C16 4091   1.796  -0.015   7.694 -0.0691 -0.5870 -0.3031
   56CHL1  H16A 4092   1.724  -0.072   7.756 -0.4223 -2.2329 -2.1770
   56CHL1  H16B 4093   1.895  -0.049   7.731 -0.0071 -1.7732 -1.5390
   56CHL1   C17 4094   1.769   0.135   7.716 -0.1771  0.2012  0.2966
   56CHL1   H17 4095   1.866   0.185   7.738 -0.3588  0.2852  0.8928
   56CHL1   C13 4096   1.716   0.197   7.577 -0.1679  0.3416 -0.1494
   56CHL1   C18 4097   1.563   0.186   7.564 -0.9664  0.4812  0.0279
   56CHL1  H18A 4098   1.513   0.263   7.626  0.8023 -1.1265  3.5716
   56CHL1  H18B 4099   1.522   0.202   7.462  0.2249 -2.3109 -0.9524
   56CHL1  H18C 4100   1.537   0.091   7.615  0.8048  0.4157  0.8533
   56CHL1   C12 4101   1.746   0.340   7.548  0.1164 -0.9668 -0.1019
   56CHL1  H12A 4102   1.695   0.415   7.612  0.3860  1.0703 -2.2153
   56CHL1  H12B 4103   1.853   0.367   7.561 -1.1769  3.9123  1.2041
   56CHL1   C11 4104   1.708   0.368   7.404 -0.0572 -0.6174  0.4998
   56CHL1  H11A 4105   1.599   0.370   7.382  0.2118  0.7807 -0.7719
   56CHL1  H11B 4106   1.745   0.468   7.373 -0.9652 -1.1438 -2.4549
   56CHL1    C9 4107   1.774   0.269   7.300 -0.6268  0.5019  0.3958
   56CHL1    H9 4108   1.882   0.290   7.313 -1.0906  2.2978  1.3966
   56CHL1   C10 4109   1.743   0.307   7.149 -0.3741  0.3987 -0.3182
   56CHL1   C19 4110   1.588   0.312   7.129  0.0446 -0.4212  0.4069
   56CHL1  H19A 4111   1.530   0.224   7.163 -1.2024 -0.2205 -1.1728
   56CHL1  H19B 4112   1.544   0.399   7.182  1.3065  0.1132  0.5972
   56CHL1  H19C 4113   1.566   0.333   7.022  2.0863 -2.0812 -0.4044
   56CHL1    C1 4114   1.815   0.430   7.102  0.5266 -0.1215 -0.0327
   56CHL1   H1A 4115   1.776   0.522   7.151  1.3508  0.0966  0.2296
   56CHL1   H1B 4116   1.922   0.419   7.130  0.3847  1.9865  1.4486
   56CHL1    C2 4117   1.804   0.463   6.951 -0.0603 -0.1480 -0.2178
   56CHL1   H2A 4118   1.856   0.557   6.922 -0.5222  0.4253  0.7927
   56CHL1   H2B 4119   1.695   0.475   6.935  0.2279  2.0625 -0.7849
   56CHL1   C20 4120   1.695   0.159   7.844  0.4225  0.0134 -1.1962
   56CHL1   H20 4121   1.591   0.122   7.837  0.9311 -1.8125  0.3722
   56CHL1   C21 4122   1.682   0.312   7.868 -0.3392 -0.1672  0.0096
   56CHL1  H21A 4123   1.650   0.323   7.974 -2.0601  1.3176 -0.6503
   56CHL1  H21B 4124   1.603   0.354   7.803  0.9266  2.3112  0.0446
   56CHL1  H21C 4125   1.783   0.354   7.848 -0.1991 -1.0503 -1.2101
   56CHL1   C22 4126   1.751   0.093   7.970 -0.5556 -0.0061 -0.1069
   56CHL1  H22A 4127   1.785  -0.011   7.950 -2.8547 -0.7702 -0.1482
   56CHL1  H22B 4128   1.845   0.143   8.000 -1.2679  1.7753 -0.8121
   56CHL1   C23 4129   1.651   0.074   8.081 -0.6641 -0.2717 -0.1075
   56CHL1  H23A 4130   1.624   0.176   8.116 -0.6144 -0.1679 -0.3727
   56CHL1  H23B 4131   1.556   0.028   8.047 -0.5138  0.0995 -1.0136
   56CHL1   C24 4132   1.720  -0.005   8.193  0.6469 -0.5603 -0.0593
   56CHL1  H24A 4133   1.746  -0.112   8.176  0.8978 -0.0691 -3.0188
   56CHL1  H24B 4134   1.815   0.042   8.228  1.0529 -2.0625  0.9212
   56CHL1   C25 4135   1.624  -0.015   8.313  0.4896 -0.1408  0.2202
   56CHL1   H25 4136   1.520  -0.045   8.287  0.7233 -0.4041 -0.4180
   56CHL1   C26 4137   1.674  -0.127   8.406  0.2543  0.5022 -0.3676
   56CHL1  H26A 4138   1.610  -0.127   8.496  0.6194 -1.5354 -0.0914
   56CHL1  H26B 4139   1.780  -0.115   8.438  0.7843 -1.5976 -1.2252
   56CHL1  H26C 4140   1.663  -0.225   8.354  1.5049  0.4599 -0.5739
   56CHL1   C27 4141   1.612   0.128   8.384 -0.0441 -0.1038 -0.4117
   56CHL1  H27A 4142   1.710   0.174   8.410 -1.9772  2.7646  2.1788
   56CHL1  H27B 4143   1.543   0.199   8.334 -0.4629  0.2318  0.6396
   56CHL1  H27C 4144   1.570   0.099   8.482  0.8596 -0.2119 -0.0525
   57SAPC     N 4145   2.142   3.712  10.803  0.4640 -0.3234 -0.5380
   57SAPC   C12 4146   2.039   3.627  10.736  0.1900  0.2850 -0.1105
   57SAPC  H12A 4147   2.080   3.528  10.720 -1.5712 -0.2791 -1.1992
   57SAPC  H12B 4148   2.017   3.665  10.638 -0.1703  0.3107 -0.0182
   57SAPC   C13 4149   2.265   3.708  10.713  0.0890 -0.6849 -0.1299
   57SAPC  H13A 4150   2.342   3.774  10.749 -2.0003  0.9517  1.4444
   57SAPC  H13B 4151   2.298   3.605  10.715 -0.5676 -0.9858 -2.8059
   57SAPC  H13C 4152   2.239   3.731  10.611  2.7633  0.1852 -0.6512
   57SAPC   C14 4153   2.099   3.852  10.794 -0.1521  0.3695  0.2842
   57SAPC  H14A 4154   2.165   3.919  10.847 -1.6390  1.3972  0.8744
   57SAPC  H14B 4155   2.093   3.887  10.692 -1.5606 -1.8564 -0.4175
   57SAPC  H14C 4156   1.999   3.875  10.827 -1.7954 -2.8616 -2.2266
   57SAPC   C15 4157   2.192   3.665  10.939  0.3600  0.0118  0.4565
   57SAPC  H15A 4158   2.113   3.681  11.011 -0.2890  0.9300 -0.4460
   57SAPC  H15B 4159   2.234   3.567  10.929 -0.4711 -0.0841 -2.3256
   57SAPC  H15C 4160   2.269   3.731  10.978 -0.6864  1.6718 -0.2223
   57SAPC   C11 4161   1.907   3.606  10.817 -0.3775  0.3453  0.0730
   57SAPC  H11A 4162   1.937   3.573  10.919 -0.4881 -0.8663 -0.2746
   57SAPC  H11B 4163   1.850   3.523  10.770 -1.6451  1.6266 -0.7013
   57SAPC     P 4164   1.711   3.788  10.739 -0.5634 -0.1017  0.0053
   57SAPC   O13 4165   1.578   3.741  10.791  0.0073 -0.2565 -0.0281
   57SAPC   O14 4166   1.743   3.931  10.732  0.5026 -0.4608  0.1749
   57SAPC   O12 4167   1.822   3.726  10.830  0.4185 -0.7761  0.2270
   57SAPC   O11 4168   1.742   3.729  10.597  0.6755  0.1991 -0.7440
   57SAPC    C1 4169   1.853   3.758  10.513  0.0879 -0.3451 -0.6913
   57SAPC    HA 4170   1.920   3.840  10.548 -2.2706  0.3682  2.4187
   57SAPC    HB 4171   1.913   3.665  10.501  3.8884  1.9872 -0.8264
   57SAPC    C2 4172   1.804   3.810  10.375 -0.5249 -0.3394 -0.9150
   57SAPC    HS 4173   1.734   3.896  10.382 -0.7616 -0.4536 -1.7770
   57SAPC   O21 4174   1.748   3.699  10.306  0.3853 -0.3436 -0.4282
   57SAPC   C21 4175   1.637   3.726  10.233  0.1307  0.4643 -0.5033
   57SAPC   O22 4176   1.593   3.837  10.212  0.0531  0.4513 -0.5178
   57SAPC   C22 4177   1.580   3.595  10.182  0.3104  0.4249 -0.1327
   57SAPC   H2R 4178   1.646   3.505  10.187 -0.9615 -0.6589 -2.0560
   57SAPC   H2S 4179   1.479   3.580  10.226 -0.1631  1.7755 -0.7417
   57SAPC    C3 4180   1.926   3.867  10.291  0.3886  0.1781 -0.1170
   57SAPC    HX 4181   2.015   3.805  10.315  0.1199 -0.2568 -0.2408
   57SAPC    HY 4182   1.946   3.965  10.339  0.4629  0.3840 -0.5622
   57SAPC   O31 4183   1.895   3.890  10.152 -0.7800 -0.2356 -0.7054
   57SAPC   C31 4184   1.936   3.796  10.079 -0.7210  0.7800  0.0408
   57SAPC   O32 4185   1.997   3.693  10.110  0.1135 -0.0051 -0.1191
   57SAPC   C32 4186   1.901   3.826   9.938  0.4070  0.0399  0.9178
   57SAPC   H2X 4187   1.979   3.888   9.887 -0.6783 -1.1049 -2.1966
   57SAPC   H2Y 4188   1.805   3.881   9.930  0.8247  1.0944  2.6377
   57SAPC   C23 4189   1.553   3.605  10.030 -0.5328 -0.4310  0.2659
   57SAPC   H3R 4190   1.642   3.643   9.977  1.2125 -3.1905  1.0897
   57SAPC   H3S 4191   1.472   3.681  10.023  1.0784  1.3217  0.3093
   57SAPC   C24 4192   1.493   3.476   9.968  0.5662 -0.0921  0.8352
   57SAPC   H4R 4193   1.471   3.500   9.862  1.8232 -0.4467  0.4886
   57SAPC   H4S 4194   1.394   3.452  10.014  1.5219 -2.3999  1.7737
   57SAPC   C25 4195   1.583   3.354   9.957 -0.1459 -0.4148 -0.8496
   57SAPC   H5R 4196   1.664   3.350  10.031 -1.3206  0.1308  0.4958
   57SAPC   C26 4197   1.581   3.260   9.852 -0.1938 -0.0516 -0.4741
   57SAPC   H6R 4198   1.662   3.188   9.839  1.2934  0.5667  4.3079
   57SAPC   C27 4199   1.469   3.269   9.746 -0.3921 -0.3270  0.4764
   57SAPC   H7R 4200   1.477   3.355   9.675 -0.1463  0.3644  1.3323
   57SAPC   H7S 4201   1.374   3.293   9.798  0.1324  4.1794 -0.4431
   57SAPC   C28 4202   1.467   3.137   9.676 -0.1055 -0.1623  0.2567
   57SAPC   H8R 4203   1.417   3.059   9.735 -0.6768  0.2370  0.3147
   57SAPC   C29 4204   1.512   3.109   9.552  0.1164  0.0575 -0.2691
   57SAPC   H9R 4205   1.531   3.003   9.532 -1.4880 -0.0144 -1.5106
   57SAPC  C210 4206   1.566   3.218   9.460  0.5720  0.8475  0.0384
   57SAPC  H10R 4207   1.496   3.304   9.459  2.2568  2.2378 -1.0675
   57SAPC  H10S 4208   1.552   3.174   9.359  0.9508  1.8930 -0.4750
   57SAPC  C211 4209   1.705   3.267   9.473  0.3447  0.2800 -0.3706
   57SAPC  H11R 4210   1.724   3.316   9.570  0.5835  0.7582 -0.6576
   57SAPC  C212 4211   1.797   3.262   9.379  0.1186  0.1874  0.3402
   57SAPC  H12R 4212   1.891   3.315   9.403  0.9878 -0.7020 -1.0954
   57SAPC  C213 4213   1.785   3.199   9.239  0.6991 -0.3864 -0.0724
   57SAPC  H13R 4214   1.763   3.284   9.170 -2.8553 -1.1563  0.0184
   57SAPC  H13S 4215   1.707   3.122   9.221 -1.6470  1.6640  0.9391
   57SAPC  C214 4216   1.914   3.148   9.192  0.2417  0.5651 -0.7495
   57SAPC  H14R 4217   2.000   3.159   9.260  0.1260 -0.8808 -0.3581
   57SAPC  C215 4218   1.946   3.102   9.074  0.0359  0.6994  0.1503
   57SAPC  H15R 4219   2.050   3.079   9.046 -0.7301 -0.7816 -1.5658
   57SAPC  C216 4220   1.849   3.077   8.960  0.2790 -0.2358  0.0516
   57SAPC  H16R 4221   1.875   3.138   8.871  0.9982  0.5398  0.7786
   57SAPC  H16S 4222   1.745   3.112   8.978 -0.8578 -3.8130  0.8403
   57SAPC  C217 4223   1.843   2.919   8.930  0.1127 -0.2047  0.0936
   57SAPC  H17R 4224   1.782   2.874   9.011  0.8516 -1.5991 -0.1087
   57SAPC  H17S 4225   1.945   2.875   8.927  0.4576  0.6104 -0.2847
   57SAPC  C218 4226   1.780   2.891   8.786 -0.1901 -0.0227 -0.9865
   57SAPC  H18R 4227   1.831   2.961   8.717  0.8005  0.2571  0.0140
   57SAPC  H18S 4228   1.673   2.920   8.789  0.1079  0.9832  0.2209
   57SAPC  C219 4229   1.793   2.746   8.735  0.1051 -0.0591  0.1560
   57SAPC  H19R 4230   1.737   2.743   8.640  1.2869  0.7440 -0.5810
   57SAPC  H19S 4231   1.757   2.673   8.810  2.6342  1.8390  3.3848
   57SAPC  C220 4232   1.936   2.705   8.703 -0.3306 -0.2554 -0.5692
   57SAPC  H20R 4233   2.002   2.698   8.791 -0.6885 -0.4926 -0.3151
   57SAPC  H20S 4234   1.990   2.781   8.642  1.2524 -1.4855 -0.7329
   57SAPC  H20T 4235   1.934   2.603   8.658  1.3199 -0.1050 -0.9980
   57SAPC   C33 4236   1.896   3.695   9.847 -0.3705 -0.0238 -0.2151
   57SAPC   H3X 4237   1.834   3.614   9.891  0.1995 -0.9114 -1.0293
   57SAPC   H3Y 4238   1.998   3.651   9.836 -0.6651 -0.2826 -1.9502
   57SAPC   C34 4239   1.849   3.734   9.713 -0.3656  0.1670 -0.5055
   57SAPC   H4X 4240   1.925   3.807   9.678  0.8907 -1.5943 -1.4948
   57SAPC   H4Y 4241   1.759   3.798   9.724  0.2253  0.9217 -0.0233
   57SAPC   C35 4242   1.848   3.623   9.617 -0.1909  0.5191 -0.1051
   57SAPC   H5X 4243   1.761   3.560   9.645  2.1333 -2.8309 -0.2239
   57SAPC   H5Y 4244   1.936   3.557   9.626 -0.9148 -0.2820  1.2285
   57SAPC   C36 4245   1.801   3.654   9.477 -0.1984 -0.0531  0.3518
   57SAPC   H6X 4246   1.715   3.724   9.481 -1.0183 -0.9440 -1.4643
   57SAPC   H6Y 4247   1.774   3.555   9.435 -0.9157  0.2226  0.1652
   57SAPC   C37 4248   1.907   3.720   9.389  0.1033 -1.2780  0.1149
   57SAPC   H7X 4249   1.998   3.661   9.414 -0.2088 -1.3420  1.1211
   57SAPC   H7Y 4250   1.920   3.823   9.429  0.0831 -1.5457  0.8335
   57SAPC   C38 4251   1.890   3.693   9.243  0.0051  1.0415 -0.1571
   57SAPC   H8X 4252   1.979   3.746   9.201 -0.1202  1.1673 -0.2609
   57SAPC   H8Y 4253   1.792   3.735   9.212 -0.5520  0.7828  1.1950
   57SAPC   C39 4254   1.886   3.552   9.204 -0.3594 -0.1066  0.2718
   57SAPC   H9X 4255   1.792   3.506   9.241 -1.0645 -0.0262 -1.3832
   57SAPC   H9Y 4256   1.973   3.499   9.249 -0.2099 -1.0432 -1.0677
   57SAPC  C310 4257   1.887   3.536   9.051  0.6530  0.0722  0.9519
   57SAPC  H10X 4258   1.910   3.429   9.031  1.0307  0.3228  0.0136
   57SAPC  H10Y 4259   1.971   3.589   9.002  0.4718 -1.6501 -1.3000
   57SAPC  C311 4260   1.752   3.581   8.980  0.1343 -0.4459  0.5929
   57SAPC  H11X 4261   1.740   3.690   8.998  0.1972 -0.3531  0.0651
   57SAPC  H11Y 4262   1.666   3.526   9.023  0.5720 -1.4596  0.1693
   57SAPC  C312 4263   1.750   3.549   8.826  0.6380 -0.1718 -0.2689
   57SAPC  H12X 4264   1.648   3.563   8.785  1.2110  0.3650 -1.5387
   57SAPC  H12Y 4265   1.769   3.440   8.829  0.9996 -0.0884  0.6927
   57SAPC  C313 4266   1.842   3.634   8.735 -0.6166 -0.3457 -0.1703
   57SAPC  H13X 4267   1.948   3.622   8.765 -1.0332 -0.0119  1.5014
   57SAPC  H13Y 4268   1.826   3.743   8.746  0.5015 -0.3707  2.0247
   57SAPC  C314 4269   1.832   3.606   8.589 -0.7166  0.7336  0.6658
   57SAPC  H14X 4270   1.743   3.656   8.545 -1.7978 -1.4994  0.2199
   57SAPC  H14Y 4271   1.827   3.496   8.579 -1.4063  0.9256 -1.2293
   57SAPC  C315 4272   1.952   3.658   8.513  0.4499 -0.2975 -0.3678
   57SAPC  H15X 4273   2.048   3.606   8.535 -0.2597 -0.5453  2.3967
   57SAPC  H15Y 4274   1.959   3.764   8.547 -1.7722 -0.7277  1.5584
   57SAPC  C316 4275   1.923   3.666   8.364 -0.2534  0.3978  0.3279
   57SAPC  H16X 4276   1.998   3.719   8.302  0.6855 -0.2733  0.8787
   57SAPC  H16Y 4277   1.826   3.718   8.347 -1.3851 -0.8075  2.8033
   57SAPC  C317 4278   1.906   3.532   8.290  0.0828 -0.3393 -0.3206
   57SAPC  H17X 4279   1.807   3.497   8.325  0.3827 -2.4497 -1.5037
   57SAPC  H17Y 4280   1.981   3.456   8.320 -0.8620 -0.9514  0.5167
   57SAPC  C318 4281   1.887   3.546   8.141  0.1091  0.5173  0.3052
   57SAPC  H18X 4282   1.859   3.448   8.097 -0.7898  0.9344 -0.0518
   57SAPC  H18Y 4283   1.978   3.593   8.098  0.0130  2.6992  2.3588
   57SAPC  H18Z 4284   1.811   3.623   8.119  0.8977  0.9137 -1.0625
   58SAPC     N 4285   4.387   1.742  11.131 -0.8039 -0.2762  0.4921
   58SAPC   C12 4286   4.520   1.706  11.053 -0.0892  0.2161  0.4180
   58SAPC  H12A 4287   4.602   1.702  11.123  0.1068 -2.1594  0.0757
   58SAPC  H12B 4288   4.552   1.776  10.976 -0.0927  2.3407  2.2838
   58SAPC   C13 4289   4.414   1.866  11.211 -0.1284 -0.1404  0.2719
   58SAPC  H13A 4290   4.441   1.945  11.142  0.1135 -0.9103 -0.5161
   58SAPC  H13B 4291   4.328   1.891  11.272  0.4664 -0.5181  1.2700
   58SAPC  H13C 4292   4.500   1.858  11.275 -0.2789  0.8357  0.6005
   58SAPC   C14 4293   4.269   1.765  11.039  0.3006 -0.4203 -0.6580
   58SAPC  H14A 4294   4.170   1.754  11.082 -0.0611  2.3484 -0.6748
   58SAPC  H14B 4295   4.276   1.865  11.000  1.3908  0.1400  0.9383
   58SAPC  H14C 4296   4.276   1.694  10.959  1.3734 -1.1001  0.0282
   58SAPC   C15 4297   4.354   1.636  11.232 -0.1364  0.5812  0.3019
   58SAPC  H15A 4298   4.429   1.632  11.309 -1.3903 -0.3142  1.5077
   58SAPC  H15B 4299   4.261   1.656  11.285  0.1467 -1.7214  1.7064
   58SAPC  H15C 4300   4.349   1.543  11.178 -1.2889 -0.0745  1.5200
   58SAPC   C11 4301   4.524   1.556  10.997  0.4286 -0.0179  0.2278
   58SAPC  H11A 4302   4.502   1.489  11.083  0.7322 -0.7109 -0.2375
   58SAPC  H11B 4303   4.632   1.549  10.972 -0.0582 -1.6071 -1.5033
   58SAPC     P 4304   4.491   1.548  10.747  0.3120 -0.1896  0.5138
   58SAPC   O13 4305   4.551   1.682  10.724  0.2378  0.6586 -0.2976
   58SAPC   O14 4306   4.578   1.435  10.721  0.0155  1.0387 -0.3011
   58SAPC   O12 4307   4.431   1.536  10.889  0.6224 -0.2247  0.3469
   58SAPC   O11 4308   4.361   1.538  10.656  0.1864 -0.1371 -0.0003
   58SAPC    C1 4309   4.282   1.420  10.635  0.6107  0.6640 -0.7888
   58SAPC    HA 4310   4.268   1.361  10.729 -0.5608  1.1433 -0.6494
   58SAPC    HB 4311   4.181   1.450  10.600  0.1871  0.3814  0.1687
   58SAPC    C2 4312   4.341   1.314  10.528  0.1756  0.1349 -0.3275
   58SAPC    HS 4313   4.427   1.276  10.588  0.1139  0.9558  0.3007
   58SAPC   O21 4314   4.381   1.385  10.409 -0.4165 -0.3191 -0.0403
   58SAPC   C21 4315   4.501   1.338  10.354  0.1977 -0.0648  0.1254
   58SAPC   O22 4316   4.564   1.243  10.398  0.0251  0.4319 -0.5766
   58SAPC   C22 4317   4.527   1.412  10.221  0.1511 -0.2656  0.3291
   58SAPC   H2R 4318   4.435   1.401  10.160  0.2843 -0.5967  0.1862
   58SAPC   H2S 4319   4.536   1.520  10.242 -1.8449  0.3361 -1.7721
   58SAPC    C3 4320   4.239   1.201  10.500 -0.0971  0.0894  0.6728
   58SAPC    HX 4321   4.158   1.259  10.450  0.5779  0.0638 -0.4474
   58SAPC    HY 4322   4.200   1.155  10.593 -1.6890  1.8104  0.8952
   58SAPC   O31 4323   4.288   1.107  10.412 -0.1824 -0.2324  0.1514
   58SAPC   C31 4324   4.206   1.024  10.352  0.2492 -0.3633  0.1300
   58SAPC   O32 4325   4.083   1.025  10.370  0.4842 -0.1984  0.0113
   58SAPC   C32 4326   4.279   0.934  10.253 -0.3010 -0.1197  0.3262
   58SAPC   H2X 4327   4.204   0.874  10.196 -1.4498 -1.7412  3.4242
   58SAPC   H2Y 4328   4.328   0.851  10.308 -1.4368 -2.4066 -2.0178
   58SAPC   C23 4329   4.650   1.351  10.150 -0.5564 -0.1895  0.7421
   58SAPC   H3R 4330   4.640   1.241  10.167  2.2001 -0.7515 -0.8885
   58SAPC   H3S 4331   4.741   1.364  10.212 -0.7605  1.6578  0.6590
   58SAPC   C24 4332   4.653   1.375  10.002 -0.8877 -0.4059 -0.0632
   58SAPC   H4R 4333   4.645   1.480   9.966 -3.8058 -0.7935 -0.6948
   58SAPC   H4S 4334   4.554   1.336   9.971 -0.0984 -2.1286 -0.4849
   58SAPC   C25 4335   4.768   1.307   9.932 -0.2533  0.5254  0.3359
   58SAPC   H5R 4336   4.852   1.283   9.999  1.8133  3.3392 -1.1551
   58SAPC   C26 4337   4.776   1.291   9.803 -0.5124  0.3775  0.6503
   58SAPC   H6R 4338   4.859   1.234   9.760 -1.1304  0.2086 -0.3498
   58SAPC   C27 4339   4.673   1.328   9.695  0.2051 -0.1552  0.0994
   58SAPC   H7R 4340   4.611   1.412   9.734  0.2099  0.0771 -0.3769
   58SAPC   H7S 4341   4.597   1.249   9.676  1.0549 -1.1758  0.9299
   58SAPC   C28 4342   4.744   1.373   9.572 -0.0363  0.0599 -0.1610
   58SAPC   H8R 4343   4.825   1.447   9.578 -0.2869  0.2244  1.1603
   58SAPC   C29 4344   4.732   1.316   9.452 -0.3449  0.2783  0.3567
   58SAPC   H9R 4345   4.787   1.368   9.372  0.1352  2.5960  2.1338
   58SAPC  C210 4346   4.649   1.196   9.422 -0.5133  0.6577 -0.2556
   58SAPC  H10R 4347   4.543   1.228   9.419 -1.1020 -1.1450  0.9059
   58SAPC  H10S 4348   4.660   1.121   9.503  0.1513 -1.1653 -1.9877
   58SAPC  C211 4349   4.690   1.130   9.295  0.6227 -0.1950 -0.4482
   58SAPC  H11R 4350   4.732   1.029   9.312  0.7707  0.0136  0.4567
   58SAPC  C212 4351   4.671   1.175   9.174  0.4698  0.6665  0.0409
   58SAPC  H12R 4352   4.691   1.113   9.085  2.1437  2.3921 -0.8290
   58SAPC  C213 4353   4.597   1.305   9.137  0.8470  0.6004  0.3913
   58SAPC  H13R 4354   4.637   1.403   9.171  0.5277  0.2450  1.8339
   58SAPC  H13S 4355   4.493   1.310   9.176  0.6615  0.8870 -0.1349
   58SAPC  C214 4356   4.578   1.315   8.986  0.8212  0.0625  0.2281
   58SAPC  H14R 4357   4.500   1.249   8.947  0.3495  2.6044 -3.4583
   58SAPC  C215 4358   4.623   1.416   8.903  0.5723  0.1674 -0.0892
   58SAPC  H15R 4359   4.584   1.405   8.801 -1.1643 -0.8625  0.6644
   58SAPC  C216 4360   4.697   1.545   8.937 -0.0216 -0.5597  0.9101
   58SAPC  H16R 4361   4.796   1.547   8.887  0.7616  0.2928  2.4460
   58SAPC  H16S 4362   4.724   1.547   9.045 -1.9163  0.3936  1.3865
   58SAPC  C217 4363   4.605   1.670   8.908 -0.3690  0.0415 -0.8173
   58SAPC  H17R 4364   4.501   1.672   8.947  0.2517  1.1274  0.8365
   58SAPC  H17S 4365   4.609   1.700   8.801  1.5886 -0.3596 -0.8665
   58SAPC  C218 4366   4.674   1.789   8.981 -1.2100 -0.1175  0.7577
   58SAPC  H18R 4367   4.780   1.787   8.947 -2.0312 -0.0816 -1.9798
   58SAPC  H18S 4368   4.664   1.758   9.087  1.6131  1.8434  1.6460
   58SAPC  C219 4369   4.590   1.913   8.955 -0.0233  0.0196 -0.1977
   58SAPC  H19R 4370   4.489   1.904   9.001 -1.2788  1.4387 -2.5783
   58SAPC  H19S 4371   4.582   1.906   8.844  1.0400 -1.9258 -0.1592
   58SAPC  C220 4372   4.653   2.057   8.968  0.0703 -0.1345  0.2030
   58SAPC  H20R 4373   4.665   2.085   9.075  0.9600 -2.0329  0.6101
   58SAPC  H20S 4374   4.595   2.138   8.918 -1.5901 -1.6946 -0.4740
   58SAPC  H20T 4375   4.759   2.046   8.937  0.2406 -0.2497  0.8184
   58SAPC   C33 4376   4.392   0.991  10.170  0.2042  0.0859 -0.1417
   58SAPC   H3X 4377   4.461   1.047  10.238  0.9733 -0.0425 -0.8081
   58SAPC   H3Y 4378   4.349   1.067  10.102  1.0383  0.8840  0.2074
   58SAPC   C34 4379   4.477   0.890  10.091  0.0398 -0.0956 -0.4416
   58SAPC   H4X 4380   4.415   0.799  10.081 -1.6647  1.2040 -2.0852
   58SAPC   H4Y 4381   4.561   0.863  10.158  0.1516  0.7489 -0.2304
   58SAPC   C35 4382   4.520   0.934   9.950  1.1318  0.0387  0.2313
   58SAPC   H5X 4383   4.553   1.039   9.963  2.9283 -0.5551  0.6733
   58SAPC   H5Y 4384   4.439   0.942   9.875  0.6344 -1.3402  0.6110
   58SAPC   C36 4385   4.619   0.837   9.886  0.4031  0.0866  0.6057
   58SAPC   H6X 4386   4.576   0.736   9.875  0.8257 -0.0318  0.0119
   58SAPC   H6Y 4387   4.709   0.829   9.951  1.0880  1.0714 -0.1988
   58SAPC   C37 4388   4.667   0.874   9.739 -0.0252 -0.1970 -0.2835
   58SAPC   H7X 4389   4.726   0.965   9.761 -0.9763  0.3185  0.1901
   58SAPC   H7Y 4390   4.584   0.917   9.680 -0.0834 -0.9533 -0.7589
   58SAPC   C38 4391   4.742   0.769   9.662  0.6111  0.1553  0.4751
   58SAPC   H8X 4392   4.816   0.716   9.725  1.3704 -0.9292 -1.2770
   58SAPC   H8Y 4393   4.802   0.820   9.583  0.3849  1.1822  0.9609
   58SAPC   C39 4394   4.648   0.671   9.593 -0.0957  0.2579  0.0434
   58SAPC   H9X 4395   4.566   0.637   9.660 -0.1729 -1.8173 -1.0463
   58SAPC   H9Y 4396   4.709   0.585   9.558 -2.1293 -1.4449  0.5294
   58SAPC  C310 4397   4.577   0.720   9.461  0.2369  0.1798  0.1400
   58SAPC  H10X 4398   4.553   0.828   9.470 -1.3896 -0.1929  0.4423
   58SAPC  H10Y 4399   4.482   0.663   9.465  0.1843  0.1342 -1.3675
   58SAPC  C311 4400   4.646   0.691   9.326 -0.8743  0.1895 -0.1182
   58SAPC  H11X 4401   4.630   0.582   9.315  1.5771 -0.4640  2.0190
   58SAPC  H11Y 4402   4.757   0.702   9.318 -0.6874 -1.7891 -0.3726
   58SAPC  C312 4403   4.564   0.744   9.214 -0.9308 -0.2397 -0.2577
   58SAPC  H12X 4404   4.594   0.849   9.195  0.5074 -0.8856 -1.5437
   58SAPC  H12Y 4405   4.455   0.734   9.237 -0.5267 -1.1409  1.3020
   58SAPC  C313 4406   4.597   0.669   9.083 -0.3110  0.0411  0.3626
   58SAPC  H13X 4407   4.567   0.564   9.105 -2.0622  0.6031  0.7528
   58SAPC  H13Y 4408   4.704   0.680   9.057 -0.2374  1.0365  1.0658
   58SAPC  C314 4409   4.528   0.723   8.956  0.0307  0.0998 -0.4215
   58SAPC  H14X 4410   4.419   0.722   8.979  0.1214  1.3023  0.1311
   58SAPC  H14Y 4411   4.544   0.656   8.869  0.7308  0.2103 -0.3838
   58SAPC  C315 4412   4.597   0.855   8.907 -0.4258 -0.1367  0.0266
   58SAPC  H15X 4413   4.704   0.834   8.885 -0.9402 -2.4672 -0.4624
   58SAPC  H15Y 4414   4.598   0.935   8.984 -0.4814  1.4843 -1.6387
   58SAPC  C316 4415   4.536   0.905   8.774  0.2205 -0.1530  0.1154
   58SAPC  H16X 4416   4.442   0.952   8.811  1.2319  0.8690  1.4578
   58SAPC  H16Y 4417   4.500   0.827   8.703 -1.2682  1.2329 -0.6690
   58SAPC  C317 4418   4.625   1.001   8.696 -0.4775 -0.2730  0.3698
   58SAPC  H17X 4419   4.712   0.936   8.673  0.2720  1.0742 -0.6584
   58SAPC  H17Y 4420   4.647   1.085   8.766 -0.7812  0.3364 -0.2687
   58SAPC  C318 4421   4.570   1.064   8.571  0.7553 -0.5529  0.7973
   58SAPC  H18X 4422   4.488   1.133   8.601 -0.5297 -1.1973 -1.1461
   58SAPC  H18Y 4423   4.524   0.989   8.503  0.8881 -1.0357  1.2367
   58SAPC  H18Z 4424   4.642   1.127   8.515  0.9488  0.8041  2.5141
   59SAPC     N 4425   5.443   2.893  11.356 -0.7411 -0.1688  0.8064
   59SAPC   C12 4426   5.487   3.001  11.265 -0.8188  0.3866 -0.6866
   59SAPC  H12A 4427   5.593   2.997  11.241 -0.3454 -0.4726  1.4369
   59SAPC  H12B 4428   5.476   3.096  11.315  0.4931  1.0292 -1.5734
   59SAPC   C13 4429   5.450   2.765  11.275 -0.0250  0.3685 -0.4333
   59SAPC  H13A 4430   5.402   2.785  11.180  0.1961  0.1097 -0.5966
   59SAPC  H13B 4431   5.551   2.731  11.261 -0.2516 -1.0392  1.2091
   59SAPC  H13C 4432   5.402   2.684  11.326 -1.5769  0.2104 -2.0725
   59SAPC   C14 4433   5.536   2.886  11.471  0.3847 -0.1286 -0.5213
   59SAPC  H14A 4434   5.638   2.873  11.438  0.2437 -0.7271 -0.7188
   59SAPC  H14B 4435   5.524   2.974  11.533 -1.8115  0.2182 -1.3940
   59SAPC  H14C 4436   5.517   2.807  11.542  2.1847 -1.3393 -1.3583
   59SAPC   C15 4437   5.301   2.918  11.416 -0.0261  0.1359  0.0251
   59SAPC  H15A 4438   5.233   2.927  11.333 -1.2133  1.8445  1.1802
   59SAPC  H15B 4439   5.279   2.830  11.474  0.6821 -1.0305 -1.4199
   59SAPC  H15C 4440   5.292   3.015  11.461  1.9087  0.2722  0.1784
   59SAPC   C11 4441   5.408   3.012  11.133  0.0023  0.3544 -0.2529
   59SAPC  H11A 4442   5.420   2.918  11.074  1.6314  0.1401  0.4024
   59SAPC  H11B 4443   5.463   3.078  11.063  1.4865  0.3676  0.9155
   59SAPC     P 4444   5.226   3.196  11.149 -0.0142  0.4770  0.0918
   59SAPC   O13 4445   5.074   3.214  11.139 -0.0109  0.1139  0.3732
   59SAPC   O14 4446   5.290   3.270  11.260  0.0140  0.4584 -0.0519
   59SAPC   O12 4447   5.267   3.047  11.152  0.1206  0.4987  0.2029
   59SAPC   O11 4448   5.291   3.256  11.018 -0.1038  0.3135  0.4290
   59SAPC    C1 4449   5.231   3.239  10.890 -0.8885  0.0354 -0.6977
   59SAPC    HA 4450   5.121   3.249  10.897 -0.8459 -0.5571  1.1301
   59SAPC    HB 4451   5.264   3.327  10.832  0.9360 -0.7725 -0.9255
   59SAPC    C2 4452   5.282   3.113  10.827  0.3988 -0.0218  0.0545
   59SAPC    HS 4453   5.254   3.036  10.902  0.3235  1.3733  1.4745
   59SAPC   O21 4454   5.432   3.130  10.820  0.9712  0.3119  0.3605
   59SAPC   C21 4455   5.500   3.021  10.790 -0.5136  0.0902 -0.1360
   59SAPC   O22 4456   5.452   2.907  10.779 -0.4797 -0.3164 -0.0242
   59SAPC   C22 4457   5.649   3.047  10.764 -0.3969 -0.0680 -0.5701
   59SAPC   H2R 4458   5.660   3.156  10.783 -2.5350  0.3446 -1.4968
   59SAPC   H2S 4459   5.710   2.996  10.841  1.2258  0.5335 -1.4490
   59SAPC    C3 4460   5.230   3.094  10.686 -0.7156 -0.2227  0.2543
   59SAPC    HX 4461   5.119   3.090  10.690 -0.8365  2.0674 -0.4026
   59SAPC    HY 4462   5.248   2.992  10.645 -0.1978 -0.4519  1.0308
   59SAPC   O31 4463   5.273   3.195  10.598 -0.3657 -0.0073  0.3813
   59SAPC   C31 4464   5.332   3.166  10.488  0.5335  0.6432  0.2686
   59SAPC   O32 4465   5.347   3.049  10.442  0.1437  0.7465 -0.2446
   59SAPC   C32 4466   5.384   3.296  10.426  0.8153 -0.2793 -0.2695
   59SAPC   H2X 4467   5.461   3.345  10.488  0.0082  1.1544 -0.3606
   59SAPC   H2Y 4468   5.290   3.356  10.426  0.9387 -0.0234 -2.4424
   59SAPC   C23 4469   5.693   3.006  10.627 -0.7288  0.1762 -0.0576
   59SAPC   H3R 4470   5.786   3.057  10.594  0.5917 -2.5314 -0.6561
   59SAPC   H3S 4471   5.626   3.046  10.548 -1.7239 -1.4328 -0.0536
   59SAPC   C24 4472   5.735   2.862  10.605  0.3124  0.3328  0.9828
   59SAPC   H4R 4473   5.765   2.864  10.499  0.9007 -0.4080  1.1241
   59SAPC   H4S 4474   5.647   2.794  10.612  0.5222 -0.1489 -0.8851
   59SAPC   C25 4475   5.842   2.809  10.698 -0.0139  0.0353  0.1479
   59SAPC   H5R 4476   5.795   2.762  10.786  0.3846 -0.6946 -0.0250
   59SAPC   C26 4477   5.978   2.806  10.682 -0.0380  0.1808 -0.8853
   59SAPC   H6R 4478   6.048   2.767  10.758  0.5082  2.8641  0.0641
   59SAPC   C27 4479   6.063   2.858  10.573  0.1134 -0.0527  0.2130
   59SAPC   H7R 4480   6.003   2.906  10.493 -2.1469 -0.9251  1.3300
   59SAPC   H7S 4481   6.116   2.766  10.541  1.0414  1.3650 -2.4630
   59SAPC   C28 4482   6.163   2.946  10.628  1.0983 -0.1715  0.0032
   59SAPC   H8R 4483   6.192   2.936  10.733  0.3548  3.3442  0.6049
   59SAPC   C29 4484   6.230   3.041  10.560 -0.5647 -0.1857 -0.6253
   59SAPC   H9R 4485   6.292   3.111  10.618 -0.1746 -0.2139 -0.9990
   59SAPC  C210 4486   6.210   3.079  10.414 -0.7816 -0.4510  0.0572
   59SAPC  H10R 4487   6.170   3.183  10.409 -3.1373 -1.2000  2.0675
   59SAPC  H10S 4488   6.128   3.019  10.369  0.0028 -0.6625 -1.1156
   59SAPC  C211 4489   6.342   3.068  10.339 -0.2724  0.5653 -0.5230
   59SAPC  H11R 4490   6.404   2.979  10.356 -1.4655 -0.3928 -1.1212
   59SAPC  C212 4491   6.397   3.157  10.254  0.8279  0.4551 -0.0616
   59SAPC  H12R 4492   6.491   3.129  10.204 -0.1900  0.7862 -2.2334
   59SAPC  C213 4493   6.342   3.288  10.207  0.1201  0.4762 -0.1833
   59SAPC  H13R 4494   6.416   3.366  10.236  1.0755  0.5942 -2.8148
   59SAPC  H13S 4495   6.249   3.304  10.265  1.3240  2.2861  1.3502
   59SAPC  C214 4496   6.326   3.289  10.054  0.3486  0.5655  0.6815
   59SAPC  H14R 4497   6.268   3.202  10.020 -0.3410  1.0607  0.5809
   59SAPC  C215 4498   6.366   3.388   9.968 -0.7899  0.5091  0.1296
   59SAPC  H15R 4499   6.356   3.371   9.860 -1.0141  0.0579  0.2151
   59SAPC  C216 4500   6.430   3.514   9.999 -0.2054 -0.3825 -0.0616
   59SAPC  H16R 4501   6.538   3.498  10.020 -0.4443 -2.5215 -0.3454
   59SAPC  H16S 4502   6.393   3.557  10.095 -0.4458 -1.6336  0.4230
   59SAPC  C217 4503   6.430   3.616   9.890  0.1892  0.0291 -0.4167
   59SAPC  H17R 4504   6.327   3.649   9.864  0.6805  2.8751  1.0216
   59SAPC  H17S 4505   6.468   3.579   9.792  1.2995 -0.2001  0.1080
   59SAPC  C218 4506   6.524   3.727   9.927 -0.0193 -0.1195 -0.0084
   59SAPC  H18R 4507   6.627   3.687   9.933  0.5367  1.5008  1.9980
   59SAPC  H18S 4508   6.504   3.776  10.025  1.4893  0.2687  0.1124
   59SAPC  C219 4509   6.517   3.841   9.825 -0.3287 -0.0646  0.0652
   59SAPC  H19R 4510   6.411   3.874   9.822 -0.7140 -1.3308 -0.5805
   59SAPC  H19S 4511   6.543   3.799   9.726 -0.7272 -0.7583  0.2475
   59SAPC  C220 4512   6.597   3.970   9.855 -0.2722 -0.5229  0.0976
   59SAPC  H20R 4513   6.708   3.973   9.842 -0.1911  0.9288  0.9855
   59SAPC  H20S 4514   6.597   3.981   9.966 -1.0760  0.1829  0.0311
   59SAPC  H20T 4515   6.540   4.054   9.809  0.6167  0.0652  0.0444
   59SAPC   C33 4516   5.431   3.265  10.286 -0.0545 -0.3325  0.3296
   59SAPC   H3X 4517   5.378   3.177  10.242 -1.2182  0.2641  0.5021
   59SAPC   H3Y 4518   5.535   3.233  10.307  0.1398 -1.3592 -2.1360
   59SAPC   C34 4519   5.433   3.380  10.184 -0.6782 -0.8871 -0.4447
   59SAPC   H4X 4520   5.497   3.461  10.226 -1.5106 -1.2223  1.5668
   59SAPC   H4Y 4521   5.331   3.423  10.168  0.0123  1.3970  0.9096
   59SAPC   C35 4522   5.483   3.341  10.046  0.0132  0.1254  0.0532
   59SAPC   H5X 4523   5.411   3.266  10.008 -0.5217  0.3962  0.5247
   59SAPC   H5Y 4524   5.579   3.287  10.062  1.0403  1.7129 -0.6152
   59SAPC   C36 4525   5.516   3.454   9.958  0.0456  0.7283  0.4640
   59SAPC   H6X 4526   5.592   3.519  10.006 -2.2597  1.5070  3.1751
   59SAPC   H6Y 4527   5.424   3.516   9.944 -1.6702 -1.6602  0.8010
   59SAPC   C37 4528   5.559   3.420   9.811  0.1046 -0.1623 -0.3115
   59SAPC   H7X 4529   5.480   3.360   9.760 -0.4134  0.6484 -0.4737
   59SAPC   H7Y 4530   5.654   3.363   9.813  0.3335  0.2198 -0.1657
   59SAPC   C38 4531   5.591   3.543   9.724 -0.2486  0.6759 -0.9822
   59SAPC   H8X 4532   5.672   3.606   9.764 -0.2017  0.5888 -0.9382
   59SAPC   H8Y 4533   5.498   3.603   9.713 -1.2875 -0.7902 -0.5019
   59SAPC   C39 4534   5.638   3.492   9.589  0.5018  0.9961 -0.4076
   59SAPC   H9X 4535   5.552   3.457   9.529  0.0465 -0.6949  1.1773
   59SAPC   H9Y 4536   5.706   3.406   9.602 -0.3787 -0.3713 -4.3083
   59SAPC  C310 4537   5.700   3.607   9.503 -0.2532 -0.0901  0.4864
   59SAPC  H10X 4538   5.788   3.634   9.565 -0.1345 -2.2181  1.2793
   59SAPC  H10Y 4539   5.630   3.692   9.490  0.6754  0.4641 -0.9888
   59SAPC  C311 4540   5.743   3.566   9.355 -0.4428  0.6718 -0.1156
   59SAPC  H11X 4541   5.644   3.556   9.306  0.4902  1.0440 -2.1320
   59SAPC  H11Y 4542   5.814   3.481   9.348  0.1878  1.3972 -2.8771
   59SAPC  C312 4543   5.802   3.693   9.287  0.7251 -0.1880 -0.0748
   59SAPC  H12X 4544   5.891   3.729   9.343  0.8267 -0.8166  0.1713
   59SAPC  H12Y 4545   5.716   3.762   9.299 -0.4333 -1.6925  0.3924
   59SAPC  C313 4546   5.850   3.666   9.142 -0.0412 -0.2848  0.2611
   59SAPC  H13X 4547   5.928   3.588   9.150  0.6565  0.4134  0.3483
   59SAPC  H13Y 4548   5.900   3.759   9.107  1.6441 -0.2457  2.6975
   59SAPC  C314 4549   5.745   3.611   9.039 -0.1824 -0.5795 -0.0698
   59SAPC  H14X 4550   5.672   3.691   9.015  1.4214  1.0518  0.4356
   59SAPC  H14Y 4551   5.688   3.527   9.086  1.0567 -0.6668  1.2939
   59SAPC  C315 4552   5.818   3.556   8.911  0.0652  0.8196 -0.5961
   59SAPC  H15X 4553   5.890   3.473   8.926 -1.7836 -0.6170  0.5581
   59SAPC  H15Y 4554   5.873   3.643   8.871 -0.0439  1.3434  0.3741
   59SAPC  C316 4555   5.719   3.507   8.809  0.4893  0.1727  0.6976
   59SAPC  H16X 4556   5.653   3.427   8.849  1.0440 -0.2825  0.7169
   59SAPC  H16Y 4557   5.780   3.474   8.722  2.1408  0.4323  1.7296
   59SAPC  C317 4558   5.635   3.621   8.739 -0.2538 -0.3525 -0.0936
   59SAPC  H17X 4559   5.704   3.705   8.720  1.1344 -0.8141  2.6503
   59SAPC  H17Y 4560   5.550   3.652   8.804 -1.7476 -1.1158 -1.6326
   59SAPC  C318 4561   5.563   3.561   8.614 -0.0313 -0.4706 -0.6879
   59SAPC  H18X 4562   5.504   3.468   8.632  0.7065 -0.7718  0.1848
   59SAPC  H18Y 4563   5.638   3.532   8.538 -0.2577  1.7985 -1.7957
   59SAPC  H18Z 4564   5.490   3.631   8.567  0.4058  2.0932  2.3278
   60SAPC     N 4565   0.458   1.622  11.139 -0.0511 -0.6367 -0.1619
   60SAPC   C12 4566   0.475   1.577  10.993 -0.0066  0.5135  0.1544
   60SAPC  H12A 4567   0.571   1.606  10.953  0.2425  0.9350  1.0354
   60SAPC  H12B 4568   0.395   1.616  10.933  0.9724  1.5737 -0.4772
   60SAPC   C13 4569   0.488   1.768  11.141  0.2701 -0.3101 -0.0722
   60SAPC  H13A 4570   0.408   1.825  11.097 -1.4425 -2.7091 -0.1279
   60SAPC  H13B 4571   0.513   1.817  11.233  1.5357  1.0189 -1.0904
   60SAPC  H13C 4572   0.575   1.789  11.079  0.9505 -0.7335  0.7324
   60SAPC   C14 4573   0.312   1.606  11.183 -0.2159  0.1599 -0.3700
   60SAPC  H14A 4574   0.246   1.653  11.112  1.5125 -2.0718 -3.5411
   60SAPC  H14B 4575   0.282   1.503  11.172 -2.1891  0.6081  0.4224
   60SAPC  H14C 4576   0.296   1.640  11.285  0.3859  2.7868 -1.1198
   60SAPC   C15 4577   0.559   1.556  11.225 -0.0714 -0.2084 -0.6481
   60SAPC  H15A 4578   0.549   1.448  11.230 -1.5568 -0.1478 -1.8745
   60SAPC  H15B 4579   0.662   1.570  11.198 -0.3188  1.3876 -0.7987
   60SAPC  H15C 4580   0.543   1.584  11.328  1.9012  1.0426 -0.6603
   60SAPC   C11 4581   0.462   1.425  10.965  0.5739  0.1305 -0.2804
   60SAPC  H11A 4582   0.376   1.372  11.013  1.2642 -1.1422 -0.4331
   60SAPC  H11B 4583   0.556   1.381  11.003 -0.1262 -0.0815  1.2363
   60SAPC     P 4584   0.565   1.387  10.727  0.0769  0.0862 -0.1985
   60SAPC   O13 4585   0.686   1.467  10.763  1.0225 -0.0646 -0.2056
   60SAPC   O14 4586   0.577   1.236  10.716  0.0142 -1.0112  0.0876
   60SAPC   O12 4587   0.450   1.420  10.825  0.6225  0.1167 -0.9327
   60SAPC   O11 4588   0.511   1.432  10.586  0.2027  0.0245  1.0613
   60SAPC    C1 4589   0.494   1.572  10.544 -0.6440  0.6245  0.5689
   60SAPC    HA 4590   0.390   1.608  10.559 -0.9098  0.4071 -0.6910
   60SAPC    HB 4591   0.554   1.636  10.612 -1.2120  1.2590  0.4770
   60SAPC    C2 4592   0.535   1.585  10.392  0.1315 -0.2875 -0.1057
   60SAPC    HS 4593   0.520   1.686  10.349 -0.5614 -0.3812 -0.0836
   60SAPC   O21 4594   0.472   1.489  10.300  0.0793 -0.5683 -0.4369
   60SAPC   C21 4595   0.337   1.501  10.285 -0.0833  0.0337  0.2031
   60SAPC   O22 4596   0.264   1.577  10.349 -0.1945  0.6545  0.5400
   60SAPC   C22 4597   0.289   1.382  10.201 -0.3531  0.6957 -0.2977
   60SAPC   H2R 4598   0.369   1.311  10.174 -1.3394 -0.3984 -0.3910
   60SAPC   H2S 4599   0.228   1.319  10.269  0.6256 -0.3805 -0.4051
   60SAPC    C3 4600   0.689   1.564  10.376 -0.4653 -0.3046 -0.2702
   60SAPC    HX 4601   0.732   1.470  10.416 -2.0428 -0.4074  1.2414
   60SAPC    HY 4602   0.738   1.649  10.430 -1.1404  1.1851 -1.9752
   60SAPC   O31 4603   0.726   1.591  10.238 -0.2581  0.2558 -0.0124
   60SAPC   C31 4604   0.759   1.480  10.169 -0.2466 -0.2325  0.3243
   60SAPC   O32 4605   0.771   1.369  10.214 -0.7369 -0.4538  0.3279
   60SAPC   C32 4606   0.771   1.519  10.015 -0.1359 -0.2342  0.7119
   60SAPC   H2X 4607   0.835   1.609  10.006  1.7048 -1.4586  1.1524
   60SAPC   H2Y 4608   0.669   1.551   9.986 -0.0822 -0.0894  0.6854
   60SAPC   C23 4609   0.201   1.416  10.080 -0.2196  0.4844  0.0841
   60SAPC   H3R 4610   0.135   1.500  10.109 -1.6830 -0.8799  0.7827
   60SAPC   H3S 4611   0.145   1.324  10.050  0.4063  0.7918 -2.1765
   60SAPC   C24 4612   0.290   1.454   9.956  0.3802  0.6493 -0.2346
   60SAPC   H4R 4613   0.343   1.359   9.938 -0.8318 -0.5459  2.2924
   60SAPC   H4S 4614   0.358   1.538   9.981  1.3843 -0.2769  0.1695
   60SAPC   C25 4615   0.205   1.504   9.841  0.5772 -0.2952  0.2185
   60SAPC   H5R 4616   0.228   1.609   9.817  1.5631 -0.5211  0.1742
   60SAPC   C26 4617   0.127   1.422   9.763  0.2109 -0.6477  0.5104
   60SAPC   H6R 4618   0.070   1.472   9.683  0.9899 -2.0896 -0.9655
   60SAPC   C27 4619   0.097   1.276   9.778 -0.0882  0.0696  0.0118
   60SAPC   H7R 4620   0.162   1.225   9.852 -0.1443  1.5594  1.1016
   60SAPC   H7S 4621   0.124   1.221   9.685 -0.6449 -0.0496 -0.0807
   60SAPC   C28 4622  -0.049   1.255   9.818  0.0381  0.8574  0.4783
   60SAPC   H8R 4623  -0.073   1.262   9.925 -2.8894  2.8168 -0.2573
   60SAPC   C29 4624  -0.150   1.217   9.726 -0.4341  1.3608 -0.3858
   60SAPC   H9R 4625  -0.248   1.194   9.770 -0.1299 -0.5572 -0.6235
   60SAPC  C210 4626  -0.133   1.192   9.580  0.2287 -0.5842 -0.2764
   60SAPC  H10R 4627  -0.163   1.091   9.543 -0.5495 -0.1022 -0.9707
   60SAPC  H10S 4628  -0.026   1.190   9.549 -0.5571 -2.4514 -3.0675
   60SAPC  C211 4629  -0.203   1.302   9.502  0.2259  0.3354 -0.7894
   60SAPC  H11R 4630  -0.185   1.396   9.558 -2.2626  0.8039 -0.7330
   60SAPC  C212 4631  -0.264   1.297   9.384  0.3903  0.3211  0.6392
   60SAPC  H12R 4632  -0.304   1.390   9.341 -1.5797 -0.4975  0.6508
   60SAPC  C213 4633  -0.271   1.184   9.287 -0.1566  0.0305  0.2568
   60SAPC  H13R 4634  -0.358   1.193   9.219  0.5095 -1.0334 -0.7701
   60SAPC  H13S 4635  -0.284   1.085   9.336 -0.8055 -2.2287 -4.2595
   60SAPC  C214 4636  -0.155   1.185   9.190  0.1429  0.1646  0.2203
   60SAPC  H14R 4637  -0.059   1.141   9.223  0.5427  0.5554 -0.4099
   60SAPC  C215 4638  -0.142   1.241   9.065  0.1647  0.1934 -0.1150
   60SAPC  H15R 4639  -0.043   1.243   9.017 -0.0844  0.1378 -0.6313
   60SAPC  C216 4640  -0.250   1.309   8.996 -0.4902  0.4787 -0.3684
   60SAPC  H16R 4641  -0.291   1.392   9.057  1.0074  1.7602 -1.0999
   60SAPC  H16S 4642  -0.344   1.251   8.981 -2.3279  2.9318  1.1912
   60SAPC  C217 4643  -0.198   1.365   8.862 -0.5087  0.1842 -0.5967
   60SAPC  H17R 4644  -0.285   1.409   8.809 -0.3625  1.8558  0.5172
   60SAPC  H17S 4645  -0.141   1.294   8.798  0.5782 -0.6265  1.2165
   60SAPC  C218 4646  -0.112   1.485   8.881  0.3410 -0.0060 -0.3099
   60SAPC  H18R 4647  -0.004   1.461   8.895  0.3666 -0.9463 -1.9720
   60SAPC  H18S 4648  -0.141   1.542   8.971 -0.6476 -2.6936  1.1042
   60SAPC  C219 4649  -0.116   1.588   8.760 -0.4137 -0.6005  0.0549
   60SAPC  H19R 4650  -0.052   1.674   8.788  1.0793 -1.9404  0.9102
   60SAPC  H19S 4651  -0.223   1.613   8.744 -0.5766 -2.0586 -1.2642
   60SAPC  C220 4652  -0.059   1.539   8.624  0.2908  0.0259 -0.0629
   60SAPC  H20R 4653  -0.093   1.435   8.601 -1.8892  0.7036  0.0071
   60SAPC  H20S 4654   0.052   1.543   8.619  0.1884  0.7125 -2.4637
   60SAPC  H20T 4655  -0.087   1.617   8.550 -1.8393 -0.2690  0.3765
   60SAPC   C33 4656   0.820   1.408   9.920  0.4614  0.6431  0.2585
   60SAPC   H3X 4657   0.753   1.321   9.936  1.1462  0.5361  2.7027
   60SAPC   H3Y 4658   0.924   1.381   9.948  0.3064 -1.7780 -1.3494
   60SAPC   C34 4659   0.815   1.455   9.776  0.3252 -0.6138 -0.4665
   60SAPC   H4X 4660   0.843   1.563   9.768  2.3655 -1.1275 -0.6319
   60SAPC   H4Y 4661   0.712   1.432   9.744 -0.0233  0.8811 -0.4727
   60SAPC   C35 4662   0.925   1.397   9.688 -0.0551  1.1036  0.2396
   60SAPC   H5X 4663   0.935   1.288   9.710 -1.1230  0.8443 -0.5177
   60SAPC   H5Y 4664   1.025   1.444   9.703  0.2357  0.7047 -0.3833
   60SAPC   C36 4665   0.907   1.419   9.532 -0.1900  0.2668  0.4289
   60SAPC   H6X 4666   0.995   1.377   9.478 -1.4486 -1.3547 -0.4237
   60SAPC   H6Y 4667   0.893   1.528   9.513 -0.9973  0.2222  0.7460
   60SAPC   C37 4668   0.786   1.345   9.476 -0.2737  0.3264 -0.0414
   60SAPC   H7X 4669   0.695   1.354   9.540  1.2122  0.8166  2.0555
   60SAPC   H7Y 4670   0.816   1.238   9.478  0.4210  0.5225  0.1966
   60SAPC   C38 4671   0.733   1.385   9.339 -0.6082  0.4710  0.7188
   60SAPC   H8X 4672   0.817   1.363   9.270 -0.1331  0.0930  1.4168
   60SAPC   H8Y 4673   0.719   1.494   9.322 -0.7683  0.1745 -1.2102
   60SAPC   C39 4674   0.614   1.299   9.290 -0.4369  0.1424  0.1020
   60SAPC   H9X 4675   0.529   1.298   9.362 -1.2997 -4.0052 -0.8150
   60SAPC   H9Y 4676   0.652   1.194   9.290  1.2015  0.6975  2.0066
   60SAPC  C310 4677   0.573   1.333   9.152  0.1662 -0.0831 -0.5329
   60SAPC  H10X 4678   0.626   1.426   9.125  0.0772  0.7321  1.9306
   60SAPC  H10Y 4679   0.463   1.349   9.146 -0.3927 -3.1079  0.5244
   60SAPC  C311 4680   0.588   1.219   9.052 -0.5234  0.5386 -0.0796
   60SAPC  H11X 4681   0.527   1.137   9.095 -0.4252  0.1211 -0.7145
   60SAPC  H11Y 4682   0.690   1.175   9.044 -2.6573 -5.0489  0.4969
   60SAPC  C312 4683   0.535   1.253   8.910 -0.4356 -0.7416 -0.3421
   60SAPC  H12X 4684   0.591   1.341   8.873 -1.3540 -1.0641 -2.6002
   60SAPC  H12Y 4685   0.429   1.285   8.919 -1.3173 -3.5750 -0.2185
   60SAPC  C313 4686   0.551   1.148   8.796  0.2350 -0.9675  0.4478
   60SAPC  H13X 4687   0.475   1.177   8.720 -1.1559  1.6157  2.7173
   60SAPC  H13Y 4688   0.535   1.046   8.836  2.4040 -0.9611  1.3854
   60SAPC  C314 4689   0.677   1.163   8.723  0.0703 -0.0141  0.9971
   60SAPC  H14X 4690   0.762   1.121   8.781  0.0349 -1.3991  0.0914
   60SAPC  H14Y 4691   0.698   1.271   8.708 -0.0431 -0.0043  0.9007
   60SAPC  C315 4692   0.670   1.085   8.590  0.0240  0.3556 -0.6393
   60SAPC  H15X 4693   0.750   1.123   8.522  0.8904 -0.5422 -0.1361
   60SAPC  H15Y 4694   0.572   1.117   8.548 -0.2240 -0.0657 -0.3745
   60SAPC  C316 4695   0.670   0.930   8.587 -0.1528 -0.0581  0.1187
   60SAPC  H16X 4696   0.616   0.874   8.666  2.1034 -2.2314  0.1724
   60SAPC  H16Y 4697   0.775   0.901   8.608 -0.0907  0.8013  1.0859
   60SAPC  C317 4698   0.628   0.862   8.450 -1.4825  0.4858  0.2240
   60SAPC  H17X 4699   0.654   0.924   8.362  1.5936  1.3485  1.6668
   60SAPC  H17Y 4700   0.517   0.866   8.449 -1.6448 -0.6012  4.1930
   60SAPC  C318 4701   0.676   0.717   8.433  0.2777  0.6590 -0.3575
   60SAPC  H18X 4702   0.663   0.687   8.327  1.3403  2.1039 -0.9175
   60SAPC  H18Y 4703   0.622   0.640   8.492  1.6260 -0.7968 -0.9918
   60SAPC  H18Z 4704   0.784   0.710   8.459  0.2624 -0.3298 -0.5214
   61SAPC     N 4705   2.241   0.551  10.829 -0.1128  0.4824 -0.0086
   61SAPC   C12 4706   2.123   0.633  10.783 -0.3521 -0.0619 -0.4197
   61SAPC  H12A 4707   2.154   0.707  10.710  0.0787 -1.3793 -1.5981
   61SAPC  H12B 4708   2.085   0.680  10.872  0.1960 -1.4794  0.5769
   61SAPC   C13 4709   2.215   0.467  10.952 -0.5086  0.3033 -0.4256
   61SAPC  H13A 4710   2.312   0.449  10.994 -0.0957 -1.2439 -1.9457
   61SAPC  H13B 4711   2.165   0.519  11.032 -0.9005 -0.1687 -0.3604
   61SAPC  H13C 4712   2.161   0.375  10.933 -1.0460  0.6794 -0.7447
   61SAPC   C14 4713   2.293   0.449  10.732 -0.1699 -0.2823 -0.0138
   61SAPC  H14A 4714   2.209   0.409  10.679 -0.1542  1.5510 -1.4652
   61SAPC  H14B 4715   2.363   0.493  10.662  1.0108 -1.1327  0.6018
   61SAPC  H14C 4716   2.347   0.371  10.783 -0.9874 -0.0962  1.1613
   61SAPC   C15 4717   2.342   0.655  10.865 -0.5035  0.1231 -0.7418
   61SAPC  H15A 4718   2.308   0.725  10.940 -0.3577  0.1174 -0.6676
   61SAPC  H15B 4719   2.433   0.611  10.903 -0.5821  2.1334  1.9772
   61SAPC  H15C 4720   2.375   0.713  10.780  0.8972  2.3022  1.1990
   61SAPC   C11 4721   2.008   0.570  10.708  0.5512  0.0239  1.0317
   61SAPC  H11A 4722   2.035   0.523  10.612 -0.9402  2.0222 -0.4092
   61SAPC  H11B 4723   1.942   0.652  10.672 -0.3000 -1.2435 -0.3264
   61SAPC     P 4724   1.791   0.499  10.836  0.3208  0.3151 -0.5805
   61SAPC   O13 4725   1.752   0.373  10.903 -0.1235 -0.5432 -0.2266
   61SAPC   O14 4726   1.792   0.613  10.933 -0.7756 -0.3883  0.1425
   61SAPC   O12 4727   1.942   0.478  10.782  0.0701  0.3847 -0.9482
   61SAPC   O11 4728   1.712   0.533  10.703 -0.9480 -0.6338  0.6826
   61SAPC    C1 4729   1.677   0.433  10.603 -1.2598  0.1690  0.1216
   61SAPC    HA 4730   1.723   0.336  10.631  1.8826  1.4453 -0.4135
   61SAPC    HB 4731   1.566   0.429  10.589 -1.6406  1.7777  2.4492
   61SAPC    C2 4732   1.741   0.457  10.468 -0.3504  0.4534  0.6914
   61SAPC    HS 4733   1.680   0.403  10.393 -1.0860  0.5012  1.2539
   61SAPC   O21 4734   1.870   0.387  10.456  0.0914  0.1778 -0.4058
   61SAPC   C21 4735   1.862   0.252  10.436  0.3406  0.1517 -0.3816
   61SAPC   O22 4736   1.756   0.193  10.414 -0.7527 -0.3370  0.4901
   61SAPC   C22 4737   2.003   0.199  10.403 -0.3913  0.1137 -0.2283
   61SAPC   H2R 4738   2.051   0.294  10.373  0.7771 -0.8014 -1.3116
   61SAPC   H2S 4739   2.052   0.166  10.498 -3.9783 -3.6446  0.4628
   61SAPC    C3 4740   1.757   0.607  10.429 -0.0993  0.4152  0.1646
   61SAPC    HX 4741   1.836   0.639  10.501 -0.7508  1.0852  0.5898
   61SAPC    HY 4742   1.660   0.652  10.459 -1.2540 -2.7141  1.3897
   61SAPC   O31 4743   1.792   0.629  10.289  0.0702 -0.2776  0.3208
   61SAPC   C31 4744   1.689   0.607  10.206  0.1926 -0.1690  0.8959
   61SAPC   O32 4745   1.575   0.588  10.241  0.4683  0.6425 -0.0559
   61SAPC   C32 4746   1.745   0.624  10.066 -0.0366  0.3269 -0.2867
   61SAPC   H2X 4747   1.795   0.533  10.027 -1.6451 -0.1386 -1.3342
   61SAPC   H2Y 4748   1.821   0.704  10.072  0.1699  0.0358  1.1322
   61SAPC   C23 4749   2.008   0.099  10.288 -0.4160  0.5305 -0.5534
   61SAPC   H3R 4750   1.928   0.023  10.288  0.5540 -0.5265  1.8261
   61SAPC   H3S 4751   2.102   0.040  10.296 -0.8126  0.3096  2.7882
   61SAPC   C24 4752   2.015   0.181  10.153 -0.3085 -0.1596 -0.5635
   61SAPC   H4R 4753   2.065   0.099  10.097 -0.2244  0.5409 -1.5440
   61SAPC   H4S 4754   2.092   0.261  10.162  2.1885 -2.2666 -2.3817
   61SAPC   C25 4755   1.888   0.233  10.096 -0.3178  0.1173  0.4286
   61SAPC   H5R 4756   1.814   0.280  10.163  2.3568  1.3039  2.6335
   61SAPC   C26 4757   1.857   0.218   9.966 -0.2239  0.2127  0.2467
   61SAPC   H6R 4758   1.757   0.258   9.942 -0.2482  0.5159  0.8333
   61SAPC   C27 4759   1.923   0.144   9.851  0.1812 -1.0434 -0.0675
   61SAPC   H7R 4760   2.010   0.092   9.895 -0.7798 -2.8590 -0.2466
   61SAPC   H7S 4761   1.956   0.227   9.785  2.0421 -1.5963  0.1393
   61SAPC   C28 4762   1.839   0.043   9.780  0.1231  0.6705  0.6121
   61SAPC   H8R 4763   1.856  -0.059   9.818 -1.6186  1.1218  2.7116
   61SAPC   C29 4764   1.778   0.059   9.660 -0.5511  0.3022  0.0086
   61SAPC   H9R 4765   1.738  -0.027   9.604  0.9682  0.5001 -1.4171
   61SAPC  C210 4766   1.772   0.186   9.576  0.3880  0.1162 -0.1694
   61SAPC  H10R 4767   1.869   0.203   9.523 -1.4110 -1.4804 -4.1458
   61SAPC  H10S 4768   1.768   0.276   9.641  0.1063  0.0366 -0.0777
   61SAPC  C211 4769   1.656   0.176   9.479  0.5534  0.2719 -0.9521
   61SAPC  H11R 4770   1.571   0.128   9.529 -1.3416  2.7630 -1.6788
   61SAPC  C212 4771   1.637   0.212   9.354  0.3815  0.4843  0.0855
   61SAPC  H12R 4772   1.541   0.180   9.311  1.1779  0.7443 -1.9192
   61SAPC  C213 4773   1.741   0.273   9.264 -0.3290 -0.8188 -0.0726
   61SAPC  H13R 4774   1.800   0.336   9.335  1.0929 -1.2033 -0.8934
   61SAPC  H13S 4775   1.691   0.351   9.203  0.0591 -0.3848  0.1584
   61SAPC  C214 4776   1.838   0.183   9.197  0.0313  0.4990  0.3933
   61SAPC  H14R 4777   1.820   0.080   9.231 -2.0897  1.6506  2.9019
   61SAPC  C215 4778   1.920   0.202   9.087  0.3014 -0.1279 -0.7314
   61SAPC  H15R 4779   1.961   0.117   9.032 -1.4033 -1.3814 -0.1362
   61SAPC  C216 4780   1.929   0.336   9.024 -0.4604  0.2131 -0.8056
   61SAPC  H16R 4781   2.038   0.350   9.009 -0.0997 -1.0698  0.5003
   61SAPC  H16S 4782   1.894   0.422   9.085 -4.0333 -0.5057 -1.7100
   61SAPC  C217 4783   1.861   0.358   8.890 -0.4565 -0.0536 -0.2042
   61SAPC  H17R 4784   1.862   0.467   8.869  1.7543 -0.0442 -0.1967
   61SAPC  H17S 4785   1.754   0.330   8.896 -0.5032  0.4380  1.5231
   61SAPC  C218 4786   1.941   0.288   8.776 -0.1766  0.0492 -0.3082
   61SAPC  H18R 4787   1.950   0.177   8.780  1.5391  0.2375  1.6983
   61SAPC  H18S 4788   2.040   0.338   8.773 -0.0681 -0.1826 -0.6096
   61SAPC  C219 4789   1.890   0.334   8.638 -0.5148  0.1638  0.1385
   61SAPC  H19R 4790   1.881   0.444   8.630  1.8521  0.4745  1.3312
   61SAPC  H19S 4791   1.790   0.289   8.621 -1.4429  1.8711  1.0049
   61SAPC  C220 4792   1.987   0.285   8.524  0.4124 -0.5376  1.0726
   61SAPC  H20R 4793   2.086   0.335   8.526 -0.5359  1.4423 -0.5394
   61SAPC  H20S 4794   1.951   0.329   8.429  2.9870 -2.1925 -0.7468
   61SAPC  H20T 4795   1.974   0.175   8.513  0.7616 -0.5049  0.2747
   61SAPC   C33 4796   1.634   0.668   9.957 -0.8417  0.5912 -0.4910
   61SAPC   H3X 4797   1.683   0.715   9.869  0.0905  0.7253  0.0956
   61SAPC   H3Y 4798   1.570   0.756   9.982 -1.2770  0.4278 -1.0340
   61SAPC   C34 4799   1.553   0.540   9.911  0.5321 -0.2194 -0.7720
   61SAPC   H4X 4800   1.506   0.500  10.004  0.5775  1.5567  0.0515
   61SAPC   H4Y 4801   1.630   0.463   9.889  0.5775 -0.2700 -0.4432
   61SAPC   C35 4802   1.436   0.548   9.819 -0.1792  0.4237  0.4239
   61SAPC   H5X 4803   1.340   0.573   9.869 -0.8382 -1.1457 -0.0369
   61SAPC   H5Y 4804   1.424   0.448   9.773  3.6464 -0.6923  1.6781
   61SAPC   C36 4805   1.436   0.647   9.701  0.2899 -0.1085 -0.7670
   61SAPC   H6X 4806   1.469   0.749   9.728  1.3278 -1.0829  1.8187
   61SAPC   H6Y 4807   1.334   0.653   9.659  0.7157 -0.4192 -1.8645
   61SAPC   C37 4808   1.529   0.598   9.584  0.9751 -0.6691 -0.7882
   61SAPC   H7X 4809   1.580   0.501   9.604 -1.7809 -1.8311  0.9499
   61SAPC   H7Y 4810   1.611   0.671   9.567 -1.4148  2.4020  0.4964
   61SAPC   C38 4811   1.445   0.590   9.458  0.2306 -0.8221 -0.4763
   61SAPC   H8X 4812   1.377   0.677   9.442 -0.3603 -1.2625 -0.3711
   61SAPC   H8Y 4813   1.387   0.496   9.450 -1.8093  0.3071  0.6700
   61SAPC   C39 4814   1.524   0.593   9.322  0.2903 -0.4499 -0.3673
   61SAPC   H9X 4815   1.593   0.506   9.320  1.7106  0.6405  0.3715
   61SAPC   H9Y 4816   1.584   0.685   9.306  1.0701 -1.1752 -1.7558
   61SAPC  C310 4817   1.419   0.591   9.209 -0.5045 -0.0578  0.4621
   61SAPC  H10X 4818   1.328   0.633   9.255  0.0194  0.2462  1.2406
   61SAPC  H10Y 4819   1.404   0.488   9.171  1.2385 -1.0677  2.3787
   61SAPC  C311 4820   1.449   0.686   9.096  0.2995 -0.5135 -0.0900
   61SAPC  H11X 4821   1.466   0.789   9.135  1.1176 -0.7378  0.1473
   61SAPC  H11Y 4822   1.360   0.686   9.029 -0.0513  0.6937  0.3597
   61SAPC  C312 4823   1.564   0.640   9.002 -0.0312  0.6919  0.5810
   61SAPC  H12X 4824   1.560   0.533   8.973  0.9298  0.8962 -0.3686
   61SAPC  H12Y 4825   1.661   0.662   9.052  1.1393  4.1286 -2.8898
   61SAPC  C313 4826   1.560   0.728   8.878  0.3941  0.3552 -0.0433
   61SAPC  H13X 4827   1.577   0.835   8.906  2.2309  0.0870 -0.0839
   61SAPC  H13Y 4828   1.452   0.726   8.852  0.6818 -0.2041 -1.2362
   61SAPC  C314 4829   1.635   0.685   8.754  0.2898 -0.2767  0.0463
   61SAPC  H14X 4830   1.745   0.684   8.771  0.4462 -1.0582 -0.9245
   61SAPC  H14Y 4831   1.602   0.754   8.674  0.5852 -0.7711 -0.5045
   61SAPC  C315 4832   1.599   0.547   8.688 -0.0971  0.9558 -0.6234
   61SAPC  H15X 4833   1.608   0.473   8.770 -0.3372  0.9145 -0.6325
   61SAPC  H15Y 4834   1.674   0.527   8.609  1.0641  3.4733 -0.1939
   61SAPC  C316 4835   1.468   0.544   8.610 -0.5866  0.1167 -0.3250
   61SAPC  H16X 4836   1.467   0.634   8.544  1.0229  0.2227 -0.2301
   61SAPC  H16Y 4837   1.390   0.570   8.685  1.2339  1.2556  1.2314
   61SAPC  C317 4838   1.448   0.423   8.525 -0.3310 -0.5384  0.1986
   61SAPC  H17X 4839   1.455   0.328   8.581  0.2719 -0.3799  0.3933
   61SAPC  H17Y 4840   1.531   0.413   8.452 -1.5783 -0.4638 -1.2681
   61SAPC  C318 4841   1.311   0.414   8.454  0.0603  0.1327  0.4219
   61SAPC  H18X 4842   1.308   0.360   8.357  1.3914  0.6661  0.0789
   61SAPC  H18Y 4843   1.256   0.510   8.446  1.6749  0.9314 -1.4957
   61SAPC  H18Z 4844   1.238   0.355   8.513 -0.6349  0.2205 -0.3401
   62SAPC     N 4845   0.326   6.061  10.683 -0.9393  0.0460 -0.2424
   62SAPC   C12 4846   0.463   6.134  10.704  0.3118  0.2081  0.6284
   62SAPC  H12A 4847   0.467   6.216  10.634 -0.3508  1.9177  2.5078
   62SAPC  H12B 4848   0.544   6.067  10.684 -0.9243 -1.3050  0.5903
   62SAPC   C13 4849   0.284   5.962  10.780  0.6054  1.0668 -0.1296
   62SAPC  H13A 4850   0.188   5.923  10.748  1.6800 -0.7317 -1.2225
   62SAPC  H13B 4851   0.347   5.875  10.794 -0.5969  0.3344  0.9025
   62SAPC  H13C 4852   0.267   6.012  10.874 -0.0151  0.2315  0.2141
   62SAPC   C14 4853   0.224   6.167  10.670  0.1510  0.4907  0.3019
   62SAPC  H14A 4854   0.228   6.228  10.581 -2.6640  0.1165 -0.1251
   62SAPC  H14B 4855   0.122   6.138  10.687  0.4323 -0.3807  0.5227
   62SAPC  H14C 4856   0.254   6.238  10.746 -3.0258  0.7878  1.3515
   62SAPC   C15 4857   0.317   5.986  10.554  0.4960  0.2822  0.8445
   62SAPC  H15A 4858   0.321   6.054  10.470  0.2800  1.2339  1.5937
   62SAPC  H15B 4859   0.399   5.916  10.545  1.3528  1.2186  1.3775
   62SAPC  H15C 4860   0.226   5.927  10.554 -0.2881  1.4779  0.9112
   62SAPC   C11 4861   0.497   6.196  10.845 -0.1700  0.2311 -0.4499
   62SAPC  H11A 4862   0.601   6.231  10.834  0.7393 -2.4925 -0.8011
   62SAPC  H11B 4863   0.507   6.118  10.924  0.4375  0.7913  0.0297
   62SAPC     P 4864   0.414   6.448  10.833 -0.0228 -0.0147  0.0326
   62SAPC   O13 4865   0.287   6.501  10.781 -0.1462 -0.7504 -0.2221
   62SAPC   O14 4866   0.479   6.514  10.944 -0.2120  0.0011 -0.2582
   62SAPC   O12 4867   0.399   6.293  10.876 -0.0918  0.4041  0.1053
   62SAPC   O11 4868   0.511   6.453  10.707  0.4214  0.1705 -0.5141
   62SAPC    C1 4869   0.592   6.574  10.678 -0.0914 -0.0540  0.7840
   62SAPC    HA 4870   0.524   6.661  10.665  2.3046  1.9759  1.3579
   62SAPC    HB 4871   0.653   6.605  10.765  0.4045  1.4880 -0.0826
   62SAPC    C2 4872   0.685   6.537  10.564  0.5791 -0.3343  1.1775
   62SAPC    HS 4873   0.760   6.617  10.551 -0.2072  0.0806 -0.9991
   62SAPC   O21 4874   0.601   6.526  10.441  0.2748 -0.4358 -0.0330
   62SAPC   C21 4875   0.560   6.640  10.383 -0.0332 -0.2553  0.5048
   62SAPC   O22 4876   0.584   6.754  10.420 -0.4369  0.3477 -0.6037
   62SAPC   C22 4877   0.497   6.595  10.246 -0.1098 -0.1081  0.3008
   62SAPC   H2R 4878   0.572   6.538  10.187 -0.4561 -1.8703  1.5057
   62SAPC   H2S 4879   0.416   6.522  10.268 -0.4295 -1.2489 -4.2122
   62SAPC    C3 4880   0.760   6.402  10.570  0.5208  0.2224 -0.0350
   62SAPC    HX 4881   0.692   6.316  10.590 -0.4831  0.7694 -1.0272
   62SAPC    HY 4882   0.831   6.416  10.655 -2.8442  1.5364  2.7029
   62SAPC   O31 4883   0.837   6.378  10.455  0.0707 -0.0406  0.0049
   62SAPC   C31 4884   0.778   6.302  10.366  0.4788  0.1874 -0.1664
   62SAPC   O32 4885   0.665   6.255  10.365  0.2454  0.6314 -0.5957
   62SAPC   C32 4886   0.876   6.282  10.245 -0.3107 -0.2122 -0.1586
   62SAPC   H2X 4887   0.967   6.230  10.282 -0.1975 -0.1112 -0.2941
   62SAPC   H2Y 4888   0.910   6.384  10.217  1.8306 -0.7776  0.2711
   62SAPC   C23 4889   0.449   6.729  10.179 -0.0922 -0.3060 -0.3374
   62SAPC   H3R 4890   0.536   6.776  10.128 -0.0150 -1.7181 -1.5737
   62SAPC   H3S 4891   0.410   6.807  10.247  1.5408 -0.6281  0.9946
   62SAPC   C24 4892   0.328   6.707  10.086  0.4675  0.8065 -0.1754
   62SAPC   H4R 4893   0.310   6.802  10.032  3.4935  1.9126  0.6448
   62SAPC   H4S 4894   0.248   6.691  10.161  0.9364 -1.7146 -0.1588
   62SAPC   C25 4895   0.355   6.597   9.985  0.0506 -0.0183  0.3874
   62SAPC   H5R 4896   0.451   6.544   9.997  0.0741  0.2858  1.6165
   62SAPC   C26 4897   0.266   6.557   9.889 -0.0474 -1.3454 -0.4398
   62SAPC   H6R 4898   0.295   6.480   9.816 -1.7636 -1.8881 -0.5838
   62SAPC   C27 4899   0.133   6.623   9.867 -0.3002 -0.4826  0.0910
   62SAPC   H7R 4900   0.112   6.709   9.934  0.4255  2.3743 -3.1550
   62SAPC   H7S 4901   0.065   6.540   9.896 -0.0034 -0.4892  0.7762
   62SAPC   C28 4902   0.096   6.661   9.723 -0.4193 -0.0382  0.4191
   62SAPC   H8R 4903   0.178   6.717   9.677  1.8449 -3.4967  0.1066
   62SAPC   C29 4904  -0.003   6.622   9.643  0.1308 -0.2268  0.0874
   62SAPC   H9R 4905  -0.011   6.662   9.541  0.9884 -0.2017  0.0280
   62SAPC  C210 4906  -0.102   6.521   9.688  0.2480  0.3235  0.1642
   62SAPC  H10R 4907  -0.061   6.435   9.745 -1.3848 -1.4916 -1.3139
   62SAPC  H10S 4908  -0.143   6.468   9.599 -0.9662 -0.2011  1.0196
   62SAPC  C211 4909  -0.215   6.585   9.770  0.1783  0.8308  0.4818
   62SAPC  H11R 4910  -0.180   6.620   9.868  1.2807 -0.0129  0.3931
   62SAPC  C212 4911  -0.348   6.604   9.727 -0.8046  0.6545  0.2232
   62SAPC  H12R 4912  -0.414   6.666   9.789  0.0316  0.2604  1.5173
   62SAPC  C213 4913  -0.399   6.578   9.595  0.3849  0.9928 -0.2882
   62SAPC  H13R 4914  -0.510   6.573   9.599  0.3786 -0.9237 -1.5938
   62SAPC  H13S 4915  -0.369   6.473   9.575 -1.0138  1.0592 -3.0388
   62SAPC  C214 4916  -0.349   6.676   9.488  0.2503  0.3921  0.3694
   62SAPC  H14R 4917  -0.369   6.780   9.516  2.2710  0.8755  0.1277
   62SAPC  C215 4918  -0.276   6.648   9.373  0.0040  0.0588  0.1436
   62SAPC  H15R 4919  -0.244   6.729   9.306  0.2429 -0.8211 -0.8310
   62SAPC  C216 4920  -0.238   6.512   9.315 -0.6167 -0.0038 -0.2366
   62SAPC  H16R 4921  -0.265   6.511   9.207  1.3771 -0.4990 -0.7419
   62SAPC  H16S 4922  -0.279   6.423   9.367  0.4866 -1.3568 -1.6796
   62SAPC  C217 4923  -0.081   6.476   9.302  0.8163  0.7243 -0.8220
   62SAPC  H17R 4924  -0.066   6.376   9.256  0.6198  0.8346 -1.1312
   62SAPC  H17S 4925  -0.031   6.492   9.400  1.6649 -0.3885 -1.0674
   62SAPC  C218 4926  -0.007   6.565   9.202  0.4646 -0.2039 -0.4245
   62SAPC  H18R 4927  -0.038   6.664   9.240  1.6507 -0.6960  1.8835
   62SAPC  H18S 4928  -0.061   6.561   9.105 -0.7264  1.2170  0.1772
   62SAPC  C219 4929   0.142   6.545   9.181 -0.8242  0.3574  0.3805
   62SAPC  H19R 4930   0.177   6.628   9.116  1.3046 -0.3694  0.5699
   62SAPC  H19S 4931   0.153   6.449   9.128  0.2746 -0.1501  1.4832
   62SAPC  C220 4932   0.217   6.517   9.315 -0.2101 -0.1044  0.4025
   62SAPC  H20R 4933   0.327   6.529   9.307 -0.2657  1.2726  1.6377
   62SAPC  H20S 4934   0.199   6.417   9.360  2.3823  0.1663  2.1261
   62SAPC  H20T 4935   0.191   6.598   9.386  0.2771  1.4144 -1.1003
   62SAPC   C33 4936   0.809   6.216  10.123  0.2732 -0.5864 -0.4097
   62SAPC   H3X 4937   0.708   6.260  10.119  0.8073  0.6519 -0.4629
   62SAPC   H3Y 4938   0.790   6.108  10.140 -2.4542  0.1111  1.3144
   62SAPC   C34 4939   0.879   6.237   9.986 -0.1623 -0.0621 -0.6624
   62SAPC   H4X 4940   0.935   6.143   9.967  0.4688  0.1653  0.0356
   62SAPC   H4Y 4941   0.947   6.325   9.983  0.4698 -0.5043  0.2286
   62SAPC   C35 4942   0.770   6.235   9.877  1.0135  0.3631  0.4176
   62SAPC   H5X 4943   0.717   6.332   9.865 -2.3896 -1.6349 -1.3389
   62SAPC   H5Y 4944   0.691   6.166   9.913 -0.4834  1.3721 -0.8563
   62SAPC   C36 4945   0.826   6.198   9.741 -0.1879  0.1156  0.2347
   62SAPC   H6X 4946   0.804   6.091   9.716 -0.4429  0.2753 -0.2281
   62SAPC   H6Y 4947   0.936   6.203   9.736 -0.3374  2.9431 -1.3029
   62SAPC   C37 4948   0.766   6.284   9.628  0.1258  0.2942  0.0478
   62SAPC   H7X 4949   0.786   6.393   9.638 -4.2127  1.5946 -3.5218
   62SAPC   H7Y 4950   0.655   6.279   9.627  0.2212 -3.6454 -2.2102
   62SAPC   C38 4951   0.829   6.239   9.494 -0.9063  0.2709 -0.2781
   62SAPC   H8X 4952   0.789   6.137   9.477 -1.0779  0.3288 -0.2262
   62SAPC   H8Y 4953   0.939   6.225   9.500 -1.0999 -2.2655 -2.0235
   62SAPC   C39 4954   0.790   6.329   9.375  0.2240  0.5827  0.8196
   62SAPC   H9X 4955   0.843   6.425   9.392  0.1556  0.8668 -0.5109
   62SAPC   H9Y 4956   0.680   6.343   9.366  0.1300 -0.1572  0.8050
   62SAPC  C310 4957   0.836   6.274   9.239  0.3384  0.2354  0.3221
   62SAPC  H10X 4958   0.798   6.170   9.235 -0.6547  0.6712 -2.8966
   62SAPC  H10Y 4959   0.945   6.256   9.232  0.5549  0.1017  3.4223
   62SAPC  C311 4960   0.772   6.367   9.129 -0.3664 -0.8898  0.2092
   62SAPC  H11X 4961   0.806   6.471   9.146  0.8512 -1.4760  1.5327
   62SAPC  H11Y 4962   0.662   6.358   9.124 -0.6764  0.9168  2.8777
   62SAPC  C312 4963   0.839   6.322   9.000  0.9842  0.4155 -0.2891
   62SAPC  H12X 4964   0.765   6.253   8.955 -0.6954  0.6834  1.9855
   62SAPC  H12Y 4965   0.925   6.253   9.013  0.5321 -0.7008 -2.9661
   62SAPC  C313 4966   0.898   6.432   8.915  0.2645  0.0096  0.2874
   62SAPC  H13X 4967   0.967   6.493   8.977  0.1444  2.4346 -1.8735
   62SAPC  H13Y 4968   0.816   6.496   8.878 -0.7880 -1.9711 -0.9049
   62SAPC  C314 4969   0.975   6.373   8.798 -0.1362 -0.4006  0.2213
   62SAPC  H14X 4970   1.036   6.291   8.842 -1.3674 -0.5101  1.7639
   62SAPC  H14Y 4971   1.034   6.462   8.769  1.1484 -0.1603  3.3462
   62SAPC  C315 4972   0.880   6.320   8.689 -0.3146 -0.2787 -0.3362
   62SAPC  H15X 4973   0.835   6.409   8.641 -1.3577  0.4204  1.8461
   62SAPC  H15Y 4974   0.804   6.248   8.726  0.8490 -1.2274  0.2577
   62SAPC  C316 4975   0.966   6.253   8.578 -0.0365  0.2289  0.6817
   62SAPC  H16X 4976   0.975   6.145   8.602  0.0875  0.0782 -0.0179
   62SAPC  H16Y 4977   1.072   6.286   8.572  0.8109 -2.2839  1.2860
   62SAPC  C317 4978   0.901   6.263   8.440 -0.5202 -0.6115 -1.0463
   62SAPC  H17X 4979   0.883   6.371   8.419  1.3330 -0.0165  0.3028
   62SAPC  H17Y 4980   0.804   6.209   8.444 -1.9232  1.8262 -1.1353
   62SAPC  C318 4981   0.995   6.190   8.344 -0.0120 -0.0771 -0.0659
   62SAPC  H18X 4982   1.027   6.092   8.385  0.6560 -0.6495 -1.8991
   62SAPC  H18Y 4983   1.088   6.250   8.332 -0.4075  0.1961 -2.0278
   62SAPC  H18Z 4984   0.938   6.178   8.249  0.1298  0.2564 -0.1933
   63SAPC     N 4985   4.977   5.607   5.980  0.4319 -0.5448 -1.0474
   63SAPC   C12 4986   4.956   5.649   6.123 -0.7692 -0.4541  0.7231
   63SAPC  H12A 4987   4.879   5.725   6.124 -1.0560 -0.7081 -0.5492
   63SAPC  H12B 4988   5.046   5.693   6.164  0.6709 -2.1079 -0.5524
   63SAPC   C13 4989   5.051   5.715   5.912 -0.1162 -0.1429 -0.1466
   63SAPC  H13A 4990   4.983   5.798   5.903 -3.8229 -3.1918 -1.5663
   63SAPC  H13B 4991   5.135   5.745   5.974 -2.5883  1.4241  2.5436
   63SAPC  H13C 4992   5.085   5.682   5.814  0.1948 -0.2561 -0.0021
   63SAPC   C14 4993   5.063   5.489   5.970 -0.2771  0.4764  0.3994
   63SAPC  H14A 4994   5.164   5.515   5.998 -0.4137  0.6418  0.7361
   63SAPC  H14B 4995   5.031   5.414   6.041 -0.6372  0.8901  0.6722
   63SAPC  H14C 4996   5.075   5.461   5.867  0.3407  3.5986 -0.4257
   63SAPC   C15 4997   4.853   5.577   5.913  0.1031  0.0746  0.0309
   63SAPC  H15A 4998   4.786   5.661   5.924  0.2194  0.2749 -0.7627
   63SAPC  H15B 4999   4.857   5.551   5.808 -3.8505 -0.0973 -0.1789
   63SAPC  H15C 5000   4.805   5.489   5.955  1.4421 -1.1372 -0.9490
   63SAPC   C11 5001   4.922   5.532   6.223  0.3534  0.1664  0.4968
   63SAPC  H11A 5002   4.827   5.486   6.188  0.7216  0.5956 -1.1256
   63SAPC  H11B 5003   4.910   5.592   6.316  0.7336  3.9298 -1.7809
   63SAPC     P 5004   5.145   5.442   6.335  0.2473  0.4781 -0.0255
   63SAPC   O13 5005   5.259   5.363   6.277  0.2201  0.1662 -0.6473
   63SAPC   O14 5006   5.168   5.584   6.356  0.1237 -0.3144  0.4545
   63SAPC   O12 5007   5.017   5.427   6.239 -0.1351 -0.0330 -0.2013
   63SAPC   O11 5008   5.093   5.365   6.469 -0.2675  0.4617  0.4796
   63SAPC    C1 5009   5.186   5.342   6.582  0.4140 -0.3666 -0.0019
   63SAPC    HA 5010   5.185   5.235   6.613 -0.5315 -0.5927 -0.7966
   63SAPC    HB 5011   5.290   5.366   6.550 -0.0126  0.2950 -0.9119
   63SAPC    C2 5012   5.155   5.425   6.715 -0.0640  0.7774 -0.5622
   63SAPC    HS 5013   5.234   5.389   6.784  0.0623 -0.1451 -1.1753
   63SAPC   O21 5014   5.016   5.396   6.766 -0.6719 -0.1494  0.6003
   63SAPC   C21 5015   5.011   5.282   6.831 -0.2149  0.1862 -0.4187
   63SAPC   O22 5016   5.107   5.211   6.852  0.7753  0.3744  0.2890
   63SAPC   C22 5017   4.866   5.261   6.872 -0.0639 -0.5094  0.3173
   63SAPC   H2R 5018   4.829   5.357   6.911  0.3510 -0.2946  0.1880
   63SAPC   H2S 5019   4.804   5.254   6.780  0.8699 -1.7042 -0.2509
   63SAPC    C3 5020   5.170   5.580   6.688  0.0770  0.6546 -0.4122
   63SAPC    HX 5021   5.088   5.597   6.614 -0.4027 -4.0747 -1.1251
   63SAPC    HY 5022   5.269   5.599   6.642  2.3493 -0.1536  3.9172
   63SAPC   O31 5023   5.152   5.655   6.812 -0.1749  0.5138  0.0116
   63SAPC   C31 5024   5.123   5.786   6.796 -0.0352  0.3474 -0.0784
   63SAPC   O32 5025   5.103   5.842   6.688  0.2935  0.0740  0.1608
   63SAPC   C32 5026   5.115   5.859   6.933 -0.0940  1.2946 -0.5815
   63SAPC   H2X 5027   5.009   5.892   6.944 -0.6153 -0.0327 -1.5230
   63SAPC   H2Y 5028   5.183   5.946   6.927  0.4236  1.1094  1.9186
   63SAPC   C23 5029   4.841   5.133   6.957  0.3932  0.0126  0.1841
   63SAPC   H3R 5030   4.888   5.044   6.911  0.5235 -0.3124  0.9424
   63SAPC   H3S 5031   4.731   5.123   6.968  0.4308 -1.3505 -0.5826
   63SAPC   C24 5032   4.898   5.143   7.103 -0.2081  0.2553  0.1241
   63SAPC   H4R 5033   5.009   5.148   7.094 -0.2520  1.4233  0.2539
   63SAPC   H4S 5034   4.864   5.044   7.141 -0.3223 -0.1617 -1.0492
   63SAPC   C25 5035   4.845   5.256   7.187 -0.5014  0.4336 -0.3990
   63SAPC   H5R 5036   4.736   5.267   7.192 -0.8534 -2.4905 -0.6755
   63SAPC   C26 5037   4.917   5.335   7.263 -0.6479 -0.3565 -0.1896
   63SAPC   H6R 5038   4.866   5.397   7.338  1.7408  2.5970 -0.8778
   63SAPC   C27 5039   5.067   5.342   7.271  0.1669  0.2862  0.1638
   63SAPC   H7R 5040   5.104   5.345   7.167  0.6115  3.3868  0.3747
   63SAPC   H7S 5041   5.103   5.244   7.310  0.1499 -0.0155 -0.5782
   63SAPC   C28 5042   5.118   5.449   7.356  0.5670  0.0167  0.4919
   63SAPC   H8R 5043   5.120   5.544   7.302  2.3714 -0.4716 -0.3612
   63SAPC   C29 5044   5.129   5.450   7.489 -0.4725 -0.5335 -0.5100
   63SAPC   H9R 5045   5.161   5.538   7.546  0.2857 -1.6519  0.8555
   63SAPC  C210 5046   5.094   5.337   7.577 -0.1703  0.3341 -0.1346
   63SAPC  H10R 5047   5.059   5.254   7.512 -1.0770  1.2437 -0.8362
   63SAPC  H10S 5048   5.014   5.358   7.651  1.4647  1.2123  1.4218
   63SAPC  C211 5049   5.211   5.283   7.653  0.6932 -0.1302 -0.7696
   63SAPC  H11R 5050   5.245   5.189   7.608  0.3666 -0.0581 -1.1753
   63SAPC  C212 5051   5.241   5.311   7.781 -0.2287 -0.1971 -0.2856
   63SAPC  H12R 5052   5.311   5.250   7.838  0.6140  2.5909  1.7819
   63SAPC  C213 5053   5.168   5.415   7.872 -0.2882  0.5442 -0.1121
   63SAPC  H13R 5054   5.062   5.424   7.842 -0.8410 -0.9751  1.3408
   63SAPC  H13S 5055   5.220   5.513   7.859  0.5863 -0.0140 -0.9044
   63SAPC  C214 5056   5.157   5.382   8.020  0.5368  0.0889 -0.4123
   63SAPC  H14R 5057   5.056   5.354   8.055 -0.2301 -0.1964 -2.7412
   63SAPC  C215 5058   5.253   5.372   8.109  0.1499  0.5648 -0.0813
   63SAPC  H15R 5059   5.220   5.335   8.207  1.3109 -1.6744 -0.5077
   63SAPC  C216 5060   5.406   5.393   8.084 -0.0685  0.1836 -0.2633
   63SAPC  H16R 5061   5.419   5.475   8.010 -1.8838  0.9492  0.2460
   63SAPC  H16S 5062   5.468   5.308   8.048 -0.6909  0.1976 -1.4048
   63SAPC  C217 5063   5.470   5.453   8.217 -0.1506  0.7802 -0.4570
   63SAPC  H17R 5064   5.405   5.537   8.248  0.1234  0.7899  0.1052
   63SAPC  H17S 5065   5.573   5.485   8.190 -0.5996  2.7803  0.1272
   63SAPC  C218 5066   5.465   5.352   8.335  0.2187 -0.2450 -0.3442
   63SAPC  H18R 5067   5.500   5.251   8.305  2.3752 -0.0137  1.2948
   63SAPC  H18S 5068   5.360   5.348   8.371 -0.0213 -1.7238 -1.1863
   63SAPC  C219 5069   5.553   5.405   8.448  0.1447 -0.2060  0.9804
   63SAPC  H19R 5070   5.522   5.509   8.471 -0.3978  0.3526 -2.0161
   63SAPC  H19S 5071   5.655   5.419   8.406 -0.4009  1.2694  0.1240
   63SAPC  C220 5072   5.557   5.320   8.570  0.5970  0.2159 -0.3069
   63SAPC  H20R 5073   5.465   5.334   8.630  0.3924  0.8563 -0.7553
   63SAPC  H20S 5074   5.648   5.350   8.626  1.5111  0.2927 -1.7991
   63SAPC  H20T 5075   5.570   5.213   8.546  2.0355  0.3964 -0.3590
   63SAPC   C33 5076   5.171   5.771   7.049 -0.1753 -0.6801 -0.2462
   63SAPC   H3X 5077   5.116   5.675   7.056 -4.0899  1.1258 -3.9924
   63SAPC   H3Y 5078   5.144   5.837   7.134  0.6066  0.4860 -0.8738
   63SAPC   C34 5079   5.325   5.755   7.046  0.0607  0.3753 -0.4813
   63SAPC   H4X 5080   5.384   5.849   7.039  1.1504 -0.3118 -0.6640
   63SAPC   H4Y 5081   5.354   5.715   6.946 -3.2565  0.4059 -1.5020
   63SAPC   C35 5082   5.382   5.662   7.147 -0.1664  0.3300 -0.4356
   63SAPC   H5X 5083   5.489   5.640   7.123 -0.1736 -0.6419  0.4032
   63SAPC   H5Y 5084   5.328   5.565   7.151 -0.5806  0.6586  2.3062
   63SAPC   C36 5085   5.382   5.709   7.292  0.3992  0.2744  0.1771
   63SAPC   H6X 5086   5.428   5.625   7.350  1.2981 -0.1991 -1.1918
   63SAPC   H6Y 5087   5.278   5.726   7.326 -0.3400  0.5579 -2.2053
   63SAPC   C37 5088   5.455   5.850   7.327  0.1872 -0.1295 -0.7260
   63SAPC   H7X 5089   5.427   5.919   7.245 -1.3229 -0.8563 -0.8451
   63SAPC   H7Y 5090   5.566   5.847   7.326  0.3888  1.5569  3.7720
   63SAPC   C38 5091   5.387   5.904   7.457  0.1159  0.4933 -0.2079
   63SAPC   H8X 5092   5.278   5.913   7.434  0.3808 -0.7138 -2.0044
   63SAPC   H8Y 5093   5.435   6.004   7.470  0.3656  0.1903  1.2678
   63SAPC   C39 5094   5.420   5.820   7.582 -0.4789  0.2376 -0.4434
   63SAPC   H9X 5095   5.527   5.787   7.582 -0.1322  1.3349  0.3158
   63SAPC   H9Y 5096   5.367   5.722   7.585 -2.6591  1.2404 -3.7917
   63SAPC  C310 5097   5.407   5.889   7.718  0.7275  0.0343  0.2179
   63SAPC  H10X 5098   5.303   5.926   7.731  0.5219  0.7346 -2.8651
   63SAPC  H10Y 5099   5.475   5.976   7.717 -1.2425  1.6337 -1.0747
   63SAPC  C311 5100   5.438   5.807   7.840  0.3038 -0.3323 -0.6496
   63SAPC  H11X 5101   5.531   5.751   7.818  0.5993  0.4658 -1.4730
   63SAPC  H11Y 5102   5.348   5.749   7.870  0.5216 -0.0998  0.4524
   63SAPC  C312 5103   5.478   5.895   7.965 -0.5473 -0.0816 -0.2869
   63SAPC  H12X 5104   5.384   5.941   8.000 -0.4763  0.4026 -0.7190
   63SAPC  H12Y 5105   5.548   5.977   7.936 -0.5776 -1.0191 -3.1219
   63SAPC  C313 5106   5.540   5.802   8.073 -0.0769  0.1361  0.0585
   63SAPC  H13X 5107   5.623   5.752   8.019 -1.9044 -0.8041 -1.9563
   63SAPC  H13Y 5108   5.468   5.723   8.103 -0.9884  0.6279 -0.7822
   63SAPC  C314 5109   5.599   5.876   8.189  0.4996  0.9247  0.0293
   63SAPC  H14X 5110   5.525   5.942   8.239  0.8691  0.9383  0.5651
   63SAPC  H14Y 5111   5.693   5.927   8.157 -0.1086  0.3362 -2.8105
   63SAPC  C315 5112   5.631   5.780   8.306  0.3536  0.3169  0.6756
   63SAPC  H15X 5113   5.714   5.715   8.271 -0.8260 -0.3161 -1.0009
   63SAPC  H15Y 5114   5.545   5.716   8.336 -0.2784  0.9523  0.2498
   63SAPC  C316 5115   5.680   5.869   8.426  0.2095 -0.3978 -0.1445
   63SAPC  H16X 5116   5.594   5.919   8.474  0.2641 -1.1778  0.7855
   63SAPC  H16Y 5117   5.736   5.962   8.403 -1.8568  0.3756 -2.1680
   63SAPC  C317 5118   5.766   5.790   8.522 -0.2138  0.1482 -0.0146
   63SAPC  H17X 5119   5.711   5.718   8.585  0.9739 -2.3097 -1.7069
   63SAPC  H17Y 5120   5.816   5.861   8.592  0.8484  0.8170 -1.3970
   63SAPC  C318 5121   5.883   5.710   8.465 -0.1436 -0.3997 -0.2684
   63SAPC  H18X 5122   5.845   5.637   8.389 -0.2747 -0.5710 -0.0383
   63SAPC  H18Y 5123   5.928   5.648   8.544  1.2104 -1.3332 -1.7440
   63SAPC  H18Z 5124   5.962   5.777   8.424 -2.2808  2.5307  0.1942
   64SAPC     N 5125   0.871   5.637   5.853  0.1271 -1.1983  0.2615
   64SAPC   C12 5126   0.826   5.494   5.841  0.8521 -0.9258  0.2202
   64SAPC  H12A 5127   0.911   5.434   5.871  1.8842  1.4038  2.0862
   64SAPC  H12B 5128   0.787   5.480   5.741  0.1590  0.9460  0.2210
   64SAPC   C13 5129   0.776   5.733   5.797 -0.5107  0.8726  0.0507
   64SAPC  H13A 5130   0.763   5.716   5.691  3.5026 -1.3449 -0.1913
   64SAPC  H13B 5131   0.679   5.740   5.845 -1.3609 -0.1911 -1.4636
   64SAPC  H13C 5132   0.819   5.832   5.796  1.4573  0.0382 -0.1436
   64SAPC   C14 5133   0.901   5.673   5.993 -0.4715  0.0204  0.2989
   64SAPC  H14A 5134   0.813   5.655   6.054 -0.4176 -0.2232  0.3063
   64SAPC  H14B 5135   0.976   5.605   6.031 -1.6240 -0.2419  2.1778
   64SAPC  H14C 5136   0.931   5.776   6.003  1.1035 -0.1854 -1.8618
   64SAPC   C15 5137   1.000   5.647   5.770  1.0471  0.8591 -0.1930
   64SAPC  H15A 5138   1.078   5.587   5.814  0.2574 -0.1191 -0.1136
   64SAPC  H15B 5139   1.005   5.610   5.669  0.2251  1.1030 -0.3278
   64SAPC  H15C 5140   1.028   5.751   5.766  0.0888  1.0854 -1.1209
   64SAPC   C11 5141   0.709   5.451   5.934  0.7098 -0.0990  0.2522
   64SAPC  H11A 5142   0.662   5.353   5.908 -0.6771 -0.3203  3.3351
   64SAPC  H11B 5143   0.625   5.520   5.913 -0.8029 -1.7459  0.7411
   64SAPC     P 5144   0.805   5.340   6.138 -0.3265 -0.1918  0.3353
   64SAPC   O13 5145   0.716   5.221   6.137 -0.0295 -0.5117 -0.5108
   64SAPC   O14 5146   0.946   5.332   6.089 -0.4556  0.0200 -0.1407
   64SAPC   O12 5147   0.730   5.466   6.069  0.3615  0.1859  0.6306
   64SAPC   O11 5148   0.818   5.384   6.284  0.0133  0.5046  0.3935
   64SAPC    C1 5149   0.821   5.518   6.324 -0.1989 -0.2312 -0.6384
   64SAPC    HA 5150   0.927   5.550   6.317  0.0311 -0.7299  0.4899
   64SAPC    HB 5151   0.754   5.585   6.266  0.0277 -0.7286 -1.4823
   64SAPC    C2 5152   0.785   5.540   6.472 -0.8884 -0.4297 -0.3992
   64SAPC    HS 5153   0.807   5.644   6.504 -1.1178 -0.1332 -1.1824
   64SAPC   O21 5154   0.858   5.447   6.552  0.3551  0.2586  0.1427
   64SAPC   C21 5155   0.934   5.488   6.640 -0.7408 -0.4092 -0.1524
   64SAPC   O22 5156   0.958   5.603   6.675 -0.5980  0.1198 -0.6277
   64SAPC   C22 5157   1.005   5.370   6.700  0.4114  0.3296  0.3197
   64SAPC   H2R 5158   0.938   5.328   6.778  1.0417 -0.4614  0.4527
   64SAPC   H2S 5159   1.027   5.298   6.618 -0.7950 -1.1910  1.3096
   64SAPC    C3 5160   0.635   5.518   6.497 -0.0327 -0.1503 -0.1528
   64SAPC    HX 5161   0.619   5.420   6.447  0.3072 -1.9016  3.0020
   64SAPC    HY 5162   0.578   5.595   6.442  1.1509  2.0441  1.6253
   64SAPC   O31 5163   0.609   5.503   6.639  0.1147 -0.2477 -0.0493
   64SAPC   C31 5164   0.511   5.577   6.691  0.3902 -0.3115 -0.1940
   64SAPC   O32 5165   0.458   5.676   6.634 -0.3832  0.5413 -0.1191
   64SAPC   C32 5166   0.468   5.508   6.818 -0.0760 -0.2131  0.4919
   64SAPC   H2X 5167   0.548   5.435   6.844 -0.2959  0.0404  1.9575
   64SAPC   H2Y 5168   0.378   5.445   6.802  1.0705 -2.0439  0.9814
   64SAPC   C23 5169   1.146   5.400   6.761  0.7801  0.5687  0.3527
   64SAPC   H3R 5170   1.144   5.504   6.799  2.4706  1.2159 -1.2244
   64SAPC   H3S 5171   1.219   5.389   6.678  1.2899 -0.4692  0.9397
   64SAPC   C24 5172   1.183   5.305   6.879  0.9308  0.2154  0.1958
   64SAPC   H4R 5173   1.111   5.331   6.960  1.5515  0.4762  0.6695
   64SAPC   H4S 5174   1.279   5.332   6.928  0.1515 -0.2330  2.0075
   64SAPC   C25 5175   1.187   5.164   6.840 -0.1159 -0.7793 -0.4440
   64SAPC   H5R 5176   1.232   5.136   6.743  0.6893  2.3793 -1.0406
   64SAPC   C26 5177   1.136   5.061   6.914  0.2418  0.1416 -0.0613
   64SAPC   H6R 5178   1.143   4.962   6.865  2.1337  1.1500 -1.9073
   64SAPC   C27 5179   1.070   5.076   7.051 -1.1027 -0.0615 -0.0255
   64SAPC   H7R 5180   1.142   5.138   7.107  0.1955 -0.2312 -1.4873
   64SAPC   H7S 5181   1.054   4.970   7.083  0.1222 -0.3257 -0.2719
   64SAPC   C28 5182   0.930   5.127   7.050 -0.3025  0.8532  0.1787
   64SAPC   H8R 5183   0.889   5.170   6.958 -3.7092 -2.7946 -0.1564
   64SAPC   C29 5184   0.858   5.130   7.168 -0.0943  0.1283  0.1031
   64SAPC   H9R 5185   0.749   5.146   7.168 -0.2216 -0.6758 -1.2764
   64SAPC  C210 5186   0.916   5.078   7.299  0.8467 -0.4704  0.5384
   64SAPC  H10R 5187   0.887   5.149   7.379 -1.2552 -2.2584  1.4254
   64SAPC  H10S 5188   1.026   5.094   7.302  0.8637 -0.6761  1.0611
   64SAPC  C211 5189   0.867   4.938   7.329  0.0228 -0.3074  0.3020
   64SAPC  H11R 5190   0.848   4.875   7.241  0.5104  0.6988 -0.5312
   64SAPC  C212 5191   0.851   4.881   7.457  0.3871  0.7399  0.5499
   64SAPC  H12R 5192   0.787   4.793   7.473  1.7860 -0.4410 -0.2339
   64SAPC  C213 5193   0.877   4.944   7.588 -0.1598 -0.0050  0.0956
   64SAPC  H13R 5194   0.866   4.857   7.657 -0.2751 -0.1408 -0.0934
   64SAPC  H13S 5195   0.796   5.016   7.613 -1.7766 -1.6081 -0.4053
   64SAPC  C214 5196   1.011   5.003   7.611 -0.1083 -0.2693  0.0390
   64SAPC  H14R 5197   1.052   5.071   7.535  0.5825  0.9400  1.4782
   64SAPC  C215 5198   1.089   4.979   7.720 -0.0456 -0.3305  1.1569
   64SAPC  H15R 5199   1.193   5.014   7.713 -0.3947  0.5377  0.1825
   64SAPC  C216 5200   1.057   4.883   7.840  0.3082 -0.4869  0.4021
   64SAPC  H16R 5201   1.112   4.788   7.821  0.0264 -0.6139  0.2041
   64SAPC  H16S 5202   0.948   4.863   7.848  0.6613 -1.2545  4.1159
   64SAPC  C217 5203   1.099   4.935   7.981 -0.6968  0.7825  0.1903
   64SAPC  H17R 5204   1.206   4.961   7.989 -0.1757 -1.6856  2.1598
   64SAPC  H17S 5205   1.085   4.839   8.036  1.2141 -0.2325 -1.0605
   64SAPC  C218 5206   1.017   5.058   8.030  0.1225 -0.3734  0.5203
   64SAPC  H18R 5207   0.919   5.035   7.983  0.6031 -1.4872  0.0565
   64SAPC  H18S 5208   1.057   5.145   7.973  0.4675 -2.4193 -2.4645
   64SAPC  C219 5209   1.025   5.075   8.182  0.8523  0.2008 -0.0821
   64SAPC  H19R 5210   1.054   4.980   8.233 -1.3355 -0.2105  0.4432
   64SAPC  H19S 5211   0.923   5.104   8.215  1.7607  0.9821  2.1423
   64SAPC  C220 5212   1.121   5.184   8.226 -0.1372  1.2217  0.0595
   64SAPC  H20R 5213   1.084   5.283   8.194 -0.4984  0.6840 -1.2122
   64SAPC  H20S 5214   1.224   5.157   8.192 -0.7500 -1.7383  0.3791
   64SAPC  H20T 5215   1.117   5.170   8.337 -1.3615  1.6288  0.0725
   64SAPC   C33 5216   0.420   5.609   6.927 -0.0109  0.4458 -1.3407
   64SAPC   H3X 5217   0.338   5.678   6.897 -0.2225 -0.0620 -1.9325
   64SAPC   H3Y 5218   0.507   5.677   6.940 -0.2785  0.2972  1.7418
   64SAPC   C34 5219   0.393   5.534   7.058 -0.2175  0.1665 -0.1495
   64SAPC   H4X 5220   0.493   5.494   7.087 -0.9982 -1.4197  0.3418
   64SAPC   H4Y 5221   0.326   5.447   7.045  0.5559 -0.2186 -1.6960
   64SAPC   C35 5222   0.329   5.614   7.170  0.0456 -0.2684  0.3672
   64SAPC   H5X 5223   0.249   5.674   7.122 -0.1152 -2.1858 -1.8483
   64SAPC   H5Y 5224   0.401   5.696   7.193  0.0137  0.2691 -1.3641
   64SAPC   C36 5225   0.301   5.530   7.295 -0.0797 -0.5517  0.0760
   64SAPC   H6X 5226   0.387   5.462   7.316  0.7537  0.3068 -0.5393
   64SAPC   H6Y 5227   0.211   5.471   7.269 -1.3368  0.5827  1.7750
   64SAPC   C37 5228   0.263   5.607   7.430 -0.5834 -0.4482  0.7623
   64SAPC   H7X 5229   0.175   5.666   7.398  0.1275  2.4193  3.7913
   64SAPC   H7Y 5230   0.345   5.679   7.453 -0.4322 -0.9130  1.7154
   64SAPC   C38 5231   0.232   5.512   7.551 -0.1369 -0.3970  0.2515
   64SAPC   H8X 5232   0.317   5.449   7.586  0.7174  0.0041 -1.0812
   64SAPC   H8Y 5233   0.157   5.434   7.526  0.4621 -0.6536 -0.7549
   64SAPC   C39 5234   0.190   5.581   7.682 -0.9959  0.8762  0.4664
   64SAPC   H9X 5235   0.107   5.651   7.659 -2.1268 -0.6591 -0.1677
   64SAPC   H9Y 5236   0.275   5.635   7.730  0.3160 -0.4738 -0.3126
   64SAPC  C310 5237   0.141   5.472   7.786 -0.5698 -0.1436  0.6610
   64SAPC  H10X 5238   0.211   5.386   7.790  3.0799  2.4735 -2.2971
   64SAPC  H10Y 5239   0.051   5.419   7.749  0.2312 -0.3114 -1.1026
   64SAPC  C311 5240   0.106   5.529   7.922  0.0622 -0.5124  0.6441
   64SAPC  H11X 5241   0.019   5.597   7.911  0.2766 -0.0801  1.5818
   64SAPC  H11Y 5242   0.192   5.582   7.969  0.9906 -0.6550 -0.8442
   64SAPC  C312 5243   0.063   5.417   8.018  0.9130 -0.4379 -0.2650
   64SAPC  H12X 5244  -0.026   5.366   7.977  1.2303  0.6855 -2.3779
   64SAPC  H12Y 5245   0.032   5.469   8.111  2.9913 -0.2140  0.3350
   64SAPC  C313 5246   0.164   5.306   8.061  0.6032  0.2988  0.8964
   64SAPC  H13X 5247   0.269   5.340   8.060  0.4336  0.7981 -1.0401
   64SAPC  H13Y 5248   0.149   5.224   7.988  0.2694  0.0755  1.2093
   64SAPC  C314 5249   0.134   5.248   8.206  0.2592 -0.2722 -0.2813
   64SAPC  H14X 5250   0.159   5.327   8.280 -0.1012 -0.5418  0.1257
   64SAPC  H14Y 5251   0.217   5.178   8.229 -0.2443 -0.5548  0.6829
   64SAPC  C315 5252   0.001   5.173   8.214 -0.6324  0.2510 -0.1321
   64SAPC  H15X 5253  -0.018   5.108   8.125 -1.2965 -3.1316  2.3890
   64SAPC  H15Y 5254  -0.080   5.247   8.233 -1.0137  0.3506 -2.0171
   64SAPC  C316 5255   0.014   5.088   8.335 -0.4062  0.5653  0.0128
   64SAPC  H16X 5256   0.035   5.165   8.412  0.0044  1.7179 -1.2253
   64SAPC  H16Y 5257   0.108   5.032   8.318 -0.1416  1.4650 -1.6148
   64SAPC  C317 5258  -0.103   4.987   8.351  0.2706 -0.9343 -0.1697
   64SAPC  H17X 5259  -0.111   4.944   8.249  1.8695  0.8913 -1.0723
   64SAPC  H17Y 5260  -0.193   5.052   8.366  0.8714  0.9403 -4.1386
   64SAPC  C318 5261  -0.077   4.883   8.461  0.5092 -0.0898  0.3213
   64SAPC  H18X 5262  -0.163   4.813   8.467  0.5171 -0.1336 -0.0276
   64SAPC  H18Y 5263  -0.079   4.928   8.562 -1.1636 -0.6146  0.5382
   64SAPC  H18Z 5264   0.014   4.825   8.433  0.2996 -0.5519  0.5958
   65SAPC     N 5265   6.323   6.691   6.221 -0.3387 -0.2340  0.2603
   65SAPC   C12 5266   6.447   6.647   6.302  0.3723 -0.2454  0.4097
   65SAPC  H12A 5267   6.483   6.562   6.245  0.0582  0.1028 -0.3145
   65SAPC  H12B 5268   6.407   6.615   6.397  2.0801 -0.4717  1.0753
   65SAPC   C13 5269   6.357   6.697   6.076 -0.2220  0.5859 -0.5711
   65SAPC  H13A 5270   6.276   6.738   6.019 -0.3311 -0.9539 -1.5517
   65SAPC  H13B 5271   6.442   6.762   6.063  0.2736 -0.0405 -0.5466
   65SAPC  H13C 5272   6.380   6.596   6.043 -1.8672  0.1210 -0.3498
   65SAPC   C14 5273   6.209   6.591   6.239  0.5933 -0.0673 -0.3633
   65SAPC  H14A 5274   6.113   6.623   6.201  0.1772  2.0086  2.2098
   65SAPC  H14B 5275   6.238   6.495   6.200 -1.1530 -0.9655  0.5080
   65SAPC  H14C 5276   6.188   6.570   6.343  3.6204  0.4968  0.4164
   65SAPC   C15 5277   6.270   6.829   6.261  0.3433 -0.5843  0.0684
   65SAPC  H15A 5278   6.252   6.825   6.368  2.6010 -1.0563  0.4580
   65SAPC  H15B 5279   6.348   6.900   6.240 -1.8303  2.6139  2.4291
   65SAPC  H15C 5280   6.179   6.858   6.211 -1.2259 -0.6721  2.7727
   65SAPC   C11 5281   6.555   6.758   6.323 -0.5943 -0.5387  0.6996
   65SAPC  H11A 5282   6.635   6.722   6.391  1.3651  0.7568 -0.8753
   65SAPC  H11B 5283   6.505   6.842   6.376 -0.6291 -0.3883  0.4260
   65SAPC     P 5284   6.748   6.874   6.197  0.1205  0.4747  0.1829
   65SAPC   O13 5285   6.853   6.776   6.163  0.1826 -0.3129  0.1105
   65SAPC   O14 5286   6.752   6.998   6.115 -0.0936  0.0212 -0.6539
   65SAPC   O12 5287   6.609   6.807   6.192  0.6237  0.4007  0.2123
   65SAPC   O11 5288   6.773   6.911   6.349 -0.0265  0.4058  0.1604
   65SAPC    C1 5289   6.746   7.045   6.394 -0.1550 -0.6128 -0.3528
   65SAPC    HA 5290   6.821   7.114   6.352 -0.2994  0.3525  0.9561
   65SAPC    HB 5291   6.645   7.075   6.357  0.2510  1.3377  0.1177
   65SAPC    C2 5292   6.753   7.064   6.548 -0.7742 -0.4892  0.2840
   65SAPC    HS 5293   6.859   7.064   6.583  0.8882 -1.1385 -4.3912
   65SAPC   O21 5294   6.692   6.955   6.626 -0.3820 -0.3667  0.0955
   65SAPC   C21 5295   6.759   6.849   6.630  0.6253 -0.0870  0.3678
   65SAPC   O22 5296   6.869   6.829   6.580  0.3547 -0.2101 -0.2390
   65SAPC   C22 5297   6.681   6.745   6.716 -0.1781  0.9551  0.1671
   65SAPC   H2R 5298   6.757   6.677   6.760 -0.2653  1.0608  0.4793
   65SAPC   H2S 5299   6.645   6.796   6.808 -0.0509  0.9459  0.2218
   65SAPC    C3 5300   6.692   7.201   6.590 -0.2380 -0.2666  1.1733
   65SAPC    HX 5301   6.585   7.212   6.561  0.4146 -0.5266 -1.4013
   65SAPC    HY 5302   6.747   7.285   6.543  1.9811 -1.9123  0.7343
   65SAPC   O31 5303   6.707   7.212   6.732  0.2925 -0.0840 -0.5633
   65SAPC   C31 5304   6.620   7.283   6.804  0.7165  1.4326  0.3506
   65SAPC   O32 5305   6.521   7.344   6.765 -0.9617  0.0569 -0.0247
   65SAPC   C32 5306   6.659   7.283   6.947 -1.0037  0.4663 -0.0449
   65SAPC   H2X 5307   6.765   7.255   6.961 -1.1243 -1.2410 -2.2658
   65SAPC   H2Y 5308   6.609   7.193   6.989 -0.7268  0.9989  1.4682
   65SAPC   C23 5309   6.560   6.678   6.655  0.0873  0.1037  0.4359
   65SAPC   H3R 5310   6.589   6.600   6.581  0.9983  0.3653  0.5134
   65SAPC   H3S 5311   6.498   6.752   6.601 -1.1072 -1.0606  0.1723
   65SAPC   C24 5312   6.466   6.610   6.759  0.0707  0.1876 -0.2828
   65SAPC   H4R 5313   6.385   6.561   6.701 -0.1762 -0.2960  0.4627
   65SAPC   H4S 5314   6.421   6.687   6.825 -1.2170  0.2520 -1.2043
   65SAPC   C25 5315   6.533   6.497   6.832  0.4324 -0.0437  0.2435
   65SAPC   H5R 5316   6.555   6.417   6.761 -1.8802  0.8488 -1.5453
   65SAPC   C26 5317   6.578   6.491   6.959  0.7183  0.0091  0.5765
   65SAPC   H6R 5318   6.614   6.394   6.996 -1.6514 -1.0637  0.2227
   65SAPC   C27 5319   6.571   6.600   7.065 -0.3297  0.2339  0.8182
   65SAPC   H7R 5320   6.494   6.560   7.135 -0.8857  1.4903  0.9290
   65SAPC   H7S 5321   6.526   6.688   7.014  1.7169  1.0214  0.3564
   65SAPC   C28 5322   6.699   6.650   7.135  0.3050 -0.0480  0.3099
   65SAPC   H8R 5323   6.749   6.730   7.079  0.3577 -1.0060 -1.0456
   65SAPC   C29 5324   6.762   6.603   7.246  0.1957 -0.6331  0.5383
   65SAPC   H9R 5325   6.845   6.667   7.280 -1.4018  0.5510  2.3654
   65SAPC  C210 5326   6.725   6.489   7.338 -0.1452  0.1323 -0.4865
   65SAPC  H10R 5327   6.809   6.479   7.409 -2.1436  1.4056  2.1337
   65SAPC  H10S 5328   6.701   6.396   7.282 -5.1638  1.3035 -0.5279
   65SAPC  C211 5329   6.609   6.533   7.421 -0.6077 -0.2107  0.2957
   65SAPC  H11R 5330   6.546   6.614   7.381  0.4086  0.6801  0.4635
   65SAPC  C212 5331   6.593   6.497   7.553 -0.4554 -0.2397  0.5563
   65SAPC  H12R 5332   6.502   6.541   7.598  0.7601  3.3105 -0.2543
   65SAPC  C213 5333   6.673   6.408   7.645  0.0748  0.6335  0.0544
   65SAPC  H13R 5334   6.768   6.382   7.594 -0.0895 -1.0932  0.6040
   65SAPC  H13S 5335   6.616   6.313   7.651  1.0857  0.0761  1.0263
   65SAPC  C214 5336   6.699   6.471   7.783 -0.4554 -0.1943  0.5128
   65SAPC  H14R 5337   6.785   6.539   7.775  1.7342 -2.8857  0.1905
   65SAPC  C215 5338   6.630   6.454   7.897  0.3921  0.2841 -0.3114
   65SAPC  H15R 5339   6.667   6.503   7.988  0.5190  1.9855 -1.2374
   65SAPC  C216 5340   6.508   6.371   7.916  0.4181 -0.2927 -0.8202
   65SAPC  H16R 5341   6.543   6.268   7.894 -0.0967 -0.2561 -1.8562
   65SAPC  H16S 5342   6.438   6.408   7.838  1.1090 -1.1689 -1.8751
   65SAPC  C217 5343   6.445   6.388   8.057 -0.1747 -0.0884 -0.1653
   65SAPC  H17R 5344   6.348   6.335   8.050  0.6909 -1.6089 -0.9818
   65SAPC  H17S 5345   6.435   6.493   8.091  3.5867  0.1864  0.3081
   65SAPC  C218 5346   6.544   6.334   8.164 -0.0642  0.3380  0.6606
   65SAPC  H18R 5347   6.624   6.412   8.163  0.9888 -0.7279 -0.4951
   65SAPC  H18S 5348   6.572   6.232   8.128 -2.8622 -0.3578  0.3694
   65SAPC  C219 5349   6.472   6.310   8.305 -0.4247  0.3350  0.6749
   65SAPC  H19R 5350   6.446   6.411   8.342  0.7810  1.6683 -1.9796
   65SAPC  H19S 5351   6.555   6.271   8.369 -1.7295  1.2243  2.9548
   65SAPC  C220 5352   6.354   6.206   8.309 -0.5521 -0.6877  0.3699
   65SAPC  H20R 5353   6.265   6.246   8.256 -1.1277 -1.2966  0.8695
   65SAPC  H20S 5354   6.318   6.198   8.413 -1.6991 -1.3933 -0.0724
   65SAPC  H20T 5355   6.369   6.111   8.252 -1.9649 -2.1374  2.3187
   65SAPC   C33 5356   6.607   7.408   7.016  0.1853  0.1564 -0.3262
   65SAPC   H3X 5357   6.499   7.425   6.996 -0.1743 -0.0560  1.3663
   65SAPC   H3Y 5358   6.660   7.491   6.963  0.7827 -1.0809 -1.7153
   65SAPC   C34 5359   6.643   7.409   7.167  0.1933 -0.0106  0.0178
   65SAPC   H4X 5360   6.669   7.509   7.207 -1.1227 -0.1471  1.2397
   65SAPC   H4Y 5361   6.728   7.342   7.191 -0.1325 -1.0885 -1.7304
   65SAPC   C35 5362   6.527   7.359   7.256  0.3394 -0.1521  0.7810
   65SAPC   H5X 5363   6.515   7.251   7.230  0.5411 -0.0200  0.1537
   65SAPC   H5Y 5364   6.435   7.411   7.223  2.1077  2.5832 -0.0116
   65SAPC   C36 5365   6.540   7.393   7.403  0.1121  0.5445  0.3230
   65SAPC   H6X 5366   6.514   7.500   7.416  0.3680  0.3856  2.1676
   65SAPC   H6Y 5367   6.641   7.374   7.445  1.0814  3.0566 -0.7260
   65SAPC   C37 5368   6.444   7.312   7.497  0.1006 -0.5867  0.1730
   65SAPC   H7X 5369   6.479   7.207   7.481 -0.8354 -0.6430 -1.6677
   65SAPC   H7Y 5370   6.336   7.317   7.470 -0.0822 -1.2558  0.7769
   65SAPC   C38 5371   6.454   7.348   7.647  0.1806 -0.2860 -0.2123
   65SAPC   H8X 5372   6.405   7.445   7.669 -0.7208 -0.3198 -1.9303
   65SAPC   H8Y 5373   6.558   7.352   7.685 -0.2926  0.8750  0.9849
   65SAPC   C39 5374   6.373   7.254   7.734 -0.0083 -0.5840  0.3545
   65SAPC   H9X 5375   6.430   7.159   7.720  0.4351  0.0389 -2.2686
   65SAPC   H9Y 5376   6.275   7.230   7.688 -0.8582 -0.4853  2.0510
   65SAPC  C310 5377   6.359   7.310   7.874 -1.0517  0.5305  0.1136
   65SAPC  H10X 5378   6.298   7.403   7.872 -1.3087  0.3413 -1.2733
   65SAPC  H10Y 5379   6.457   7.352   7.903 -0.5008  1.1261 -2.4401
   65SAPC  C311 5380   6.306   7.207   7.975 -0.5567  0.1035  0.2835
   65SAPC  H11X 5381   6.331   7.102   7.948 -2.9554  0.1308 -2.2520
   65SAPC  H11Y 5382   6.195   7.214   7.973 -0.7066 -1.6165  1.2370
   65SAPC  C312 5383   6.349   7.238   8.119 -0.2176 -0.0249 -0.0275
   65SAPC  H12X 5384   6.298   7.331   8.151 -1.7149 -0.5934 -0.7190
   65SAPC  H12Y 5385   6.458   7.260   8.116 -0.3057  0.2878 -1.3564
   65SAPC  C313 5386   6.337   7.121   8.218 -0.1512  0.8278 -0.5226
   65SAPC  H13X 5387   6.428   7.063   8.192 -2.0385 -4.1340  3.1348
   65SAPC  H13Y 5388   6.237   7.077   8.203  0.2530  0.0879 -1.0927
   65SAPC  C314 5389   6.345   7.161   8.365 -0.3771 -0.5406  0.0409
   65SAPC  H14X 5390   6.255   7.218   8.398  0.1752  1.0765 -1.2065
   65SAPC  H14Y 5391   6.431   7.230   8.369 -1.0262  0.1851  1.6274
   65SAPC  C315 5392   6.380   7.039   8.452  0.9490  0.2184 -0.4892
   65SAPC  H15X 5393   6.436   6.967   8.389  1.1853 -0.6285  0.6642
   65SAPC  H15Y 5394   6.284   6.988   8.474  0.8617  0.0453 -1.2841
   65SAPC  C316 5395   6.460   7.075   8.580 -0.3421 -0.2534 -0.2165
   65SAPC  H16X 5396   6.457   6.985   8.646  0.1849 -0.1667 -0.0705
   65SAPC  H16Y 5397   6.395   7.150   8.631 -1.6707 -0.7227 -1.1762
   65SAPC  C317 5398   6.600   7.128   8.571 -1.1851 -0.1571  0.6471
   65SAPC  H17X 5399   6.637   7.158   8.671  1.3157  0.7367 -0.5106
   65SAPC  H17Y 5400   6.606   7.220   8.509  2.1676 -0.0629  1.0285
   65SAPC  C318 5401   6.708   7.031   8.519 -0.3950 -0.4561  0.0053
   65SAPC  H18X 5402   6.807   7.079   8.532 -0.8848  0.5265  0.1028
   65SAPC  H18Y 5403   6.681   7.000   8.416 -0.0705  2.9969 -1.1545
   65SAPC  H18Z 5404   6.718   6.945   8.589  3.3498  0.8547  1.1917
   66SAPC     N 5405   5.011   0.357   5.719 -0.1852 -0.4948 -0.0200
   66SAPC   C12 5406   4.922   0.295   5.817 -0.1150 -0.0448 -0.0522
   66SAPC  H12A 5407   4.925   0.348   5.911 -0.4812 -2.1210  1.1761
   66SAPC  H12B 5408   4.966   0.199   5.842 -0.5570 -0.5554 -1.1929
   66SAPC   C13 5409   5.023   0.281   5.589  0.3441 -0.9978  0.0972
   66SAPC  H13A 5410   4.932   0.298   5.534  0.9656  0.9444 -0.3669
   66SAPC  H13B 5411   5.098   0.322   5.523 -0.0388 -0.6078 -0.0976
   66SAPC  H13C 5412   5.059   0.179   5.600  2.4178 -0.4784 -1.5748
   66SAPC   C14 5413   4.968   0.497   5.697 -0.2883 -0.5218 -0.1230
   66SAPC  H14A 5414   4.862   0.492   5.678 -0.4234 -0.2084  0.5313
   66SAPC  H14B 5415   4.987   0.564   5.779 -2.0622 -0.4421  0.2388
   66SAPC  H14C 5416   5.019   0.535   5.610  1.1800 -2.8797 -0.3365
   66SAPC   C15 5417   5.147   0.367   5.774 -0.3949 -0.5102 -0.3024
   66SAPC  H15A 5418   5.208   0.279   5.760 -0.6294 -0.5655 -1.0011
   66SAPC  H15B 5419   5.200   0.449   5.727  0.9770 -1.8323 -1.1333
   66SAPC  H15C 5420   5.139   0.379   5.881 -0.4206  0.7514 -0.4327
   66SAPC   C11 5421   4.778   0.263   5.766 -0.1259 -0.5867  0.6977
   66SAPC  H11A 5422   4.781   0.164   5.715  0.2114 -1.0154  1.5543
   66SAPC  H11B 5423   4.743   0.340   5.694  0.5472 -1.1704 -0.2655
   66SAPC     P 5424   4.596   0.376   5.908  0.2217  0.0195 -0.6333
   66SAPC   O13 5425   4.525   0.415   5.783  0.5144 -0.2121 -0.0975
   66SAPC   O14 5426   4.506   0.337   6.019  0.7159 -0.0449  0.6638
   66SAPC   O12 5427   4.697   0.251   5.879  0.5364 -0.4800 -0.5563
   66SAPC   O11 5428   4.694   0.495   5.955 -0.0463 -0.5583  0.6689
   66SAPC    C1 5429   4.763   0.458   6.078  0.0274  0.2510 -0.9139
   66SAPC    HA 5430   4.684   0.445   6.154 -2.6853  1.6155 -3.4134
   66SAPC    HB 5431   4.822   0.365   6.062 -0.9175 -0.5543  0.2916
   66SAPC    C2 5432   4.853   0.574   6.121  0.0465 -0.0783  0.4349
   66SAPC    HS 5433   4.787   0.656   6.157  1.0456  2.4907 -3.2607
   66SAPC   O21 5434   4.926   0.619   6.004 -0.0933 -0.4012  0.5179
   66SAPC   C21 5435   4.968   0.744   6.027 -0.1176 -0.7350  0.5162
   66SAPC   O22 5436   4.928   0.823   6.110  0.0468  0.0739  0.0127
   66SAPC   C22 5437   5.081   0.785   5.927  0.3307 -0.2566 -0.3114
   66SAPC   H2R 5438   5.045   0.746   5.829 -1.8471  1.8151 -0.3868
   66SAPC   H2S 5439   5.080   0.895   5.914 -0.3946 -0.2935 -0.5914
   66SAPC    C3 5440   4.944   0.527   6.235 -0.4583 -0.1124 -0.1080
   66SAPC    HX 5441   5.015   0.610   6.256  0.4824 -0.9965  0.2611
   66SAPC    HY 5442   5.001   0.438   6.203  0.3375  0.9241 -1.6356
   66SAPC   O31 5443   4.864   0.484   6.357 -0.3096  0.3271  0.4287
   66SAPC   C31 5444   4.823   0.595   6.426 -0.6586  0.2702 -0.7621
   66SAPC   O32 5445   4.875   0.703   6.408 -0.0765 -0.5494  0.2038
   66SAPC   C32 5446   4.716   0.564   6.533 -0.5067  0.1865  0.5483
   66SAPC   H2X 5447   4.772   0.492   6.597 -1.7528  0.3978  1.9144
   66SAPC   H2Y 5448   4.628   0.516   6.485 -0.7514 -0.4614  1.6125
   66SAPC   C23 5449   5.222   0.732   5.968  0.1256 -0.8189  0.4027
   66SAPC   H3R 5450   5.293   0.774   5.893 -0.7395  0.4214  0.2585
   66SAPC   H3S 5451   5.226   0.622   5.956 -0.4986 -0.6890 -1.1128
   66SAPC   C24 5452   5.266   0.790   6.101 -0.3888 -0.0972 -0.0781
   66SAPC   H4R 5453   5.192   0.758   6.177 -0.4019  0.8931  0.3298
   66SAPC   H4S 5454   5.262   0.900   6.090  2.0024  0.0937  0.7286
   66SAPC   C25 5455   5.404   0.745   6.150  0.7918 -0.1340  0.4783
   66SAPC   H5R 5456   5.489   0.802   6.111 -0.3246  2.7670  2.1263
   66SAPC   C26 5457   5.426   0.640   6.223  0.0438  0.6444  0.5591
   66SAPC   H6R 5458   5.527   0.638   6.267  0.2951 -1.3462 -0.0987
   66SAPC   C27 5459   5.335   0.538   6.278  0.1259  0.1791 -0.6683
   66SAPC   H7R 5460   5.388   0.442   6.294 -1.0406 -0.4330 -0.4297
   66SAPC   H7S 5461   5.261   0.502   6.202  2.0045 -2.5343 -1.2738
   66SAPC   C28 5462   5.256   0.581   6.402 -0.1003 -0.6338  0.0480
   66SAPC   H8R 5463   5.252   0.690   6.419  2.1763 -0.1490 -2.1881
   66SAPC   C29 5464   5.194   0.497   6.490 -0.3791 -0.4360  0.1996
   66SAPC   H9R 5465   5.140   0.540   6.576 -1.5167  0.4156 -0.9278
   66SAPC  C210 5466   5.188   0.350   6.493  0.7404 -0.1445  0.3080
   66SAPC  H10R 5467   5.276   0.307   6.545  0.8615 -0.8848 -0.4960
   66SAPC  H10S 5468   5.199   0.315   6.388  0.4213  0.7408 -0.0335
   66SAPC  C211 5469   5.053   0.309   6.544  0.4300 -0.5872 -0.2759
   66SAPC  H11R 5470   4.981   0.278   6.467  0.4649  1.2993 -1.1044
   66SAPC  C212 5471   5.011   0.305   6.670  0.2640 -0.7921  0.1309
   66SAPC  H12R 5472   4.908   0.279   6.698 -0.3525  1.2002 -0.2069
   66SAPC  C213 5473   5.096   0.332   6.788 -0.4146 -0.0053  0.5747
   66SAPC  H13R 5474   5.034   0.362   6.875  0.8057 -2.2182  2.2851
   66SAPC  H13S 5475   5.167   0.415   6.766 -0.3544 -0.2945 -0.3632
   66SAPC  C214 5476   5.173   0.208   6.843 -1.2462 -0.5081  0.1331
   66SAPC  H14R 5477   5.191   0.131   6.766  2.9734  0.5752 -0.0746
   66SAPC  C215 5478   5.221   0.186   6.973  0.3098  0.0976  0.4963
   66SAPC  H15R 5479   5.295   0.104   6.976  0.7081  0.4504  0.4340
   66SAPC  C216 5480   5.201   0.276   7.098  0.1023  0.0119 -0.2863
   66SAPC  H16R 5481   5.094   0.302   7.112 -0.6788 -2.2184 -1.9114
   66SAPC  H16S 5482   5.250   0.375   7.088 -1.5739  1.0148  1.2195
   66SAPC  C217 5483   5.240   0.227   7.238 -0.4522  0.4078  0.2705
   66SAPC  H17R 5484   5.349   0.220   7.219  0.0160 -0.3157  3.0417
   66SAPC  H17S 5485   5.192   0.130   7.263 -2.7090  0.9548 -1.6320
   66SAPC  C218 5486   5.232   0.328   7.361  0.2263 -0.0321  0.0250
   66SAPC  H18R 5487   5.137   0.316   7.418  0.7259 -1.6413  0.5516
   66SAPC  H18S 5488   5.221   0.431   7.320  0.4339  0.9821  2.3729
   66SAPC  C219 5489   5.356   0.343   7.446 -0.2902 -1.0251 -0.4304
   66SAPC  H19R 5490   5.450   0.370   7.392 -0.2878 -1.4451 -0.6364
   66SAPC  H19S 5491   5.375   0.240   7.483  4.3243  0.4403  1.7547
   66SAPC  C220 5492   5.349   0.437   7.566 -0.4041  0.1061  0.3138
   66SAPC  H20R 5493   5.447   0.440   7.619 -1.1325  2.0122  1.6353
   66SAPC  H20S 5494   5.273   0.397   7.636  0.3370 -2.7698 -0.4564
   66SAPC  H20T 5495   5.330   0.546   7.553 -0.1901  0.5630  3.3878
   66SAPC   C33 5496   4.682   0.680   6.614 -0.2945  0.1703  0.2092
   66SAPC   H3X 5497   4.586   0.666   6.668 -0.7931  0.6841 -0.5402
   66SAPC   H3Y 5498   4.691   0.774   6.556 -1.2016  1.2631  1.8024
   66SAPC   C34 5499   4.785   0.704   6.731 -0.3273 -0.0724  0.5252
   66SAPC   H4X 5500   4.770   0.804   6.777 -2.7328 -1.1183  2.1333
   66SAPC   H4Y 5501   4.890   0.715   6.698 -0.9217  4.1703 -0.3392
   66SAPC   C35 5502   4.775   0.593   6.841  0.6747  0.1339  0.3558
   66SAPC   H5X 5503   4.807   0.496   6.796  0.3272  0.0681  0.2491
   66SAPC   H5Y 5504   4.665   0.584   6.854  0.8400 -1.5207  0.7460
   66SAPC   C36 5505   4.853   0.618   6.968 -0.0288 -0.0634 -0.1121
   66SAPC   H6X 5506   4.822   0.715   7.011 -0.4083  1.2616 -3.2074
   66SAPC   H6Y 5507   4.960   0.641   6.948 -0.0539 -0.0652 -0.2574
   66SAPC   C37 5508   4.827   0.519   7.081  0.0719  0.3431  0.0621
   66SAPC   H7X 5509   4.859   0.418   7.045 -3.6328 -0.4030 -1.3593
   66SAPC   H7Y 5510   4.717   0.510   7.094 -0.2013 -0.2275 -2.3920
   66SAPC   C38 5511   4.901   0.556   7.210 -0.3250 -0.3202 -0.2115
   66SAPC   H8X 5512   4.867   0.657   7.241 -0.6024 -0.3683 -0.3552
   66SAPC   H8Y 5513   5.011   0.571   7.202 -0.5538  0.3994 -2.0512
   66SAPC   C39 5514   4.871   0.467   7.338 -0.2102 -0.0964 -0.1003
   66SAPC   H9X 5515   4.942   0.382   7.331  0.8318  0.8483 -1.3866
   66SAPC   H9Y 5516   4.770   0.422   7.343  0.5388 -1.8284 -0.1855
   66SAPC  C310 5517   4.908   0.543   7.466  0.2473 -0.9365  0.6294
   66SAPC  H10X 5518   4.868   0.646   7.456  1.6226 -0.3830  0.6835
   66SAPC  H10Y 5519   5.018   0.543   7.482  0.3006 -1.2081  0.2692
   66SAPC  C311 5520   4.842   0.485   7.591  0.3913  0.0846  0.0133
   66SAPC  H11X 5521   4.733   0.481   7.570 -0.0538  3.3678  1.4549
   66SAPC  H11Y 5522   4.865   0.549   7.678  4.0396 -1.2649  0.1412
   66SAPC  C312 5523   4.879   0.340   7.631 -0.5809  0.2651  0.2573
   66SAPC  H12X 5524   4.988   0.321   7.626 -0.7675 -0.3620 -1.6600
   66SAPC  H12Y 5525   4.827   0.278   7.555  2.0875 -0.5358 -0.9831
   66SAPC  C313 5526   4.841   0.307   7.781 -0.2152  0.0585 -0.3423
   66SAPC  H13X 5527   4.902   0.364   7.853 -0.3762 -0.4329  0.1869
   66SAPC  H13Y 5528   4.855   0.197   7.791  0.5915  0.1784 -0.1834
   66SAPC  C314 5529   4.692   0.330   7.808  0.1640 -0.3331 -0.8128
   66SAPC  H14X 5530   4.630   0.272   7.738 -0.0293  1.0971 -1.8474
   66SAPC  H14Y 5531   4.667   0.435   7.783 -0.7059 -0.4927 -0.6064
   66SAPC  C315 5532   4.686   0.319   7.964 -0.2472 -0.0939 -0.0158
   66SAPC  H15X 5533   4.741   0.399   8.017 -0.4312 -0.7863  1.2260
   66SAPC  H15Y 5534   4.731   0.221   7.988  0.2703 -0.3732 -2.0188
   66SAPC  C316 5535   4.542   0.324   8.018 -0.1797  0.3882  0.2252
   66SAPC  H16X 5536   4.504   0.227   7.980  0.2292  0.5959 -0.7376
   66SAPC  H16Y 5537   4.496   0.418   7.979  0.6202 -0.3626 -2.7013
   66SAPC  C317 5538   4.520   0.327   8.172  0.0215  0.6497  0.3048
   66SAPC  H17X 5539   4.591   0.396   8.222  2.0720 -2.2040  1.4783
   66SAPC  H17Y 5540   4.556   0.224   8.195 -1.0044  0.0238 -0.8466
   66SAPC  C318 5541   4.368   0.332   8.214 -0.3666 -0.3923  0.1319
   66SAPC  H18X 5542   4.363   0.322   8.325  3.1958  0.5479  0.4383
   66SAPC  H18Y 5543   4.311   0.248   8.169  0.2493 -0.2056 -0.9979
   66SAPC  H18Z 5544   4.326   0.429   8.181 -0.6220 -0.9441 -1.1778
   67SAPC     N 5545   0.535   2.539   6.451 -0.2670 -0.0140  0.0380
   67SAPC   C12 5546   0.466   2.406   6.468 -0.4244 -0.0641 -0.3070
   67SAPC  H12A 5547   0.466   2.363   6.369 -0.3900  2.4959 -1.4708
   67SAPC  H12B 5548   0.359   2.422   6.473 -0.1306  1.4138  2.0146
   67SAPC   C13 5549   0.678   2.514   6.411  0.0882 -0.2188  0.4806
   67SAPC  H13A 5550   0.731   2.607   6.404 -0.9316  0.4197  1.1277
   67SAPC  H13B 5551   0.720   2.455   6.491  3.9211  1.3979 -0.2508
   67SAPC  H13C 5552   0.688   2.447   6.327 -3.4397 -0.2199 -0.0250
   67SAPC   C14 5553   0.473   2.634   6.350 -0.4655  0.4862 -0.5446
   67SAPC  H14A 5554   0.517   2.733   6.349  0.1130  0.2685  1.1565
   67SAPC  H14B 5555   0.478   2.582   6.256 -1.9923 -2.0644  0.7417
   67SAPC  H14C 5556   0.372   2.650   6.385 -0.5645 -3.0841  1.0018
   67SAPC   C15 5557   0.546   2.612   6.581  0.8600  0.1600  1.2069
   67SAPC  H15A 5558   0.620   2.563   6.643  0.1265 -1.7931  0.5564
   67SAPC  H15B 5559   0.583   2.711   6.556  0.9748 -0.4630 -1.1846
   67SAPC  H15C 5560   0.453   2.631   6.633  0.2596  1.0325 -0.1627
   67SAPC   C11 5561   0.497   2.301   6.580  0.7010 -0.1451  1.1078
   67SAPC  H11A 5562   0.421   2.220   6.575 -0.3427  0.8500  0.5102
   67SAPC  H11B 5563   0.483   2.341   6.683 -1.6897 -1.0091  1.1695
   67SAPC     P 5564   0.661   2.125   6.483  0.2344  0.2021 -0.4425
   67SAPC   O13 5565   0.569   2.116   6.368 -0.7442 -0.1193 -0.6107
   67SAPC   O14 5566   0.805   2.120   6.448 -0.4389  0.0248 -0.0068
   67SAPC   O12 5567   0.628   2.242   6.580  0.1147  0.4712 -0.2157
   67SAPC   O11 5568   0.636   1.998   6.571 -0.1664 -0.7123  0.1178
   67SAPC    C1 5569   0.653   2.014   6.718 -0.4249 -0.4611 -0.1684
   67SAPC    HA 5570   0.746   2.069   6.743 -0.8472  0.6499 -0.9853
   67SAPC    HB 5571   0.573   2.081   6.757 -0.0427 -1.3098  2.1488
   67SAPC    C2 5572   0.657   1.872   6.789  1.0191  0.5714  0.8091
   67SAPC    HS 5573   0.569   1.810   6.763  1.4550 -0.3250  1.4612
   67SAPC   O21 5574   0.654   1.909   6.923  0.3815  0.4996  0.1746
   67SAPC   C21 5575   0.591   1.823   7.006  0.3806 -0.2501  0.2320
   67SAPC   O22 5576   0.530   1.722   6.969  0.4316 -0.6712 -0.1806
   67SAPC   C22 5577   0.583   1.873   7.149 -0.0829 -0.4284 -0.8598
   67SAPC   H2R 5578   0.536   1.797   7.216 -0.3908 -0.0147 -0.6015
   67SAPC   H2S 5579   0.686   1.901   7.178  0.3800 -1.8058 -1.1230
   67SAPC    C3 5580   0.788   1.802   6.750 -0.3696 -0.3210 -0.2757
   67SAPC    HX 5581   0.879   1.865   6.763 -1.3248  0.5444  2.4167
   67SAPC    HY 5582   0.772   1.776   6.643 -2.5069  1.0817 -0.3273
   67SAPC   O31 5583   0.812   1.679   6.821  0.2207  0.4518 -0.5906
   67SAPC   C31 5584   0.764   1.570   6.762 -0.1499 -0.5515  0.7263
   67SAPC   O32 5585   0.690   1.570   6.663  0.3477 -0.7741 -0.7143
   67SAPC   C32 5586   0.830   1.451   6.821  0.3941 -0.1711  0.0173
   67SAPC   H2X 5587   0.853   1.480   6.926  1.5216 -0.9057 -0.0237
   67SAPC   H2Y 5588   0.923   1.426   6.765  0.3273 -1.2618  0.3850
   67SAPC   C23 5589   0.495   1.999   7.163 -0.4584  0.8597 -0.5038
   67SAPC   H3R 5590   0.497   2.051   7.065 -2.1441  1.7158 -0.0932
   67SAPC   H3S 5591   0.523   2.070   7.244 -0.9089 -0.6030  0.9734
   67SAPC   C24 5592   0.351   1.961   7.172  0.1960 -0.4193 -0.2832
   67SAPC   H4R 5593   0.321   1.903   7.081 -0.3694 -1.1888  0.3868
   67SAPC   H4S 5594   0.282   2.047   7.161 -1.2536 -1.6122 -0.7838
   67SAPC   C25 5595   0.313   1.877   7.297 -0.0655  0.1784  0.4420
   67SAPC   H5R 5596   0.276   1.779   7.264  1.5134 -0.6506  1.1009
   67SAPC   C26 5597   0.307   1.908   7.431  0.0546 -1.1235  0.2378
   67SAPC   H6R 5598   0.282   1.826   7.500 -0.1947 -0.1483  1.3170
   67SAPC   C27 5599   0.340   2.042   7.483 -0.4792  0.1064  0.4577
   67SAPC   H7R 5600   0.343   2.118   7.403 -0.0445 -0.0474  0.3247
   67SAPC   H7S 5601   0.448   2.033   7.510 -0.1714 -0.5524 -0.9485
   67SAPC   C28 5602   0.252   2.087   7.598  0.0432 -0.5729  0.2571
   67SAPC   H8R 5603   0.145   2.091   7.574 -0.2708 -1.5966  1.4824
   67SAPC   C29 5604   0.285   2.083   7.729  0.4135  0.3540  0.4669
   67SAPC   H9R 5605   0.212   2.130   7.797  0.9075  0.8501  0.6656
   67SAPC  C210 5606   0.415   2.033   7.788 -0.2345 -0.0539 -0.1319
   67SAPC  H10R 5607   0.416   2.056   7.897 -1.9097 -2.1240  0.3450
   67SAPC  H10S 5608   0.494   2.101   7.749  1.5449 -2.2686 -0.4662
   67SAPC  C211 5609   0.443   1.880   7.763  0.5950  0.4880  0.3613
   67SAPC  H11R 5610   0.444   1.861   7.655 -2.0769 -4.1023  1.0231
   67SAPC  C212 5611   0.480   1.787   7.853  1.0852  0.4996  0.1944
   67SAPC  H12R 5612   0.490   1.684   7.814 -0.5136  0.3085  0.2563
   67SAPC  C213 5613   0.490   1.836   8.005 -0.1088  0.3476  0.0304
   67SAPC  H13R 5614   0.524   1.941   8.010  0.4081  0.1724  0.2476
   67SAPC  H13S 5615   0.562   1.778   8.067  0.8387  0.6499 -0.7834
   67SAPC  C214 5616   0.349   1.822   8.052  0.7463  0.1346  0.8558
   67SAPC  H14R 5617   0.267   1.856   7.987  0.6018  0.5440  1.2437
   67SAPC  C215 5618   0.318   1.777   8.174 -0.1224  0.1095 -0.0934
   67SAPC  H15R 5619   0.211   1.772   8.199  0.4156  0.3012  2.4068
   67SAPC  C216 5620   0.420   1.747   8.284  0.9179 -0.3286 -0.4780
   67SAPC  H16R 5621   0.485   1.835   8.300  1.8377 -1.0432 -0.2425
   67SAPC  H16S 5622   0.482   1.661   8.252  1.6337  0.4587 -1.2046
   67SAPC  C217 5623   0.352   1.720   8.418 -0.3573 -0.5385 -0.7870
   67SAPC  H17R 5624   0.419   1.675   8.495 -1.4658 -1.4665 -0.3500
   67SAPC  H17S 5625   0.264   1.653   8.406  0.0334 -1.1816 -0.0873
   67SAPC  C218 5626   0.303   1.848   8.489  0.2969  0.5215 -0.4664
   67SAPC  H18R 5627   0.250   1.908   8.412  3.8404  2.5046 -1.4825
   67SAPC  H18S 5628   0.387   1.911   8.523  0.1958 -0.6118  1.9812
   67SAPC  C219 5629   0.222   1.819   8.614  0.5220  0.5136 -0.2299
   67SAPC  H19R 5630   0.273   1.748   8.684  0.7455  2.0657  1.2119
   67SAPC  H19S 5631   0.135   1.756   8.585  0.9941 -0.7831  1.0554
   67SAPC  C220 5632   0.157   1.939   8.681 -0.6446 -0.0220 -0.4232
   67SAPC  H20R 5633   0.083   1.978   8.608 -0.3585  1.0443 -0.1470
   67SAPC  H20S 5634   0.234   2.010   8.716 -0.8694 -0.2439  0.5412
   67SAPC  H20T 5635   0.102   1.905   8.771 -3.7147  3.3320 -0.8869
   67SAPC   C33 5636   0.731   1.335   6.820  0.2903  0.3412 -0.7242
   67SAPC   H3X 5637   0.785   1.240   6.841 -0.5861  0.2742  1.4142
   67SAPC   H3Y 5638   0.699   1.309   6.717 -0.7945 -0.1584 -0.2704
   67SAPC   C34 5639   0.617   1.360   6.915 -0.6928  0.5289  0.5501
   67SAPC   H4X 5640   0.521   1.318   6.878 -2.2698  3.8788  0.6323
   67SAPC   H4Y 5641   0.590   1.467   6.928 -1.4415  0.5252 -0.8748
   67SAPC   C35 5642   0.653   1.304   7.055 -0.0904 -0.0834  0.0214
   67SAPC   H5X 5643   0.745   1.355   7.091 -0.0092 -1.7325  2.2168
   67SAPC   H5Y 5644   0.680   1.198   7.038  1.7877  0.3663  0.0421
   67SAPC   C36 5645   0.540   1.317   7.146  0.2017 -0.3230  0.1496
   67SAPC   H6X 5646   0.445   1.291   7.095  1.0267  0.1069 -1.6510
   67SAPC   H6Y 5647   0.533   1.427   7.161 -1.3885 -0.5303  1.0331
   67SAPC   C37 5648   0.557   1.235   7.276 -0.4058  0.0611 -0.1536
   67SAPC   H7X 5649   0.656   1.258   7.321 -2.4587  4.3758  2.5001
   67SAPC   H7Y 5650   0.542   1.125   7.262  1.0397 -0.7354  3.7794
   67SAPC   C38 5651   0.449   1.286   7.374  0.8692  0.2782  0.4756
   67SAPC   H8X 5652   0.353   1.263   7.322  1.2585  0.4959 -0.3502
   67SAPC   H8Y 5653   0.458   1.396   7.365 -1.4397  0.3539 -1.3524
   67SAPC   C39 5654   0.444   1.246   7.523  0.2684 -1.1597  0.8814
   67SAPC   H9X 5655   0.535   1.280   7.577 -0.6540  1.2435  0.9689
   67SAPC   H9Y 5656   0.438   1.137   7.545  2.6911 -1.6883 -0.8267
   67SAPC  C310 5657   0.318   1.296   7.590  0.8031 -0.3922  0.3244
   67SAPC  H10X 5658   0.219   1.270   7.548 -0.2842 -1.1037  3.2359
   67SAPC  H10Y 5659   0.312   1.407   7.586  0.3250 -0.4292  0.0619
   67SAPC  C311 5660   0.314   1.242   7.735 -0.0832  0.9257 -1.1314
   67SAPC  H11X 5661   0.411   1.250   7.787 -0.0886 -0.0836 -0.9679
   67SAPC  H11Y 5662   0.287   1.135   7.732  1.0304  0.6658 -1.8693
   67SAPC  C312 5663   0.209   1.317   7.828 -0.0691  0.6147 -0.0230
   67SAPC  H12X 5664   0.105   1.309   7.789  0.1727 -0.3831 -0.4610
   67SAPC  H12Y 5665   0.233   1.425   7.836 -2.4833  0.9504  4.1374
   67SAPC  C313 5666   0.199   1.241   7.963 -1.0063  0.1728  0.1027
   67SAPC  H13X 5667   0.303   1.224   7.996  0.0765  1.7649 -2.3139
   67SAPC  H13Y 5668   0.160   1.140   7.938  1.3694 -1.0458  1.2212
   67SAPC  C314 5669   0.119   1.319   8.061  0.5535  0.2816 -0.0596
   67SAPC  H14X 5670   0.084   1.246   8.138 -2.9752 -0.0791 -1.9041
   67SAPC  H14Y 5671   0.024   1.366   8.028 -1.5291 -1.4259  3.1622
   67SAPC  C315 5672   0.192   1.429   8.146  0.1930 -0.0475  0.4351
   67SAPC  H15X 5673   0.119   1.508   8.171  2.7305  2.5341 -0.0984
   67SAPC  H15Y 5674   0.275   1.478   8.091  0.8109 -0.5568  0.8977
   67SAPC  C316 5675   0.249   1.364   8.274 -0.1543  0.0650  0.3519
   67SAPC  H16X 5676   0.334   1.424   8.312  0.3739 -1.1320  1.0911
   67SAPC  H16Y 5677   0.262   1.254   8.264 -1.9153 -0.2644  1.5383
   67SAPC  C317 5678   0.155   1.379   8.393  0.1435 -0.1034 -0.3587
   67SAPC  H17X 5679   0.065   1.323   8.358  1.1949 -0.2031 -2.9951
   67SAPC  H17Y 5680   0.112   1.481   8.398  1.0728  0.2587  0.2259
   67SAPC  C318 5681   0.230   1.325   8.520 -0.8222 -0.0917  0.0403
   67SAPC  H18X 5682   0.165   1.324   8.610  0.3250 -0.1009  0.8755
   67SAPC  H18Y 5683   0.319   1.390   8.536  2.1364 -4.3449  1.6858
   67SAPC  H18Z 5684   0.266   1.222   8.504 -1.7794 -0.7225  1.8382
   68SAPC     N 5685   4.670   1.454   6.240 -0.4331 -0.7366  0.1959
   68SAPC   C12 5686   4.793   1.376   6.268 -0.1118  0.5862  0.2586
   68SAPC  H12A 5687   4.829   1.326   6.179 -1.0264  2.8556 -1.4280
   68SAPC  H12B 5688   4.764   1.286   6.321 -1.9496  0.9337 -0.1519
   68SAPC   C13 5689   4.626   1.527   6.364  0.0301 -0.3914 -0.3252
   68SAPC  H13A 5690   4.549   1.601   6.348 -0.4494 -0.6016  0.9170
   68SAPC  H13B 5691   4.589   1.454   6.436 -0.5975  0.2644  0.0261
   68SAPC  H13C 5692   4.708   1.574   6.417 -0.0500 -1.1054  0.4510
   68SAPC   C14 5693   4.686   1.561   6.131  0.2780  0.3223 -0.1514
   68SAPC  H14A 5694   4.611   1.638   6.141 -0.7220 -0.6477 -0.1104
   68SAPC  H14B 5695   4.777   1.618   6.140 -1.0958  2.6981 -0.8610
   68SAPC  H14C 5696   4.683   1.513   6.034  0.7733 -1.3246  0.6349
   68SAPC   C15 5697   4.558   1.374   6.183  0.3828 -0.0877  0.3495
   68SAPC  H15A 5698   4.471   1.434   6.160  1.3037  1.8972  1.8524
   68SAPC  H15B 5699   4.589   1.310   6.101  0.0928 -2.3421  1.9589
   68SAPC  H15C 5700   4.515   1.311   6.259  0.8280  1.9264  2.3202
   68SAPC   C11 5701   4.915   1.453   6.327 -0.3030  0.4035 -0.0803
   68SAPC  H11A 5702   5.006   1.391   6.344 -1.1076 -0.7658  0.0072
   68SAPC  H11B 5703   4.878   1.493   6.424 -0.2949  1.0654 -0.3471
   68SAPC     P 5704   4.980   1.704   6.303 -0.2138  0.0331 -0.2068
   68SAPC   O13 5705   5.021   1.800   6.195 -0.1365 -0.2721  0.0802
   68SAPC   O14 5706   4.858   1.748   6.376 -0.1097 -0.4228  0.1185
   68SAPC   O12 5707   4.957   1.563   6.247 -0.3157 -0.3445 -1.2311
   68SAPC   O11 5708   5.103   1.669   6.400 -0.0251  0.1744  0.0586
   68SAPC    C1 5709   5.242   1.679   6.357  0.3857 -0.4405  0.1522
   68SAPC    HA 5710   5.257   1.778   6.308  1.0986 -0.5534  0.1375
   68SAPC    HB 5711   5.307   1.695   6.445  0.6991  0.2280 -0.1946
   68SAPC    C2 5712   5.290   1.562   6.268 -0.2445 -0.1691 -0.2176
   68SAPC    HS 5713   5.229   1.562   6.176  1.4824  0.9305 -1.3962
   68SAPC   O21 5714   5.283   1.438   6.342  0.4819 -0.7918  0.0217
   68SAPC   C21 5715   5.285   1.324   6.280  0.8775 -0.2940 -0.5351
   68SAPC   O22 5716   5.307   1.310   6.162  0.2308 -0.0865  0.1092
   68SAPC   C22 5717   5.254   1.214   6.379 -0.2109  0.3943  0.5113
   68SAPC   H2R 5718   5.297   1.233   6.479 -0.6555 -0.7347  0.9255
   68SAPC   H2S 5719   5.144   1.199   6.389  0.3927 -1.4442  6.2656
   68SAPC    C3 5720   5.437   1.585   6.223 -0.6969  0.5495  0.5501
   68SAPC    HX 5721   5.446   1.684   6.172  0.8557 -0.7297 -1.7471
   68SAPC    HY 5722   5.450   1.506   6.146 -1.0234  0.9217  0.1067
   68SAPC   O31 5723   5.521   1.589   6.342 -0.7718 -0.5779  0.3165
   68SAPC   C31 5724   5.607   1.489   6.352 -0.5112  0.9574  0.1283
   68SAPC   O32 5725   5.597   1.389   6.282  0.6334  0.8100 -0.8801
   68SAPC   C32 5726   5.692   1.511   6.472  0.3013  0.1552  0.6607
   68SAPC   H2X 5727   5.746   1.607   6.462 -0.5611  0.6343  0.5838
   68SAPC   H2Y 5728   5.762   1.425   6.467  1.6308  1.3842 -3.5539
   68SAPC   C23 5729   5.296   1.075   6.338  0.0372  0.0446 -0.4907
   68SAPC   H3R 5730   5.402   1.087   6.306  0.3085 -2.1243 -0.4714
   68SAPC   H3S 5731   5.227   1.036   6.260  0.1597  1.2140 -1.2060
   68SAPC   C24 5732   5.304   0.973   6.456 -0.5358  0.2378  0.1377
   68SAPC   H4R 5733   5.377   1.012   6.530 -0.8158 -0.9307  1.0455
   68SAPC   H4S 5734   5.357   0.882   6.419  0.4969  0.3587  1.3018
   68SAPC   C25 5735   5.179   0.920   6.525 -0.1560  0.5052 -0.0920
   68SAPC   H5R 5736   5.091   0.906   6.461  0.1469 -1.0552 -0.1909
   68SAPC   C26 5737   5.161   0.913   6.663  0.0370  0.6573 -0.2557
   68SAPC   H6R 5738   5.065   0.881   6.707 -0.2532 -2.2395 -2.8697
   68SAPC   C27 5739   5.271   0.939   6.765 -0.1457  0.3913  0.4681
   68SAPC   H7R 5740   5.220   0.967   6.860  0.3583  0.3380  0.7561
   68SAPC   H7S 5741   5.330   1.031   6.741  1.1070 -0.2200  1.1717
   68SAPC   C28 5742   5.370   0.829   6.780  0.0491  0.4031  0.3321
   68SAPC   H8R 5743   5.396   0.768   6.693  2.3633 -0.1869  1.3863
   68SAPC   C29 5744   5.434   0.794   6.896 -0.1488 -0.1123 -0.5281
   68SAPC   H9R 5745   5.509   0.713   6.895  0.7597  0.7009  0.6552
   68SAPC  C210 5746   5.421   0.869   7.031 -0.7884 -0.2657 -0.3645
   68SAPC  H10R 5747   5.374   0.969   7.017 -1.6926 -0.8828 -1.8924
   68SAPC  H10S 5748   5.524   0.894   7.064 -0.7480 -0.1882 -0.5493
   68SAPC  C211 5749   5.355   0.771   7.126  0.5641  0.1447  0.3876
   68SAPC  H11R 5750   5.251   0.758   7.094  0.0341 -1.4520  2.6827
   68SAPC  C212 5751   5.405   0.720   7.242  0.1772 -0.3202 -0.0030
   68SAPC  H12R 5752   5.340   0.646   7.292 -2.8382  1.0860 -1.6999
   68SAPC  C213 5753   5.549   0.742   7.306  0.2823  0.3036 -0.4029
   68SAPC  H13R 5754   5.624   0.775   7.232  0.0911 -1.7266 -1.5493
   68SAPC  H13S 5755   5.583   0.644   7.348  2.9770  1.1638 -0.5043
   68SAPC  C214 5756   5.525   0.842   7.408 -0.1553 -0.0209 -0.1668
   68SAPC  H14R 5757   5.459   0.928   7.387 -1.0952 -0.4565  0.9674
   68SAPC  C215 5758   5.573   0.850   7.536  0.1486 -0.4404  0.4416
   68SAPC  H15R 5759   5.554   0.940   7.596  0.6962 -1.2913  1.9119
   68SAPC  C216 5760   5.671   0.749   7.604 -0.3781 -0.4464  0.2790
   68SAPC  H16R 5761   5.773   0.788   7.624 -1.4250  2.1535  0.8063
   68SAPC  H16S 5762   5.683   0.661   7.538  0.9563  1.3344 -1.8842
   68SAPC  C217 5763   5.630   0.724   7.752  0.6122  0.2143 -0.1487
   68SAPC  H17R 5764   5.696   0.646   7.797 -1.4591 -0.4478  1.7777
   68SAPC  H17S 5765   5.529   0.679   7.755  1.5225 -1.8206  2.7957
   68SAPC  C218 5766   5.638   0.849   7.841 -0.4037 -0.1736 -0.0475
   68SAPC  H18R 5767   5.590   0.933   7.785  0.1047  1.3760  1.7901
   68SAPC  H18S 5768   5.740   0.889   7.858  0.5118 -3.0678  1.5880
   68SAPC  C219 5769   5.567   0.828   7.974 -0.6027  0.3555 -0.4460
   68SAPC  H19R 5770   5.463   0.793   7.956  0.1246 -0.9870 -2.2075
   68SAPC  H19S 5771   5.562   0.933   8.010 -0.1296  0.1376  0.2649
   68SAPC  C220 5772   5.648   0.744   8.073  0.8415  0.0809  0.4058
   68SAPC  H20R 5773   5.733   0.802   8.114 -0.3896  0.7139  2.1265
   68SAPC  H20S 5774   5.684   0.660   8.010  0.0762 -2.6076  3.4043
   68SAPC  H20T 5775   5.579   0.719   8.157  0.5703  2.7044  1.0048
   68SAPC   C33 5776   5.602   1.495   6.594 -0.3986 -0.7161  0.1587
   68SAPC   H3X 5777   5.501   1.536   6.569  0.4171  1.8982  0.9226
   68SAPC   H3Y 5778   5.637   1.547   6.686 -2.0530  1.2937 -0.2899
   68SAPC   C34 5779   5.584   1.342   6.634 -0.1406 -0.6689 -0.1592
   68SAPC   H4X 5780   5.683   1.297   6.655 -0.1694 -1.0850 -0.8776
   68SAPC   H4Y 5781   5.535   1.286   6.551 -0.9245  0.9907 -0.8532
   68SAPC   C35 5782   5.498   1.321   6.756 -0.2500 -0.4932  0.0716
   68SAPC   H5X 5783   5.462   1.217   6.776  0.3678 -0.5280  1.0273
   68SAPC   H5Y 5784   5.402   1.377   6.757 -0.8735 -1.5476  0.9865
   68SAPC   C36 5785   5.572   1.358   6.891 -0.1203  0.3930  0.3347
   68SAPC   H6X 5786   5.603   1.465   6.884 -0.1220  0.3981  0.4024
   68SAPC   H6Y 5787   5.658   1.289   6.903  0.1114  0.4093 -1.1682
   68SAPC   C37 5788   5.477   1.334   7.015 -0.0693  0.0785  0.2018
   68SAPC   H7X 5789   5.420   1.239   7.026 -0.2187  0.1278 -0.1424
   68SAPC   H7Y 5790   5.395   1.408   7.004 -0.3806 -0.4359 -0.9750
   68SAPC   C38 5791   5.560   1.353   7.144 -0.0370  1.0012  0.2090
   68SAPC   H8X 5792   5.615   1.447   7.127 -2.3678  2.4032  0.1503
   68SAPC   H8Y 5793   5.624   1.263   7.131 -0.1841  0.8097  0.8080
   68SAPC   C39 5794   5.478   1.352   7.275  0.1921  0.8579  0.1807
   68SAPC   H9X 5795   5.449   1.246   7.287  2.2094  0.2366 -0.2695
   68SAPC   H9Y 5796   5.385   1.413   7.266  0.8815  1.8356 -0.5630
   68SAPC  C310 5797   5.558   1.395   7.394 -0.8063  0.2221 -0.3444
   68SAPC  H10X 5798   5.577   1.504   7.397  2.2374 -0.1863 -2.5172
   68SAPC  H10Y 5799   5.655   1.344   7.377  0.3373  2.4789 -0.8349
   68SAPC  C311 5800   5.506   1.343   7.534  0.0018 -0.3868 -0.1381
   68SAPC  H11X 5801   5.501   1.232   7.531  1.0686 -0.4805  0.7580
   68SAPC  H11Y 5802   5.405   1.388   7.543  0.1818  0.2755 -1.4164
   68SAPC  C312 5803   5.594   1.396   7.654 -0.4691  0.3082 -0.7742
   68SAPC  H12X 5804   5.610   1.505   7.639 -2.4414  0.4957 -1.6645
   68SAPC  H12Y 5805   5.693   1.347   7.660 -1.3552 -1.3695  0.6209
   68SAPC  C313 5806   5.519   1.386   7.793 -0.4198  0.4268 -0.4051
   68SAPC  H13X 5807   5.436   1.459   7.802 -1.4763 -0.8665  0.4199
   68SAPC  H13Y 5808   5.582   1.409   7.882 -0.3836  1.4177 -0.6785
   68SAPC  C314 5809   5.459   1.252   7.824  0.2485  0.0963  0.1109
   68SAPC  H14X 5810   5.539   1.179   7.802 -0.7596 -0.2824 -2.4551
   68SAPC  H14Y 5811   5.377   1.227   7.753  2.2687 -0.2283 -2.1780
   68SAPC  C315 5812   5.427   1.224   7.971  0.1050  0.4065 -0.9122
   68SAPC  H15X 5813   5.521   1.245   8.027  0.0713 -1.8581  0.0173
   68SAPC  H15Y 5814   5.414   1.115   7.985  0.4471  0.3499 -1.0241
   68SAPC  C316 5815   5.300   1.302   8.013  0.2712 -0.4634  1.1371
   68SAPC  H16X 5816   5.228   1.294   7.929  2.5210  0.3458 -0.9299
   68SAPC  H16Y 5817   5.330   1.409   8.017 -0.0727 -0.3965  2.3103
   68SAPC  C317 5818   5.224   1.266   8.142 -0.0011 -0.0130  0.3226
   68SAPC  H17X 5819   5.295   1.283   8.227  1.5638  0.8827 -1.1277
   68SAPC  H17Y 5820   5.187   1.161   8.134  0.6642 -0.2646  0.4652
   68SAPC  C318 5821   5.114   1.366   8.168  0.1648 -0.0573  0.2416
   68SAPC  H18X 5822   5.148   1.470   8.182  1.7197 -0.1155 -2.7035
   68SAPC  H18Y 5823   5.050   1.338   8.255 -0.6284  0.9681 -0.0038
   68SAPC  H18Z 5824   5.036   1.375   8.089  0.2063 -2.4895 -0.1155
   69SLPC     N 5825   2.533   5.981  11.392  0.0712 -0.1698  0.9893
   69SLPC   C13 5826   2.427   6.055  11.473 -0.8814  0.2018  0.2659
   69SLPC  H13A 5827   2.458   6.049  11.577 -2.6707  0.7456  0.8507
   69SLPC  H13B 5828   2.436   6.160  11.452  1.0463  0.5005  2.4199
   69SLPC  H13C 5829   2.324   6.030  11.451 -0.6905 -2.3909  2.0501
   69SLPC   C14 5830   2.532   5.835  11.435 -0.3617  0.2093  0.8029
   69SLPC  H14A 5831   2.449   5.786  11.386  0.2827  1.6148 -1.8257
   69SLPC  H14B 5832   2.627   5.789  11.411 -0.6101 -0.8765  1.8601
   69SLPC  H14C 5833   2.520   5.829  11.542 -1.0472  0.4331  0.7380
   69SLPC   C15 5834   2.669   6.036  11.414 -0.5956 -0.8110  0.0395
   69SLPC  H15A 5835   2.735   5.980  11.350 -0.7946 -0.0415 -0.8380
   69SLPC  H15B 5836   2.670   6.142  11.397 -0.7313 -0.5221  1.7063
   69SLPC  H15C 5837   2.703   6.018  11.515  0.6118 -0.1713 -0.2387
   69SLPC   C12 5838   2.490   5.990  11.247  0.3024  0.1138  0.0679
   69SLPC  H12A 5839   2.498   6.089  11.207  0.3409 -1.0989 -3.0245
   69SLPC  H12B 5840   2.384   5.971  11.260  0.7887 -3.8701 -1.1358
   69SLPC   C11 5841   2.559   5.894  11.151  0.0852 -0.2214 -0.7613
   69SLPC  H11A 5842   2.504   5.909  11.056 -0.8685 -2.1937 -0.5383
   69SLPC  H11B 5843   2.535   5.789  11.177 -0.3561 -0.0854 -0.6004
   69SLPC     P 5844   2.774   6.002  11.050  0.5378  0.1037 -0.1058
   69SLPC   O13 5845   2.684   6.112  11.011 -0.1746 -0.0978 -0.5110
   69SLPC   O14 5846   2.905   6.030  11.114 -0.4149  0.3460 -0.6624
   69SLPC   O12 5847   2.704   5.900  11.147  0.1720  0.0844 -0.4415
   69SLPC   O11 5848   2.785   5.903  10.924  0.1870 -0.4421  0.1428
   69SLPC    C1 5849   2.913   5.874  10.862  0.5733  0.2083 -0.2949
   69SLPC    HA 5850   3.001   5.917  10.916 -0.3221 -0.0881  1.4444
   69SLPC    HB 5851   2.931   5.766  10.846 -0.6238  0.1600 -1.3513
   69SLPC    C2 5852   2.915   5.945  10.726 -0.1259 -0.4733 -0.4041
   69SLPC    HS 5853   2.912   6.055  10.740 -0.5853 -0.2485 -2.2067
   69SLPC   O21 5854   2.814   5.885  10.646 -0.4133  0.0490 -0.0660
   69SLPC   C21 5855   2.699   5.954  10.637 -0.6283 -0.6685  0.1383
   69SLPC   O22 5856   2.683   6.060  10.691 -0.7829 -0.4157  0.7841
   69SLPC   C22 5857   2.606   5.889  10.528  0.0594 -0.4801  0.9599
   69SLPC   H2R 5858   2.646   5.788  10.503 -2.4785 -0.9448 -1.4045
   69SLPC   H2S 5859   2.509   5.885  10.581 -0.5478  1.9968  0.0747
   69SLPC    C3 5860   3.049   5.916  10.652 -0.1049  0.0031  0.7029
   69SLPC    HX 5861   3.050   5.805  10.641 -2.6544  0.0503 -0.4764
   69SLPC    HY 5862   3.135   5.939  10.718  0.8945 -1.5145 -0.0322
   69SLPC   O31 5863   3.062   5.985  10.525  0.3560  0.0287  0.0707
   69SLPC   C31 5864   3.029   5.912  10.417 -0.3634  0.5758  0.8350
   69SLPC   O32 5865   3.004   5.793  10.415 -0.1726 -0.3208  0.1900
   69SLPC   C32 5866   3.046   5.996  10.283 -0.8113  0.2385  0.5018
   69SLPC   H2X 5867   3.145   5.981  10.234  0.1285  0.0350  2.4183
   69SLPC   H2Y 5868   3.025   6.104  10.297  0.6006  0.5022  0.7278
   69SLPC   C23 5869   2.573   5.984  10.413 -0.3501  0.1988 -0.3786
   69SLPC   H3R 5870   2.649   5.978  10.332 -0.4882  2.5080 -0.7395
   69SLPC   H3S 5871   2.555   6.088  10.449 -1.0499  0.4289 -1.3912
   69SLPC   C24 5872   2.437   5.945  10.355  0.1076  0.3352 -0.3804
   69SLPC   H4R 5873   2.368   5.935  10.442  2.0491 -1.4922  0.9878
   69SLPC   H4S 5874   2.430   5.849  10.300 -0.0609 -0.7331  1.4603
   69SLPC   C25 5875   2.388   6.044  10.250 -0.7879 -0.4981  0.0313
   69SLPC   H5R 5876   2.469   6.053  10.174 -1.1191 -1.0221 -0.3852
   69SLPC   H5S 5877   2.383   6.145  10.295  2.2008 -0.8624  1.3329
   69SLPC   C26 5878   2.260   5.999  10.165  0.2886 -0.1550 -0.1246
   69SLPC   H6R 5879   2.288   5.900  10.124 -1.4787 -1.4998  1.8648
   69SLPC   H6S 5880   2.235   6.065  10.079 -0.5099 -2.0000 -1.3202
   69SLPC   C27 5881   2.129   5.986  10.253  0.0998  0.4372 -0.0634
   69SLPC   H7R 5882   2.105   6.087  10.293  1.3832  1.2160 -1.2219
   69SLPC   H7S 5883   2.151   5.927  10.345  0.4185  0.1175 -0.3420
   69SLPC   C28 5884   2.011   5.926  10.170 -0.1888 -0.0990 -0.1854
   69SLPC   H8R 5885   1.938   5.881  10.241  0.3824 -2.2685 -0.9488
   69SLPC   H8S 5886   2.051   5.833  10.125  0.7064 -0.3130  1.0106
   69SLPC   C29 5887   1.945   6.019  10.076 -0.4298  0.0340  0.4865
   69SLPC   H9R 5888   1.886   6.090  10.136  1.5772  2.0410  0.1775
   69SLPC  C210 5889   1.936   6.025   9.941  0.2875  0.9798  0.7922
   69SLPC  H10R 5890   1.871   6.095   9.887  0.8924 -0.2930 -1.6389
   69SLPC  C211 5891   2.005   5.927   9.847 -0.2673  0.1998  0.0134
   69SLPC  H11R 5892   1.934   5.879   9.776 -0.6065 -1.0215  1.1597
   69SLPC  H11S 5893   2.066   5.854   9.905  2.4055  1.2659 -1.3669
   69SLPC  C212 5894   2.098   6.013   9.761 -0.0103  0.0745  0.0564
   69SLPC  H12R 5895   2.160   6.087   9.814 -0.9520  2.1570 -1.6667
   69SLPC  C213 5896   2.099   6.023   9.624 -0.1901 -0.4177  0.3434
   69SLPC  H13R 5897   2.173   6.089   9.576 -0.7903  0.0814  0.1063
   69SLPC  C214 5898   2.003   5.957   9.529 -0.4303  0.5339 -0.4012
   69SLPC  H14R 5899   1.919   6.029   9.514  0.6340  1.8577 -0.1001
   69SLPC  H14S 5900   1.962   5.866   9.576  1.1354 -0.3441 -0.6965
   69SLPC  C215 5901   2.071   5.916   9.394  0.4864  0.3971 -0.0351
   69SLPC  H15R 5902   2.014   5.827   9.359  0.1381  1.5635 -2.5508
   69SLPC  H15S 5903   2.181   5.898   9.394  0.4477 -0.1907  3.8779
   69SLPC  C216 5904   2.035   6.021   9.293  0.0649  0.1728 -0.1917
   69SLPC  H16R 5905   2.094   6.109   9.328 -1.3567  0.1414  2.4772
   69SLPC  H16S 5906   1.926   6.043   9.290  0.4406  2.1360 -0.1138
   69SLPC  C217 5907   2.090   5.998   9.157 -0.0570 -0.0540 -0.1781
   69SLPC  H17R 5908   2.046   5.913   9.100 -0.6123  0.5611 -0.6791
   69SLPC  H17S 5909   2.199   5.990   9.176 -0.5444 -3.9117  1.5011
   69SLPC  C218 5910   2.069   6.121   9.067 -0.4706 -0.1729 -0.0312
   69SLPC  H18R 5911   2.123   6.213   9.096 -1.7350  1.4639 -2.7591
   69SLPC  H18S 5912   1.962   6.151   9.069 -0.5249 -0.4011  0.7313
   69SLPC  H18T 5913   2.089   6.096   8.961 -2.2216  2.1277 -0.9250
   69SLPC   C33 5914   2.950   5.940  10.183  0.7240 -0.0427  0.0549
   69SLPC   H3X 5915   2.845   5.970  10.206  0.9110  1.9598 -1.5327
   69SLPC   H3Y 5916   2.959   5.830  10.175 -0.3688  0.0384 -2.6823
   69SLPC   C34 5917   2.987   5.995  10.036  0.3542  0.0143  0.1292
   69SLPC   H4X 5918   3.003   6.105  10.035 -2.6103  0.5080  1.8398
   69SLPC   H4Y 5919   2.905   5.965   9.968  0.2804 -1.3441  0.7892
   69SLPC   C35 5920   3.111   5.921   9.984 -0.5806  0.2674 -0.2403
   69SLPC   H5X 5921   3.105   5.817  10.024 -0.3846  0.4447  0.2591
   69SLPC   H5Y 5922   3.211   5.956  10.016 -0.7111 -1.6343  2.5292
   69SLPC   C36 5923   3.117   5.913   9.829 -0.1580  0.1111  0.4068
   69SLPC   H6X 5924   3.142   6.012   9.783  0.0358 -0.4195 -0.6537
   69SLPC   H6Y 5925   3.020   5.881   9.784  0.5365 -0.2649 -0.8606
   69SLPC   C37 5926   3.219   5.806   9.781  0.8164 -0.2600 -0.4605
   69SLPC   H7X 5927   3.177   5.706   9.808  1.6391 -0.8831 -1.4869
   69SLPC   H7Y 5928   3.308   5.826   9.843 -1.0190 -0.6951  2.4384
   69SLPC   C38 5929   3.247   5.817   9.628 -0.1088  0.5626 -0.8017
   69SLPC   H8X 5930   3.353   5.785   9.618  0.2367  1.7716 -1.0629
   69SLPC   H8Y 5931   3.245   5.921   9.591  0.8266  0.9372  0.1686
   69SLPC   C39 5932   3.151   5.734   9.536  0.1008 -0.4303 -0.2723
   69SLPC   H9X 5933   3.044   5.766   9.542  0.5349  0.8354  0.8916
   69SLPC   H9Y 5934   3.149   5.635   9.586 -0.4982  0.1863  0.9466
   69SLPC  C310 5935   3.200   5.719   9.391 -0.7510  0.4642  0.3087
   69SLPC  H10X 5936   3.302   5.675   9.388 -1.2250 -0.6307 -0.3581
   69SLPC  H10Y 5937   3.197   5.810   9.327 -2.3904 -1.1569 -2.0444
   69SLPC  C311 5938   3.113   5.614   9.322 -0.3168 -0.3811 -0.6933
   69SLPC  H11X 5939   3.011   5.656   9.313  1.1015  2.8164 -2.5260
   69SLPC  H11Y 5940   3.135   5.525   9.385  0.4036 -0.5448 -1.1645
   69SLPC  C312 5941   3.161   5.586   9.183 -0.0966 -0.2363  0.4215
   69SLPC  H12X 5942   3.260   5.536   9.186  1.0348  1.6841 -2.5075
   69SLPC  H12Y 5943   3.174   5.678   9.122  0.4859  1.0758  2.4839
   69SLPC  C313 5944   3.065   5.481   9.116 -0.2858 -0.6483 -0.3734
   69SLPC  H13X 5945   3.019   5.412   9.190  0.9465 -0.7287  0.3338
   69SLPC  H13Y 5946   3.130   5.417   9.053  0.3350 -0.4945  0.1093
   69SLPC  C314 5947   2.966   5.549   9.026 -0.5233  0.3032 -0.2981
   69SLPC  H14X 5948   3.011   5.590   8.933 -1.1836  1.4242 -0.1404
   69SLPC  H14Y 5949   2.920   5.639   9.072  0.7362  1.0938 -0.5318
   69SLPC  C315 5950   2.850   5.453   8.972  0.5302  0.0862 -0.2357
   69SLPC  H15X 5951   2.786   5.517   8.907  1.7567  3.2792  1.6251
   69SLPC  H15Y 5952   2.792   5.424   9.062 -0.2685  0.0738 -0.7522
   69SLPC  C316 5953   2.905   5.340   8.891 -0.4078 -0.2027 -0.3802
   69SLPC  H16X 5954   2.958   5.282   8.970 -1.7943 -0.3086  0.4862
   69SLPC  H16Y 5955   2.979   5.378   8.817  0.5442  1.4469  1.3919
   69SLPC  C317 5956   2.791   5.262   8.824 -0.0357 -0.0067  0.7781
   69SLPC  H17X 5957   2.712   5.332   8.789  0.3353  0.0809  0.0898
   69SLPC  H17Y 5958   2.743   5.186   8.888  1.1519 -1.0048  0.4908
   69SLPC  C318 5959   2.847   5.176   8.707  0.1410  0.0371 -0.1439
   69SLPC  H18X 5960   2.868   5.243   8.621  2.5726 -1.6493 -0.9036
   69SLPC  H18Y 5961   2.782   5.092   8.675  0.2012 -0.2331  0.4333
   69SLPC  H18Z 5962   2.941   5.122   8.728  0.2714 -0.1518 -1.2254
   70SLPC     N 5963   2.796   3.424  10.675  0.5325  0.4215 -0.1597
   70SLPC   C13 5964   2.676   3.383  10.596  0.6346 -0.5593  0.0546
   70SLPC  H13A 5965   2.605   3.340  10.664  2.8050 -2.8416  0.9802
   70SLPC  H13B 5966   2.630   3.446  10.521  0.4581 -1.0768 -0.2808
   70SLPC  H13C 5967   2.703   3.299  10.532  1.6160  0.9202 -1.5181
   70SLPC   C14 5968   2.835   3.307  10.765 -0.0930 -0.4193  0.1405
   70SLPC  H14A 5969   2.921   3.338  10.823  0.3944 -1.3702 -0.0668
   70SLPC  H14B 5970   2.751   3.284  10.828 -0.5680 -1.7420 -0.9573
   70SLPC  H14C 5971   2.859   3.218  10.710  0.9900 -0.3533  0.4996
   70SLPC   C15 5972   2.759   3.541  10.765 -0.3155  0.0799 -0.2926
   70SLPC  H15A 5973   2.682   3.503  10.830  0.6411 -1.5860 -0.1112
   70SLPC  H15B 5974   2.835   3.584  10.828 -0.5879 -2.2378  1.6962
   70SLPC  H15C 5975   2.724   3.624  10.705  0.8609  0.7980 -0.0055
   70SLPC   C12 5976   2.909   3.474  10.580  0.7603  0.5216 -0.1163
   70SLPC  H12A 5977   2.867   3.556  10.524 -0.8387 -0.0470  0.2360
   70SLPC  H12B 5978   2.935   3.404  10.502 -1.9688  0.8466 -1.3729
   70SLPC   C11 5979   3.037   3.529  10.648 -0.0161 -0.0386  0.4471
   70SLPC  H11A 5980   3.015   3.620  10.708 -0.8204 -0.6891  1.1497
   70SLPC  H11B 5981   3.102   3.562  10.564  1.5902 -1.8569  0.9218
   70SLPC     P 5982   3.236   3.472  10.806  0.0909 -0.0643  0.0867
   70SLPC   O13 5983   3.270   3.613  10.795 -0.5822 -0.4109  0.2222
   70SLPC   O14 5984   3.229   3.405  10.939  0.5436 -0.0499  0.1783
   70SLPC   O12 5985   3.104   3.427  10.728  0.3200  0.1580 -0.1211
   70SLPC   O11 5986   3.343   3.393  10.723 -0.3763  0.0495 -0.0360
   70SLPC    C1 5987   3.327   3.256  10.675 -0.0438 -0.1848  0.1918
   70SLPC    HA 5988   3.411   3.203  10.724  1.0084 -1.5331 -2.9453
   70SLPC    HB 5989   3.238   3.200  10.712 -1.4157  0.2130 -2.3709
   70SLPC    C2 5990   3.351   3.246  10.520 -0.2064  0.0414 -0.0576
   70SLPC    HS 5991   3.335   3.146  10.474 -0.3809  0.6342 -1.2774
   70SLPC   O21 5992   3.477   3.303  10.487 -0.5469  0.2664  0.0457
   70SLPC   C21 5993   3.578   3.219  10.504 -0.0071 -0.1983 -0.5408
   70SLPC   O22 5994   3.579   3.118  10.575  0.1702  0.0839  0.3757
   70SLPC   C22 5995   3.691   3.270  10.419  0.0815  0.3535  0.6215
   70SLPC   H2R 5996   3.680   3.377  10.392  0.0458 -0.1026 -1.2938
   70SLPC   H2S 5997   3.780   3.268  10.486  0.0306  1.9162  0.7441
   70SLPC    C3 5998   3.247   3.332  10.451 -0.0572 -0.3901  0.1493
   70SLPC    HX 5999   3.251   3.435  10.494  0.6923 -1.0799  1.7833
   70SLPC    HY 6000   3.146   3.287  10.462 -0.0764 -0.8394 -1.6502
   70SLPC   O31 6001   3.255   3.332  10.309 -0.0605 -0.5732 -0.3869
   70SLPC   C31 6002   3.176   3.413  10.247  0.1881  0.6298 -0.1382
   70SLPC   O32 6003   3.121   3.512  10.294 -0.1566 -0.0543 -0.7085
   70SLPC   C32 6004   3.170   3.361  10.110 -0.1092 -0.0056 -0.1992
   70SLPC   H2X 6005   3.105   3.272  10.127  1.0797 -0.3772  2.6237
   70SLPC   H2Y 6006   3.267   3.323  10.072 -0.1597 -1.3165  0.9349
   70SLPC   C23 6007   3.709   3.195  10.289  0.2251  0.1100  0.0689
   70SLPC   H3R 6008   3.694   3.086  10.309  0.0748  0.4044  1.5893
   70SLPC   H3S 6009   3.813   3.202  10.249  0.1830  1.7845  0.2428
   70SLPC   C24 6010   3.612   3.220  10.179  0.0986 -0.0274 -0.3935
   70SLPC   H4R 6011   3.588   3.329  10.177 -1.1981 -0.3201 -2.9193
   70SLPC   H4S 6012   3.519   3.162  10.195 -0.4676  0.7941 -0.6717
   70SLPC   C25 6013   3.677   3.184  10.046 -0.2478 -0.6392 -0.3098
   70SLPC   H5R 6014   3.733   3.089  10.047 -2.6503 -2.0845  1.3110
   70SLPC   H5S 6015   3.762   3.255  10.033 -0.6141 -0.0863  0.2792
   70SLPC   C26 6016   3.578   3.180   9.930  0.4457  0.9019  0.3869
   70SLPC   H6R 6017   3.499   3.257   9.937 -0.4277  0.1224 -0.6051
   70SLPC   H6S 6018   3.509   3.095   9.951  0.1337  0.9654 -0.3414
   70SLPC   C27 6019   3.655   3.165   9.799  0.1956 -0.2711  0.4945
   70SLPC   H7R 6020   3.732   3.088   9.822  0.1685 -0.5908 -0.4749
   70SLPC   H7S 6021   3.717   3.253   9.772  1.1940 -0.6040  1.6289
   70SLPC   C28 6022   3.582   3.124   9.674 -0.3670 -1.0181  0.4852
   70SLPC   H8R 6023   3.524   3.213   9.641  3.2927  1.1123 -0.5460
   70SLPC   H8S 6024   3.503   3.050   9.700 -2.6724  1.3915  0.5920
   70SLPC   C29 6025   3.671   3.062   9.566  0.1547 -0.4021 -0.2532
   70SLPC   H9R 6026   3.710   3.125   9.485 -0.6583 -0.8432 -1.0038
   70SLPC  C210 6027   3.722   2.933   9.562  0.0566  0.0775 -0.0507
   70SLPC  H10R 6028   3.791   2.892   9.486  1.2061 -0.0056  1.0175
   70SLPC  C211 6029   3.683   2.824   9.662 -0.1543 -0.0541  0.0575
   70SLPC  H11R 6030   3.683   2.722   9.617  0.4588  0.3131 -0.7910
   70SLPC  H11S 6031   3.578   2.838   9.694 -0.4288  0.1983 -0.9351
   70SLPC  C212 6032   3.775   2.803   9.784  0.4699  0.5029 -0.2631
   70SLPC  H12R 6033   3.884   2.800   9.767  0.1166  0.7598 -2.7903
   70SLPC  C213 6034   3.727   2.781   9.911  0.4164 -0.2147  0.5169
   70SLPC  H13R 6035   3.796   2.763   9.995  1.8912 -0.6716 -0.7618
   70SLPC  C214 6036   3.580   2.790   9.949 -0.2552 -0.1861 -0.8518
   70SLPC  H14R 6037   3.529   2.695   9.925 -1.9064  0.7453 -1.0567
   70SLPC  H14S 6038   3.523   2.873   9.903 -1.9371  0.7580  2.7326
   70SLPC  C215 6039   3.559   2.811  10.100  0.9742  0.5379  0.0990
   70SLPC  H15R 6040   3.450   2.822  10.121  0.1192 -3.2525 -1.9271
   70SLPC  H15S 6041   3.618   2.900  10.131  0.4944  0.7706  0.3599
   70SLPC  C216 6042   3.595   2.693  10.187  0.6851 -0.1912  0.9893
   70SLPC  H16R 6043   3.696   2.655  10.161  0.2595  0.2048 -1.3382
   70SLPC  H16S 6044   3.524   2.608  10.177  0.1845  0.5365 -1.8655
   70SLPC  C217 6045   3.592   2.723  10.339  0.2326 -0.0597 -0.0234
   70SLPC  H17R 6046   3.494   2.757  10.380  0.0972  1.4773 -1.5702
   70SLPC  H17S 6047   3.662   2.803  10.369  0.3762 -0.2260  0.0829
   70SLPC  C218 6048   3.640   2.602  10.433  0.5430  0.0921 -0.3269
   70SLPC  H18R 6049   3.739   2.558  10.409 -0.1872 -0.0261 -3.3538
   70SLPC  H18S 6050   3.563   2.525  10.412 -1.0255  1.4874  0.2361
   70SLPC  H18T 6051   3.633   2.634  10.539 -1.5570  0.8808 -0.6834
   70SLPC   C33 6052   3.107   3.469  10.006 -0.3452  0.1891  0.1421
   70SLPC   H3X 6053   3.155   3.568  10.023  1.0101  0.1352 -2.9077
   70SLPC   H3Y 6054   2.996   3.467  10.009 -0.2967 -1.7802  1.6080
   70SLPC   C34 6055   3.154   3.434   9.860  0.2810 -0.3082 -0.5782
   70SLPC   H4X 6056   3.265   3.437   9.867  0.2329 -1.1860  0.5958
   70SLPC   H4Y 6057   3.127   3.507   9.780  3.5848 -0.2047 -1.7081
   70SLPC   C35 6058   3.128   3.286   9.817 -0.5567  0.3485 -0.1667
   70SLPC   H5X 6059   3.023   3.251   9.833  0.6117 -2.6560  1.3178
   70SLPC   H5Y 6060   3.198   3.217   9.869  0.8587  1.6073 -0.3707
   70SLPC   C36 6061   3.149   3.283   9.668 -0.3871  0.4645  0.3872
   70SLPC   H6X 6062   3.248   3.315   9.630  0.4875 -1.6309  0.8635
   70SLPC   H6Y 6063   3.073   3.351   9.623  0.7563  0.3581 -1.7628
   70SLPC   C37 6064   3.133   3.142   9.600  0.4925 -0.1030  0.5168
   70SLPC   H7X 6065   3.030   3.109   9.627 -0.2316  1.9154  0.2872
   70SLPC   H7Y 6066   3.205   3.070   9.646 -0.1037 -1.2252 -0.2820
   70SLPC   C38 6067   3.161   3.147   9.448 -0.0159 -0.8504  0.1943
   70SLPC   H8X 6068   3.133   3.247   9.408 -0.1657 -0.6292  0.8345
   70SLPC   H8Y 6069   3.095   3.072   9.399 -2.4534 -1.1049  3.6434
   70SLPC   C39 6070   3.297   3.092   9.409 -0.3620 -0.4549 -0.8680
   70SLPC   H9X 6071   3.317   2.995   9.460  1.7628  0.0237 -0.7336
   70SLPC   H9Y 6072   3.383   3.148   9.449  0.2599  0.5901 -3.5608
   70SLPC  C310 6073   3.292   3.070   9.258  0.3916  0.0333 -0.6436
   70SLPC  H10X 6074   3.396   3.078   9.221  1.4614  1.7752  2.5535
   70SLPC  H10Y 6075   3.235   3.159   9.222  0.6649  0.8561  0.9072
   70SLPC  C311 6076   3.222   2.943   9.195 -0.1285  0.0566  0.1122
   70SLPC  H11X 6077   3.117   2.926   9.225  0.4192 -4.1824 -0.0650
   70SLPC  H11Y 6078   3.275   2.852   9.228 -0.8576 -0.2354  0.4810
   70SLPC  C312 6079   3.227   2.952   9.047 -0.4454  0.8261  0.3954
   70SLPC  H12X 6080   3.330   2.981   9.018 -0.9168  0.3113 -1.9437
   70SLPC  H12Y 6081   3.148   3.027   9.028  0.6723  1.7410 -0.7399
   70SLPC  C313 6082   3.202   2.819   8.977 -0.4620 -0.6247 -0.1383
   70SLPC  H13X 6083   3.269   2.740   9.019 -1.6266 -0.5692  1.9012
   70SLPC  H13Y 6084   3.222   2.833   8.869  1.4278  3.6385  0.6542
   70SLPC  C314 6085   3.061   2.754   8.989  0.2964  0.2760 -0.0424
   70SLPC  H14X 6086   3.022   2.793   9.085 -0.9474  0.8719 -0.7903
   70SLPC  H14Y 6087   3.058   2.643   8.994  1.3379  0.1456 -1.7857
   70SLPC  C315 6088   2.964   2.795   8.886  0.1331  0.3624  0.2626
   70SLPC  H15X 6089   3.009   2.770   8.787 -0.5766 -1.4448  0.3718
   70SLPC  H15Y 6090   2.958   2.906   8.894  0.8712  0.4583 -0.3834
   70SLPC  C316 6091   2.827   2.736   8.895  0.1419  0.5770  0.1251
   70SLPC  H16X 6092   2.835   2.625   8.887 -0.9111  0.6502 -2.5272
   70SLPC  H16Y 6093   2.754   2.774   8.820  1.0915 -0.2979 -1.2583
   70SLPC  C317 6094   2.750   2.757   9.029 -0.1757  0.2711  0.7997
   70SLPC  H17X 6095   2.807   2.701   9.105  2.3104  1.6718  0.0399
   70SLPC  H17Y 6096   2.649   2.711   9.024  0.2895 -0.8658  1.6316
   70SLPC  C318 6097   2.738   2.903   9.070  0.4060  0.5585  0.8531
   70SLPC  H18X 6098   2.709   2.971   8.987 -3.4752 -2.3920 -0.3531
   70SLPC  H18Y 6099   2.838   2.939   9.104  1.7553 -1.9227 -0.3847
   70SLPC  H18Z 6100   2.666   2.917   9.154  0.0900  0.6698  0.5620
   71SLPC     N 6101   3.703   2.200  10.707 -0.8736 -0.2537  0.7459
   71SLPC   C13 6102   3.627   2.321  10.745  0.3695 -0.4798 -0.6142
   71SLPC  H13A 6103   3.596   2.378  10.659  0.1150  0.7453  0.2743
   71SLPC  H13B 6104   3.535   2.295  10.796  0.6288 -1.0660 -0.4513
   71SLPC  H13C 6105   3.686   2.387  10.808 -0.9065  0.4711 -0.3855
   71SLPC   C14 6106   3.722   2.114  10.832 -0.7129  0.6602 -0.5284
   71SLPC  H14A 6107   3.761   2.171  10.915  2.1883  0.7397 -1.8945
   71SLPC  H14B 6108   3.630   2.068  10.864 -0.7887  0.0611 -1.5868
   71SLPC  H14C 6109   3.792   2.035  10.807 -2.1799 -0.9827  0.4121
   71SLPC   C15 6110   3.836   2.239  10.656  0.0959 -0.5108  0.1816
   71SLPC  H15A 6111   3.884   2.314  10.717  0.0645  1.3770 -2.0384
   71SLPC  H15B 6112   3.899   2.153  10.636 -0.4822 -0.7424 -0.6780
   71SLPC  H15C 6113   3.822   2.282  10.558  0.2842 -2.9611 -0.9620
   71SLPC   C12 6114   3.637   2.121  10.599 -0.3342  0.1571  0.6245
   71SLPC  H12A 6115   3.539   2.094  10.637 -1.2104  1.6392 -0.5098
   71SLPC  H12B 6116   3.682   2.024  10.584 -1.3066 -0.3123  0.6613
   71SLPC   C11 6117   3.620   2.185  10.466  0.2790  0.3247 -0.0976
   71SLPC  H11A 6118   3.580   2.113  10.392  1.4486 -1.0113  0.5683
   71SLPC  H11B 6119   3.715   2.224  10.422 -0.7768  2.5633 -0.4836
   71SLPC     P 6120   3.381   2.279  10.488 -0.0567 -0.0581 -0.3398
   71SLPC   O13 6121   3.357   2.213  10.616 -0.1576 -0.1954  0.4829
   71SLPC   O14 6122   3.313   2.411  10.475 -0.0777  0.2574 -0.0352
   71SLPC   O12 6123   3.531   2.298  10.466  0.1096 -0.5494 -0.2085
   71SLPC   O11 6124   3.343   2.191  10.365  0.1747  0.0461  0.2990
   71SLPC    C1 6125   3.384   2.236  10.235 -0.4799  0.3751  0.4508
   71SLPC    HA 6126   3.439   2.332  10.230 -0.0573  0.0618 -1.1454
   71SLPC    HB 6127   3.441   2.162  10.176  1.0752  1.6980  0.2626
   71SLPC    C2 6128   3.261   2.281  10.154  0.2609  0.0050  0.7685
   71SLPC    HS 6129   3.220   2.360  10.221 -3.2043  0.4537 -1.7242
   71SLPC   O21 6130   3.176   2.170  10.132 -0.3173  0.2587 -0.0832
   71SLPC   C21 6131   3.050   2.209  10.125 -0.4584  0.0973  0.5029
   71SLPC   O22 6132   3.012   2.324  10.112  0.1565 -0.0440 -0.9752
   71SLPC   C22 6133   2.957   2.090  10.141  0.4923 -0.0706  0.5657
   71SLPC   H2R 6134   3.015   2.016  10.200  0.9267  0.7921  1.2268
   71SLPC   H2S 6135   2.865   2.113  10.198  0.2089  1.2953 -0.4021
   71SLPC    C3 6136   3.302   2.344  10.018 -0.8534  0.2774  0.4911
   71SLPC    HX 6137   3.352   2.443  10.027 -4.2944  2.1873 -0.2287
   71SLPC    HY 6138   3.203   2.357   9.970 -0.6820 -0.0605  0.0447
   71SLPC   O31 6139   3.385   2.252   9.944  0.7366 -0.1691 -0.3052
   71SLPC   C31 6140   3.329   2.182   9.842 -0.8998 -0.7064  0.4025
   71SLPC   O32 6141   3.214   2.196   9.812 -0.0554  0.4622  0.3048
   71SLPC   C32 6142   3.436   2.101   9.766  0.6326 -0.2615  0.8974
   71SLPC   H2X 6143   3.401   1.996   9.771 -0.0030 -0.0468  0.9704
   71SLPC   H2Y 6144   3.536   2.102   9.816  1.4230  1.6254 -0.6622
   71SLPC   C23 6145   2.917   2.028  10.003  0.0887  0.1313  0.3255
   71SLPC   H3R 6146   3.007   1.967   9.978 -0.2218  1.0562 -3.3122
   71SLPC   H3S 6147   2.894   2.098   9.919 -2.6663 -0.8366  0.2207
   71SLPC   C24 6148   2.793   1.932  10.020 -1.1127  0.7176 -0.1432
   71SLPC   H4R 6149   2.711   2.005  10.039  1.1926  3.0576  1.0741
   71SLPC   H4S 6150   2.804   1.869  10.111 -1.2811  0.9404  0.0325
   71SLPC   C25 6151   2.766   1.835   9.901  0.5244  0.0666 -0.5230
   71SLPC   H5R 6152   2.713   1.745   9.941  1.3961 -0.0180  0.4861
   71SLPC   H5S 6153   2.870   1.818   9.864  1.5101  1.5381  1.4779
   71SLPC   C26 6154   2.690   1.893   9.789 -0.4099 -0.7131 -0.2590
   71SLPC   H6R 6155   2.758   1.969   9.745  0.2912 -0.3842  1.3433
   71SLPC   H6S 6156   2.597   1.943   9.823  1.3631  1.6718  1.1992
   71SLPC   C27 6157   2.645   1.780   9.693 -0.4057 -0.1514 -0.9965
   71SLPC   H7R 6158   2.557   1.731   9.741 -0.9288 -1.7350 -3.4866
   71SLPC   H7S 6159   2.728   1.709   9.676  1.9487  2.8405 -2.5462
   71SLPC   C28 6160   2.616   1.835   9.549  0.3852 -0.2267  0.5474
   71SLPC   H8R 6161   2.552   1.925   9.564  0.9486  0.4298 -0.8875
   71SLPC   H8S 6162   2.556   1.756   9.500  0.0253 -0.6023  1.5890
   71SLPC   C29 6163   2.740   1.859   9.473  0.1702 -0.8383 -0.8882
   71SLPC   H9R 6164   2.807   1.930   9.525 -2.1226  0.3535  0.5345
   71SLPC  C210 6165   2.781   1.795   9.364 -0.7795  0.4615 -0.2170
   71SLPC  H10R 6166   2.882   1.818   9.328 -0.3543 -1.1513 -0.1235
   71SLPC  C211 6167   2.722   1.677   9.281 -1.0210 -0.2245  0.3025
   71SLPC  H11R 6168   2.672   1.602   9.346 -0.2965  0.0545  1.1946
   71SLPC  H11S 6169   2.807   1.634   9.225 -1.7395  0.9048 -1.7232
   71SLPC  C212 6170   2.628   1.739   9.182 -0.5064  0.5316  0.3618
   71SLPC  H12R 6171   2.572   1.825   9.221  0.3263  1.1314  0.2412
   71SLPC  C213 6172   2.616   1.701   9.052  0.5344 -0.0203 -0.5878
   71SLPC  H13R 6173   2.539   1.753   8.993  1.1297  1.2907 -0.2268
   71SLPC  C214 6174   2.685   1.591   8.988  0.4745 -0.4593 -0.4495
   71SLPC  H14R 6175   2.607   1.520   8.953 -0.4799  0.6311 -0.5464
   71SLPC  H14S 6176   2.757   1.538   9.055 -2.2472 -0.4684  2.5898
   71SLPC  C215 6177   2.765   1.628   8.855 -0.3326 -0.6199 -0.0185
   71SLPC  H15R 6178   2.804   1.529   8.823 -1.1977 -0.7731 -0.6090
   71SLPC  H15S 6179   2.848   1.695   8.883 -0.9711 -0.6275  2.0239
   71SLPC  C216 6180   2.687   1.697   8.743 -0.4087  0.3609  0.4546
   71SLPC  H16R 6181   2.753   1.767   8.687 -0.8737  0.6106  0.2182
   71SLPC  H16S 6182   2.623   1.774   8.793 -0.3266 -0.8553  2.4961
   71SLPC  C217 6183   2.607   1.599   8.653 -0.1556  0.1488  0.1715
   71SLPC  H17R 6184   2.569   1.663   8.570  1.3608  1.7691  0.6973
   71SLPC  H17S 6185   2.523   1.557   8.713  0.3303 -1.1352 -0.0505
   71SLPC  C218 6186   2.685   1.473   8.600 -0.2215 -0.7726 -0.1187
   71SLPC  H18R 6187   2.619   1.428   8.522 -1.8432 -0.7399  1.2057
   71SLPC  H18S 6188   2.714   1.407   8.685 -1.3413  1.1072  1.7634
   71SLPC  H18T 6189   2.772   1.495   8.534 -1.0200 -1.6248 -1.4971
   71SLPC   C33 6190   3.448   2.138   9.621  0.5821 -0.5695 -0.2740
   71SLPC   H3X 6191   3.481   2.244   9.615  2.5460 -0.9426  2.6336
   71SLPC   H3Y 6192   3.344   2.138   9.583  0.6603 -0.3279 -0.4828
   71SLPC   C34 6193   3.544   2.039   9.558  0.0896  0.0903  1.0263
   71SLPC   H4X 6194   3.550   1.944   9.616  0.8214  0.7534  2.0687
   71SLPC   H4Y 6195   3.646   2.084   9.550 -0.5073  1.7197  2.2915
   71SLPC   C35 6196   3.503   1.988   9.414 -0.4980  0.7247  0.3611
   71SLPC   H5X 6197   3.491   2.075   9.345 -2.0530 -1.8771 -2.7821
   71SLPC   H5Y 6198   3.409   1.933   9.432 -0.8371  1.3214  0.4461
   71SLPC   C36 6199   3.605   1.893   9.347  0.5491 -0.3070 -0.0862
   71SLPC   H6X 6200   3.560   1.844   9.258  0.9454 -4.0760  1.6916
   71SLPC   H6Y 6201   3.616   1.809   9.419  0.3419  1.2654  1.8321
   71SLPC   C37 6202   3.733   1.960   9.308 -0.2538  0.3995 -0.9037
   71SLPC   H7X 6203   3.787   2.005   9.394 -0.0462 -1.4465 -0.0614
   71SLPC   H7Y 6204   3.698   2.045   9.245 -2.3090  0.3315  0.1044
   71SLPC   C38 6205   3.829   1.871   9.223  0.4260 -0.7954  0.7087
   71SLPC   H8X 6206   3.787   1.861   9.121  1.9811 -0.9095  0.0617
   71SLPC   H8Y 6207   3.830   1.768   9.264 -2.1971 -1.1389  0.0187
   71SLPC   C39 6208   3.971   1.916   9.202  0.6116  0.5186  0.6447
   71SLPC   H9X 6209   4.042   1.832   9.184 -0.6263 -0.9343  2.3378
   71SLPC   H9Y 6210   3.998   1.944   9.305  0.9905  0.8333  0.4592
   71SLPC  C310 6211   4.000   2.040   9.110 -0.5643 -0.1272 -0.0299
   71SLPC  H10X 6212   3.932   2.124   9.136  0.2048 -0.4618  3.3109
   71SLPC  H10Y 6213   3.976   1.995   9.012 -0.8900 -0.4447  0.1945
   71SLPC  C311 6214   4.152   2.093   9.092 -0.0539  0.2195 -0.3105
   71SLPC  H11X 6215   4.221   2.006   9.077 -0.3288 -0.3326  1.5326
   71SLPC  H11Y 6216   4.193   2.154   9.175  1.0967  1.0244 -1.4446
   71SLPC  C312 6217   4.154   2.189   8.966  0.0364  0.2281  0.1803
   71SLPC  H12X 6218   4.096   2.282   8.986  0.0124  0.5017 -1.1405
   71SLPC  H12Y 6219   4.102   2.145   8.879 -0.6421  0.1243  0.6263
   71SLPC  C313 6220   4.299   2.223   8.934  0.3123  1.0152  0.3022
   71SLPC  H13X 6221   4.366   2.135   8.923 -0.0748  0.6802  0.6235
   71SLPC  H13Y 6222   4.341   2.271   9.025  0.1565 -0.7498  1.3458
   71SLPC  C314 6223   4.309   2.341   8.833 -0.3825  0.3973  0.3945
   71SLPC  H14X 6224   4.404   2.394   8.856  0.2934 -0.9937  0.9102
   71SLPC  H14Y 6225   4.226   2.415   8.842  0.4660  1.4826 -0.6436
   71SLPC  C315 6226   4.298   2.297   8.684 -1.4082  0.2581  0.3351
   71SLPC  H15X 6227   4.322   2.390   8.627 -0.3571  0.9565  1.8759
   71SLPC  H15Y 6228   4.198   2.260   8.653  0.1947 -2.4162 -1.8538
   71SLPC  C316 6229   4.400   2.187   8.640  0.1819  0.5748 -0.4512
   71SLPC  H16X 6230   4.371   2.158   8.536  3.0928  1.0408 -1.4573
   71SLPC  H16Y 6231   4.395   2.097   8.704  0.8615  1.4206  0.8075
   71SLPC  C317 6232   4.541   2.241   8.639 -0.1961 -0.4377 -1.5506
   71SLPC  H17X 6233   4.552   2.289   8.738 -2.3423 -1.5191 -0.7754
   71SLPC  H17Y 6234   4.556   2.324   8.566  2.5045 -1.0691 -1.7993
   71SLPC  C318 6235   4.648   2.137   8.611  0.4024  0.5053  0.2815
   71SLPC  H18X 6236   4.751   2.173   8.633  0.9398 -1.2486  0.6974
   71SLPC  H18Y 6237   4.643   2.104   8.506  1.4015  0.8435  0.1215
   71SLPC  H18Z 6238   4.628   2.053   8.681  0.9773 -0.2074 -0.4024
   72SLPC     N 6239   4.513   0.011  11.040 -0.0621  0.4022  0.2426
   72SLPC   C13 6240   4.408  -0.096  11.066  0.0052  0.4181  0.1001
   72SLPC  H13A 6241   4.413  -0.123  11.170 -0.5346 -3.1888 -0.7711
   72SLPC  H13B 6242   4.310  -0.066  11.031  0.3183  0.8186 -0.4464
   72SLPC  H13C 6243   4.433  -0.180  11.003  0.3040  0.4610  0.1611
   72SLPC   C14 6244   4.525   0.013  10.892  0.2643  0.6827 -0.4861
   72SLPC  H14A 6245   4.535  -0.086  10.851 -0.7535  0.2605  0.2672
   72SLPC  H14B 6246   4.433   0.056  10.855 -1.1351 -0.8664  1.0924
   72SLPC  H14C 6247   4.603   0.073  10.847  2.7806 -1.5944  0.6663
   72SLPC   C15 6248   4.641  -0.022  11.102 -0.5138 -0.1965  0.0293
   72SLPC  H15A 6249   4.671  -0.117  11.061 -2.2624 -0.6377 -0.2672
   72SLPC  H15B 6250   4.714   0.052  11.075 -1.2964  0.4130 -0.4476
   72SLPC  H15C 6251   4.643  -0.026  11.210  3.1169  1.6376  0.0849
   72SLPC   C12 6252   4.477   0.147  11.085  0.8207  0.3832  0.0704
   72SLPC  H12A 6253   4.533   0.220  11.027 -2.2914  2.3257 -0.5984
   72SLPC  H12B 6254   4.496   0.147  11.191 -2.2236  2.0235  0.6575
   72SLPC   C11 6255   4.333   0.201  11.053  0.3756 -0.6509 -0.8164
   72SLPC  H11A 6256   4.317   0.287  11.122  2.0476 -0.9678 -0.0046
   72SLPC  H11B 6257   4.254   0.127  11.076 -0.7748  0.8456  0.1623
   72SLPC     P 6258   4.395   0.367  10.865 -0.1731 -0.1131  0.0195
   72SLPC   O13 6259   4.324   0.474  10.933  0.1596 -0.4509  0.4496
   72SLPC   O14 6260   4.543   0.360  10.877  0.3678 -0.3224  0.7287
   72SLPC   O12 6261   4.335   0.234  10.915  0.0525  0.2662 -0.1317
   72SLPC   O11 6262   4.348   0.369  10.717  0.6435  0.3091 -0.4630
   72SLPC    C1 6263   4.372   0.258  10.623 -0.5010 -0.4771 -0.0364
   72SLPC    HA 6264   4.408   0.165  10.672 -0.3292 -1.1558 -1.4361
   72SLPC    HB 6265   4.282   0.220  10.572 -0.2238  0.7908 -1.4964
   72SLPC    C2 6266   4.461   0.299  10.501 -1.0271  0.6170 -0.1642
   72SLPC    HS 6267   4.564   0.300  10.543 -0.8107  1.1552 -0.7028
   72SLPC   O21 6268   4.420   0.430  10.460  0.8274 -0.5868 -0.4583
   72SLPC   C21 6269   4.491   0.479  10.364  0.0572  0.0268  0.0556
   72SLPC   O22 6270   4.597   0.434  10.324 -0.7645  0.5658 -0.2622
   72SLPC   C22 6271   4.411   0.599  10.303 -0.5424  0.2810 -0.0802
   72SLPC   H2R 6272   4.376   0.650  10.395 -0.2958 -0.6270  0.5215
   72SLPC   H2S 6273   4.482   0.669  10.255 -1.6716  1.6518  0.2264
   72SLPC    C3 6274   4.470   0.185  10.389  0.4727  0.3095  0.9145
   72SLPC    HX 6275   4.468   0.087  10.442  2.5383 -0.3833 -0.2516
   72SLPC    HY 6276   4.567   0.184  10.336 -0.8548  0.4078 -1.6074
   72SLPC   O31 6277   4.367   0.200  10.290  0.5001  0.4723  0.1858
   72SLPC   C31 6278   4.255   0.125  10.297  0.2109 -0.4187 -0.7589
   72SLPC   O32 6279   4.229   0.046  10.386  1.0825  0.0143  0.1125
   72SLPC   C32 6280   4.157   0.151  10.179 -0.3680 -0.1254 -0.1264
   72SLPC   H2X 6281   4.230   0.149  10.095  0.2113  2.8236  0.2411
   72SLPC   H2Y 6282   4.116   0.253  10.200 -0.7057 -0.4750  0.9374
   72SLPC   C23 6283   4.303   0.556  10.206 -0.2692  0.6230  0.9217
   72SLPC   H3R 6284   4.241   0.646  10.187 -0.8318  0.1859  0.7010
   72SLPC   H3S 6285   4.242   0.479  10.256  0.0146 -0.7705 -0.8358
   72SLPC   C24 6286   4.354   0.520  10.060 -0.0874  0.5144  0.2384
   72SLPC   H4R 6287   4.426   0.435  10.061  0.7741  1.2463 -0.3840
   72SLPC   H4S 6288   4.416   0.602  10.020  0.2492  0.0570 -0.1868
   72SLPC   C25 6289   4.246   0.499   9.957 -0.2605 -0.0775 -0.5261
   72SLPC   H5R 6290   4.176   0.585   9.947  0.4081  0.6331  0.8059
   72SLPC   H5S 6291   4.194   0.408   9.994 -0.8357  0.4189 -0.1008
   72SLPC   C26 6292   4.302   0.467   9.816 -0.3369 -0.2223  0.6716
   72SLPC   H6R 6293   4.351   0.368   9.801  0.6363  0.1776  1.1557
   72SLPC   H6S 6294   4.373   0.545   9.780  2.4095 -1.3114  3.5170
   72SLPC   C27 6295   4.187   0.471   9.709 -0.3176 -0.4683  0.5404
   72SLPC   H7R 6296   4.134   0.568   9.720  0.6419  0.3900 -1.9884
   72SLPC   H7S 6297   4.120   0.387   9.740 -0.6098 -0.2285  0.5596
   72SLPC   C28 6298   4.237   0.463   9.562 -0.3612 -0.5683  0.5394
   72SLPC   H8R 6299   4.296   0.369   9.551  0.9829  0.3745 -0.3724
   72SLPC   H8S 6300   4.308   0.541   9.528 -0.2771 -1.4671 -1.3959
   72SLPC   C29 6301   4.124   0.462   9.460 -0.7918  0.0605 -0.4307
   72SLPC   H9R 6302   4.028   0.425   9.497 -2.0159  1.6773 -1.8877
   72SLPC  C210 6303   4.131   0.493   9.330 -0.4929  0.0823 -0.1561
   72SLPC  H10R 6304   4.038   0.487   9.272  0.0035 -1.4635 -0.7990
   72SLPC  C211 6305   4.260   0.521   9.253 -0.5762  0.5894  0.6330
   72SLPC  H11R 6306   4.347   0.529   9.322  0.3446 -1.8990 -0.1677
   72SLPC  H11S 6307   4.244   0.612   9.191 -0.3628  0.8999  1.0302
   72SLPC  C212 6308   4.287   0.405   9.159  0.1767  0.5846  0.0622
   72SLPC  H12R 6309   4.361   0.328   9.184 -0.7784  0.5268  3.0041
   72SLPC  C213 6310   4.216   0.380   9.044  0.3018 -0.0384  0.5029
   72SLPC  H13R 6311   4.238   0.293   8.980  0.1856 -0.8978  1.6041
   72SLPC  C214 6312   4.100   0.459   8.998  0.1693 -0.6342  0.7315
   72SLPC  H14R 6313   4.070   0.552   9.051  0.5244  0.8833 -1.6174
   72SLPC  H14S 6314   4.014   0.390   9.010 -2.0513  1.6295 -1.5409
   72SLPC  C215 6315   4.102   0.502   8.848  0.3115 -0.3952  0.3631
   72SLPC  H15R 6316   4.008   0.556   8.821 -0.1941 -2.1830 -1.5775
   72SLPC  H15S 6317   4.100   0.409   8.788 -0.8299  0.3151 -0.7406
   72SLPC  C216 6318   4.233   0.579   8.810  0.2131  0.0181 -0.2531
   72SLPC  H16R 6319   4.326   0.530   8.846 -0.3370 -0.6733  0.2484
   72SLPC  H16S 6320   4.228   0.678   8.859 -1.2364 -0.0443 -0.2684
   72SLPC  C217 6321   4.237   0.615   8.664 -0.3699 -0.4082 -0.4295
   72SLPC  H17R 6322   4.323   0.686   8.661 -0.8649  0.2274  0.2589
   72SLPC  H17S 6323   4.140   0.654   8.627 -0.1257 -1.7980 -2.6129
   72SLPC  C218 6324   4.272   0.500   8.566  0.1240 -0.4845 -0.0063
   72SLPC  H18R 6325   4.340   0.424   8.610 -1.1662 -1.8077 -0.2477
   72SLPC  H18S 6326   4.334   0.542   8.485 -0.4057  2.4729  1.0553
   72SLPC  H18T 6327   4.180   0.454   8.523  0.0239 -0.6261  0.3583
   72SLPC   C33 6328   4.040   0.049  10.182 -0.0499 -0.0344  0.0216
   72SLPC   H3X 6329   3.971   0.066  10.267 -0.6079 -1.0217 -0.2232
   72SLPC   H3Y 6330   4.084  -0.053  10.189  0.1108 -0.1169 -1.8710
   72SLPC   C34 6331   3.953   0.066  10.061  0.1180 -0.2353 -0.2092
   72SLPC   H4X 6332   3.901   0.162  10.080  0.4510 -0.2879  1.0362
   72SLPC   H4Y 6333   3.876  -0.014  10.065 -1.0817  0.9666  1.5136
   72SLPC   C35 6334   4.028   0.052   9.927 -0.1828  0.1868  0.6137
   72SLPC   H5X 6335   4.077  -0.048   9.931 -1.4567 -0.4686  0.1151
   72SLPC   H5Y 6336   4.115   0.119   9.913  0.0407 -0.2310 -0.0139
   72SLPC   C36 6337   3.934   0.040   9.807  0.5582 -0.6015 -0.5731
   72SLPC   H6X 6338   3.869   0.130   9.798  0.9545 -0.3461 -0.9455
   72SLPC   H6Y 6339   3.867  -0.048   9.806 -0.4216  0.1453 -1.1772
   72SLPC   C37 6340   4.017   0.046   9.681  0.0265 -0.4973 -0.2401
   72SLPC   H7X 6341   4.095  -0.032   9.690  0.7244 -0.1871 -3.1490
   72SLPC   H7Y 6342   4.064   0.146   9.681  0.7104 -0.7727  2.0468
   72SLPC   C38 6343   3.940   0.019   9.559  0.5062  0.4282  0.2278
   72SLPC   H8X 6344   3.905  -0.086   9.565  0.9387 -0.0441 -3.9885
   72SLPC   H8Y 6345   4.006   0.032   9.470 -1.7723  1.4150 -1.3821
   72SLPC   C39 6346   3.821   0.114   9.525 -0.1134 -0.2058 -0.9630
   72SLPC   H9X 6347   3.870   0.210   9.502  1.6529 -1.1044 -1.0648
   72SLPC   H9Y 6348   3.754   0.131   9.612 -0.9091 -1.7707 -1.2499
   72SLPC  C310 6349   3.739   0.060   9.410  0.5629  0.1148  0.6030
   72SLPC  H10X 6350   3.651   0.127   9.395  0.2854 -0.5378 -0.8397
   72SLPC  H10Y 6351   3.707  -0.046   9.422  0.8621 -0.2209 -1.3575
   72SLPC  C311 6352   3.815   0.045   9.272  0.4554 -0.1290 -0.1738
   72SLPC  H11X 6353   3.879  -0.046   9.269  0.0755 -0.3991 -0.1950
   72SLPC  H11Y 6354   3.885   0.131   9.275  0.7659 -0.2682 -2.4073
   72SLPC  C312 6355   3.726   0.035   9.146 -0.0120 -0.5429  0.4682
   72SLPC  H12X 6356   3.679   0.135   9.158 -0.3229 -0.3900 -1.8095
   72SLPC  H12Y 6357   3.637  -0.032   9.153 -0.4414 -0.1760 -1.1692
   72SLPC  C313 6358   3.793   0.038   9.008  0.2762 -0.2336 -0.1276
   72SLPC  H13X 6359   3.850  -0.057   8.999 -0.0169 -0.2602 -1.9839
   72SLPC  H13Y 6360   3.843   0.134   8.985 -1.1467  0.7818  0.9121
   72SLPC  C314 6361   3.680   0.019   8.913  0.2996 -0.4330 -0.8026
   72SLPC  H14X 6362   3.606   0.102   8.923 -1.6708 -2.3766  1.1807
   72SLPC  H14Y 6363   3.615  -0.067   8.938 -1.7375  1.6042  1.1606
   72SLPC  C315 6364   3.727   0.024   8.769  0.1649 -0.3484  0.5458
   72SLPC  H15X 6365   3.809  -0.049   8.754 -1.9558 -1.8917 -4.2286
   72SLPC  H15Y 6366   3.767   0.122   8.736  1.6749 -0.0182  3.1605
   72SLPC  C316 6367   3.615  -0.028   8.673  0.2675  0.0292  0.1175
   72SLPC  H16X 6368   3.576  -0.125   8.712  0.8001 -0.2764 -0.1130
   72SLPC  H16Y 6369   3.666  -0.052   8.578  0.0097 -1.1854  0.2706
   72SLPC  C317 6370   3.496   0.061   8.654 -0.0353 -0.4811 -0.1799
   72SLPC  H17X 6371   3.535   0.153   8.606  0.5489 -0.4073  0.4181
   72SLPC  H17Y 6372   3.466   0.098   8.755  2.0292 -1.1153  0.7059
   72SLPC  C318 6373   3.378  -0.003   8.583  0.7836  0.0730 -0.2341
   72SLPC  H18X 6374   3.307   0.078   8.556  0.2889 -0.5646 -0.8687
   72SLPC  H18Y 6375   3.345  -0.079   8.656  1.1160  2.1339  2.1339
   72SLPC  H18Z 6376   3.411  -0.057   8.492  0.1364  0.0753 -0.4779
   73SLPC     N 6377   3.816   5.851  11.183 -0.0754 -0.5234 -0.0679
   73SLPC   C13 6378   3.832   6.001  11.144 -0.6606 -0.0494  0.2765
   73SLPC  H13A 6379   3.801   6.017  11.042  0.9313 -0.7370 -0.3193
   73SLPC  H13B 6380   3.779   6.059  11.219 -0.6189 -1.0599  1.1025
   73SLPC  H13C 6381   3.935   6.034  11.142 -1.0493  1.1059 -2.5859
   73SLPC   C14 6382   3.676   5.806  11.158 -0.2944 -0.7043  0.5477
   73SLPC  H14A 6383   3.672   5.699  11.167 -1.6976 -0.8679 -1.6868
   73SLPC  H14B 6384   3.606   5.843  11.232  1.6673 -0.5093  2.3312
   73SLPC  H14C 6385   3.653   5.821  11.053  1.5031  2.6040  0.5386
   73SLPC   C15 6386   3.840   5.837  11.332  0.3655  0.4076 -0.4731
   73SLPC  H15A 6387   3.765   5.882  11.396 -0.6576  1.4267 -2.3627
   73SLPC  H15B 6388   3.856   5.733  11.356  2.7503  0.1722 -2.8327
   73SLPC  H15C 6389   3.931   5.883  11.368 -0.5074  1.0700  0.9461
   73SLPC   C12 6390   3.911   5.771  11.099 -0.2648 -0.1282 -0.2660
   73SLPC  H12A 6391   3.903   5.666  11.126  2.0739 -0.0848  0.6924
   73SLPC  H12B 6392   4.012   5.807  11.107 -1.0450  3.0443 -3.6684
   73SLPC   C11 6393   3.875   5.766  10.947 -0.3526 -0.5342 -0.3847
   73SLPC  H11A 6394   3.961   5.728  10.888 -0.6665 -0.0194 -1.1907
   73SLPC  H11B 6395   3.856   5.866  10.904  1.7373 -0.6478 -1.6182
   73SLPC     P 6396   3.766   5.526  10.934  0.3458 -0.5882  0.1968
   73SLPC   O13 6397   3.844   5.500  11.057 -1.1144  0.2690  0.2445
   73SLPC   O14 6398   3.629   5.462  10.913 -0.1055  0.3800 -0.4793
   73SLPC   O12 6399   3.757   5.682  10.921 -0.8381  0.5250 -0.4342
   73SLPC   O11 6400   3.860   5.488  10.809  0.6936  0.3750  0.4787
   73SLPC    C1 6401   3.805   5.444  10.683 -0.1338  0.3500  0.1908
   73SLPC    HA 6402   3.829   5.335  10.677  1.6180  0.6662  1.1182
   73SLPC    HB 6403   3.695   5.460  10.678 -0.1264  0.2705 -0.2727
   73SLPC    C2 6404   3.873   5.516  10.569  0.3726 -0.4019 -0.5321
   73SLPC    HS 6405   3.983   5.510  10.583  1.0069  2.7961 -3.3999
   73SLPC   O21 6406   3.832   5.650  10.575  0.1351  0.2382  0.1124
   73SLPC   C21 6407   3.927   5.746  10.567  0.1434  0.2674 -0.1649
   73SLPC   O22 6408   4.050   5.734  10.570  0.1483  0.0744 -0.2652
   73SLPC   C22 6409   3.845   5.879  10.557  0.1411  0.2140  0.1042
   73SLPC   H2R 6410   3.790   5.881  10.654 -0.0959 -0.3674 -0.0179
   73SLPC   H2S 6411   3.919   5.962  10.553  2.0233 -1.4820 -1.1203
   73SLPC    C3 6412   3.837   5.451  10.430  0.1523 -0.1006  0.0682
   73SLPC    HX 6413   3.727   5.449  10.420  0.3128 -0.9986 -1.7992
   73SLPC    HY 6414   3.862   5.343  10.421  0.4597 -0.0467  0.2749
   73SLPC   O31 6415   3.897   5.524  10.322 -0.5473  0.4938  0.2033
   73SLPC   C31 6416   4.024   5.493  10.297 -0.0043 -0.2867  1.2483
   73SLPC   O32 6417   4.083   5.404  10.364 -0.0478  0.2667  0.1425
   73SLPC   C32 6418   4.085   5.580  10.188 -0.0779  0.1123 -0.3791
   73SLPC   H2X 6419   4.178   5.613  10.238  1.5334 -2.4586 -1.6007
   73SLPC   H2Y 6420   4.015   5.662  10.160  0.6739  1.2652  1.0423
   73SLPC   C23 6421   3.760   5.888  10.432  0.1293 -0.2334 -0.2407
   73SLPC   H3R 6422   3.686   5.970  10.444 -0.4062 -0.9683  1.5625
   73SLPC   H3S 6423   3.708   5.795  10.400  1.0202 -0.0341 -2.3434
   73SLPC   C24 6424   3.837   5.944  10.317 -0.1787 -0.2605 -0.8037
   73SLPC   H4R 6425   3.922   5.875  10.300 -0.8760 -0.7878 -2.2000
   73SLPC   H4S 6426   3.878   6.042  10.348  0.2600 -0.3375 -1.1394
   73SLPC   C25 6427   3.765   5.971  10.184  0.0563 -0.7327 -0.4193
   73SLPC   H5R 6428   3.835   6.005  10.104 -0.8752  0.0241 -0.9278
   73SLPC   H5S 6429   3.698   6.060  10.184  1.8174  0.6348  1.1469
   73SLPC   C26 6430   3.693   5.849  10.122 -0.3380  0.1838 -0.9239
   73SLPC   H6R 6431   3.611   5.808  10.186  0.8540 -0.2102  0.3627
   73SLPC   H6S 6432   3.767   5.767  10.110 -1.1090 -0.8585  1.1427
   73SLPC   C27 6433   3.629   5.862   9.980 -0.2989  0.3233 -1.2650
   73SLPC   H7R 6434   3.698   5.891   9.898  0.9874 -0.6489 -0.5413
   73SLPC   H7S 6435   3.546   5.936   9.982 -1.7250 -1.2432  1.5303
   73SLPC   C28 6436   3.564   5.734   9.925  0.2594  0.2107 -1.1460
   73SLPC   H8R 6437   3.502   5.758   9.836 -0.2316  0.3430 -0.7692
   73SLPC   H8S 6438   3.500   5.694  10.006 -0.0508  1.0334 -0.9821
   73SLPC   C29 6439   3.671   5.629   9.892 -0.3366  0.0996 -0.4481
   73SLPC   H9R 6440   3.711   5.585   9.985  2.0461  0.6656 -1.1603
   73SLPC  C210 6441   3.717   5.584   9.771 -0.7426  0.7819 -0.0315
   73SLPC  H10R 6442   3.799   5.510   9.774 -0.0203  1.6593  3.0885
   73SLPC  C211 6443   3.678   5.641   9.635  1.1958  0.0842  0.7146
   73SLPC  H11R 6444   3.764   5.634   9.565  0.1706  0.7156 -0.6476
   73SLPC  H11S 6445   3.644   5.747   9.636 -0.1579 -0.3289 -0.0889
   73SLPC  C212 6446   3.549   5.575   9.581  0.1786 -0.0458 -0.0728
   73SLPC  H12R 6447   3.467   5.568   9.654 -0.2058  0.7702 -0.4188
   73SLPC  C213 6448   3.542   5.533   9.452  0.3594 -0.6132  0.0044
   73SLPC  H13R 6449   3.453   5.479   9.416 -0.3461  1.9230 -2.2326
   73SLPC  C214 6450   3.648   5.546   9.346  0.3030  0.1441 -0.2694
   73SLPC  H14R 6451   3.743   5.494   9.370  1.5796  2.4293 -0.2469
   73SLPC  H14S 6452   3.687   5.647   9.324 -1.3066  0.8320 -0.0154
   73SLPC  C215 6453   3.611   5.491   9.205 -0.0641  0.8820 -0.2429
   73SLPC  H15R 6454   3.527   5.548   9.160 -1.5200  1.1533  2.6739
   73SLPC  H15S 6455   3.585   5.384   9.213  2.1331  0.3953  0.9129
   73SLPC  C216 6456   3.723   5.487   9.102 -0.2173  0.5295  0.5389
   73SLPC  H16R 6457   3.813   5.437   9.143 -1.2999  0.9310  3.5747
   73SLPC  H16S 6458   3.759   5.587   9.073  1.7810 -0.3225  0.0020
   73SLPC  C217 6459   3.682   5.411   8.965  0.5288  0.2870 -0.0972
   73SLPC  H17R 6460   3.600   5.475   8.926  0.0369  0.8310  1.7442
   73SLPC  H17S 6461   3.629   5.317   8.991  0.4366  0.8600  1.9333
   73SLPC  C218 6462   3.793   5.389   8.867 -0.1112 -0.2751 -0.8604
   73SLPC  H18R 6463   3.836   5.488   8.841  2.2901 -1.8116 -2.8861
   73SLPC  H18S 6464   3.751   5.340   8.777  0.3238 -1.2892 -0.5223
   73SLPC  H18T 6465   3.867   5.326   8.921  0.2638  0.5760 -0.3618
   73SLPC   C33 6466   4.132   5.506  10.058  0.9548  0.4993 -0.2840
   73SLPC   H3X 6467   4.173   5.404  10.076  0.7243  0.4659  0.0522
   73SLPC   H3Y 6468   4.208   5.566  10.003  0.4608 -0.6309 -2.2468
   73SLPC   C34 6469   4.017   5.481   9.959 -0.0746 -0.8427  0.6314
   73SLPC   H4X 6470   3.971   5.577   9.926  1.3985 -0.1318  0.5962
   73SLPC   H4Y 6471   3.941   5.415  10.006 -1.8143  1.2170  0.8225
   73SLPC   C35 6472   4.057   5.411   9.820 -0.5518 -0.0373  0.3447
   73SLPC   H5X 6473   3.972   5.352   9.780  0.9829 -0.8300 -1.7964
   73SLPC   H5Y 6474   4.134   5.332   9.829 -1.3040 -0.8471 -0.1821
   73SLPC   C36 6475   4.101   5.513   9.711 -0.1062 -0.3463 -0.6872
   73SLPC   H6X 6476   4.208   5.539   9.724 -0.5280  0.7976  0.6608
   73SLPC   H6Y 6477   4.040   5.605   9.726  1.1335  0.1201  1.7335
   73SLPC   C37 6478   4.075   5.468   9.569  0.1351  0.2664 -0.3014
   73SLPC   H7X 6479   4.077   5.564   9.514 -1.1245 -0.5650 -1.8651
   73SLPC   H7Y 6480   3.975   5.419   9.574 -0.1128  0.8417  0.5806
   73SLPC   C38 6481   4.189   5.375   9.513 -0.2720 -0.4666 -0.5813
   73SLPC   H8X 6482   4.214   5.296   9.586  2.2910  2.4729  1.8862
   73SLPC   H8Y 6483   4.286   5.429   9.501  0.0372 -0.9435 -0.2602
   73SLPC   C39 6484   4.160   5.314   9.373  0.3100  0.7058  0.2148
   73SLPC   H9X 6485   4.070   5.249   9.373 -0.5599  1.8623 -1.7982
   73SLPC   H9Y 6486   4.230   5.234   9.342  1.3083  1.5906  0.1407
   73SLPC  C310 6487   4.144   5.419   9.268  0.8342 -0.2279 -0.0668
   73SLPC  H10X 6488   4.243   5.470   9.261  0.2956  0.6760 -1.3301
   73SLPC  H10Y 6489   4.066   5.489   9.303  0.1255 -1.9161  1.7750
   73SLPC  C311 6490   4.109   5.367   9.126  0.4518  0.0542 -0.1290
   73SLPC  H11X 6491   4.102   5.455   9.058 -3.2931  1.1186  1.4980
   73SLPC  H11Y 6492   4.009   5.321   9.138  1.2950 -1.3001  1.9154
   73SLPC  C312 6493   4.199   5.251   9.080 -0.2284  0.1089 -0.3283
   73SLPC  H12X 6494   4.191   5.168   9.153 -1.8459  0.4162 -0.1290
   73SLPC  H12Y 6495   4.300   5.296   9.077  1.2188 -2.8969  1.3195
   73SLPC  C313 6496   4.147   5.178   8.947  0.1095 -0.0085 -0.1646
   73SLPC  H13X 6497   4.036   5.182   8.940  0.2691  0.3323 -2.8536
   73SLPC  H13Y 6498   4.175   5.070   8.948  1.8292  0.4391  0.5049
   73SLPC  C314 6499   4.199   5.234   8.812 -0.4627 -0.2310  0.4722
   73SLPC  H14X 6500   4.158   5.336   8.797  1.2714  0.2973 -0.8459
   73SLPC  H14Y 6501   4.155   5.187   8.722  0.0593 -2.3079  1.2696
   73SLPC  C315 6502   4.351   5.228   8.800 -0.6542 -0.6549  0.9650
   73SLPC  H15X 6503   4.370   5.120   8.819 -3.9516 -1.0822  2.2427
   73SLPC  H15Y 6504   4.396   5.286   8.883  1.2802 -2.4624  1.2305
   73SLPC  C316 6505   4.402   5.287   8.666  0.4734  0.0470  0.1961
   73SLPC  H16X 6506   4.369   5.393   8.656  0.4842  0.2098  1.7083
   73SLPC  H16Y 6507   4.355   5.228   8.584  1.9444  2.4050 -2.4106
   73SLPC  C317 6508   4.554   5.277   8.649  0.2463 -0.1870 -0.6625
   73SLPC  H17X 6509   4.586   5.172   8.669 -1.5839 -0.4152  1.2386
   73SLPC  H17Y 6510   4.603   5.347   8.720  0.8321 -0.7053 -0.5510
   73SLPC  C318 6511   4.591   5.310   8.501  0.3497 -0.5902  0.4016
   73SLPC  H18X 6512   4.698   5.298   8.475  0.2837 -0.1981 -0.0518
   73SLPC  H18Y 6513   4.571   5.418   8.484  0.1567 -1.2597 -4.0736
   73SLPC  H18Z 6514   4.531   5.241   8.438 -1.0148  2.5970 -1.9723
   74SLPC     N 6515   5.319   1.405  10.706 -0.5892  0.4603  0.3909
   74SLPC   C13 6516   5.244   1.528  10.650 -0.1714 -0.0072  0.5676
   74SLPC  H13A 6517   5.157   1.495  10.595  0.5535 -1.2233  0.1325
   74SLPC  H13B 6518   5.230   1.599  10.730 -0.4899  1.1228 -0.4674
   74SLPC  H13C 6519   5.306   1.581  10.579  0.0437 -0.3808  0.4717
   74SLPC   C14 6520   5.231   1.353  10.815  0.8345  0.7801  0.8532
   74SLPC  H14A 6521   5.202   1.437  10.876 -0.6981  0.6373  0.3270
   74SLPC  H14B 6522   5.140   1.320  10.768  0.7070 -0.3958  1.8886
   74SLPC  H14C 6523   5.271   1.275  10.879  1.6172  0.2149 -0.3129
   74SLPC   C15 6524   5.449   1.445  10.763 -0.6012  0.0919 -0.2320
   74SLPC  H15A 6525   5.433   1.520  10.839  1.0368  1.2931 -1.0535
   74SLPC  H15B 6526   5.505   1.363  10.805 -0.1970  1.7394  2.5283
   74SLPC  H15C 6527   5.508   1.488  10.684  0.4165  1.2123  1.1222
   74SLPC   C12 6528   5.345   1.302  10.602 -0.5650  0.3330 -0.0062
   74SLPC  H12A 6529   5.407   1.222  10.640 -1.0140 -0.3284 -0.6550
   74SLPC  H12B 6530   5.402   1.347  10.523 -3.4193  0.4430 -2.0655
   74SLPC   C11 6531   5.222   1.242  10.528  0.5176 -0.5921 -0.3880
   74SLPC  H11A 6532   5.260   1.198  10.434 -0.4885 -0.1032 -1.0333
   74SLPC  H11B 6533   5.169   1.328  10.483  0.9607 -0.5592 -0.8592
   74SLPC     P 6534   5.190   1.021  10.658 -0.5839  0.2289 -0.3916
   74SLPC   O13 6535   5.320   1.037  10.718  0.2027 -0.6346  0.6126
   74SLPC   O14 6536   5.087   0.955  10.738  0.0189 -0.2846 -0.0891
   74SLPC   O12 6537   5.132   1.155  10.604 -0.2980  0.6059  0.2939
   74SLPC   O11 6538   5.208   0.931  10.535  0.4833 -0.2371  0.0136
   74SLPC    C1 6539   5.125   0.945  10.422  0.0969 -0.3206 -0.0204
   74SLPC    HA 6540   5.024   0.919  10.462 -0.5713  3.4586  1.0029
   74SLPC    HB 6541   5.124   1.050  10.385  1.5423  0.0061  0.8458
   74SLPC    C2 6542   5.175   0.852  10.310 -0.3640 -0.2262 -0.3364
   74SLPC    HS 6543   5.209   0.755  10.350 -1.5838  0.6989  3.0925
   74SLPC   O21 6544   5.284   0.919  10.240 -0.2627  0.2175  0.1738
   74SLPC   C21 6545   5.398   0.894  10.280 -0.0799  0.7277 -0.0564
   74SLPC   O22 6546   5.436   0.816  10.371 -0.1912  0.1129 -0.0417
   74SLPC   C22 6547   5.504   0.972  10.202 -0.5086  1.0258 -0.2862
   74SLPC   H2R 6548   5.442   1.047  10.148 -0.2056  0.8120 -0.9404
   74SLPC   H2S 6549   5.549   1.040  10.278  0.3666 -0.9761  1.0379
   74SLPC    C3 6550   5.066   0.825  10.203  0.9743 -0.0707 -1.0518
   74SLPC    HX 6551   5.015   0.917  10.168  0.5999 -0.9069 -2.7258
   74SLPC    HY 6552   4.989   0.761  10.251  1.0513 -0.9196 -2.0424
   74SLPC   O31 6553   5.127   0.765  10.086 -0.0808  0.0149  0.2210
   74SLPC   C31 6554   5.125   0.632  10.079  1.1141  0.1451  0.1721
   74SLPC   O32 6555   5.087   0.557  10.164  0.1318 -0.6601  0.1695
   74SLPC   C32 6556   5.189   0.578   9.951  0.1815  0.7180 -0.3291
   74SLPC   H2X 6557   5.197   0.468   9.941 -2.8134  0.4860 -0.7104
   74SLPC   H2Y 6558   5.297   0.605   9.945 -0.7275  4.4252 -1.3074
   74SLPC   C23 6559   5.602   0.882  10.124 -0.1430 -0.3688 -0.4900
   74SLPC   H3R 6560   5.648   0.800  10.183 -2.0318 -0.6688  0.6239
   74SLPC   H3S 6561   5.681   0.948  10.083  0.1693 -0.5825 -0.2276
   74SLPC   C24 6562   5.536   0.820  10.000 -0.2982  0.1236 -0.8770
   74SLPC   H4R 6563   5.485   0.895   9.935 -1.9383 -0.4590 -0.2977
   74SLPC   H4S 6564   5.447   0.758  10.029 -1.5079  1.9372 -0.6305
   74SLPC   C25 6565   5.635   0.745   9.909 -0.9231  0.0267 -0.2428
   74SLPC   H5R 6566   5.681   0.656   9.957 -0.9768 -0.3079 -0.8036
   74SLPC   H5S 6567   5.720   0.814   9.891 -1.5909  0.8891 -0.1139
   74SLPC   C26 6568   5.570   0.699   9.770  0.1329  0.1734 -0.1670
   74SLPC   H6R 6569   5.475   0.648   9.798 -0.8821  1.6675 -0.8516
   74SLPC   H6S 6570   5.637   0.622   9.725 -0.1649 -0.4154  0.3864
   74SLPC   C27 6571   5.549   0.816   9.670 -0.4970  0.1561 -0.3424
   74SLPC   H7R 6572   5.648   0.849   9.632 -0.7085  1.3685  0.1218
   74SLPC   H7S 6573   5.518   0.909   9.723 -0.7949  0.8623 -1.7312
   74SLPC   C28 6574   5.454   0.791   9.557 -0.3394  0.1697  0.5469
   74SLPC   H8R 6575   5.459   0.879   9.489  1.4686 -0.4212 -0.1073
   74SLPC   H8S 6576   5.349   0.791   9.593 -0.2213  1.3794  0.9365
   74SLPC   C29 6577   5.474   0.668   9.476  0.5171  0.3605 -0.4005
   74SLPC   H9R 6578   5.490   0.584   9.545 -1.4451 -0.4637 -0.9339
   74SLPC  C210 6579   5.474   0.647   9.339 -0.3693 -0.1327  0.3780
   74SLPC  H10R 6580   5.469   0.548   9.293  1.4001  0.0122 -0.1750
   74SLPC  C211 6581   5.469   0.757   9.233  0.2443 -0.1135 -0.7207
   74SLPC  H11R 6582   5.405   0.838   9.273  1.4201  0.5804 -0.2184
   74SLPC  H11S 6583   5.424   0.725   9.136 -0.0929 -0.1246 -0.5608
   74SLPC  C212 6584   5.607   0.815   9.208 -0.0400 -0.2188  0.1592
   74SLPC  H12R 6585   5.659   0.831   9.304 -0.1487 -0.4098  0.2499
   74SLPC  C213 6586   5.665   0.862   9.094 -0.3712 -0.5139  0.4616
   74SLPC  H13R 6587   5.763   0.913   9.093 -0.7694  0.2625  0.6011
   74SLPC  C214 6588   5.593   0.872   8.962 -0.4687 -0.6827  0.3323
   74SLPC  H14R 6589   5.547   0.971   8.942 -1.2884 -1.2023 -0.3635
   74SLPC  H14S 6590   5.524   0.786   8.950 -0.9211 -0.2145 -0.3962
   74SLPC  C215 6591   5.698   0.857   8.844  0.0299  0.6163  0.2294
   74SLPC  H15R 6592   5.767   0.774   8.868  0.8313  1.1612 -0.1432
   74SLPC  H15S 6593   5.767   0.944   8.836  1.5939 -0.6841 -0.6229
   74SLPC  C216 6594   5.629   0.826   8.715  0.4189 -0.3220 -0.4983
   74SLPC  H16R 6595   5.558   0.909   8.700  0.4817 -0.1139  0.3381
   74SLPC  H16S 6596   5.565   0.737   8.733  0.8677 -0.3173  1.1929
   74SLPC  C217 6597   5.728   0.809   8.601  0.4012  0.1733  0.4966
   74SLPC  H17R 6598   5.808   0.744   8.642  0.2273 -1.0060 -1.0029
   74SLPC  H17S 6599   5.773   0.909   8.585 -0.9879  0.3009 -3.0862
   74SLPC  C218 6600   5.669   0.755   8.464 -0.2566 -0.3736  0.4605
   74SLPC  H18R 6601   5.631   0.650   8.465 -1.8925  0.1339 -2.8363
   74SLPC  H18S 6602   5.744   0.760   8.382 -0.0885  0.4023  0.6605
   74SLPC  H18T 6603   5.570   0.803   8.451  0.3035  0.2085 -1.9862
   74SLPC   C33 6604   5.113   0.629   9.826  0.2146  0.3215 -0.1042
   74SLPC   H3X 6605   5.121   0.739   9.811 -1.9278  0.6928  1.3399
   74SLPC   H3Y 6606   5.003   0.613   9.828 -0.3468  3.6073 -0.5209
   74SLPC   C34 6607   5.153   0.559   9.695  0.4465 -0.2240 -0.0643
   74SLPC   H4X 6608   5.138   0.452   9.720 -1.4864 -0.0635 -0.4527
   74SLPC   H4Y 6609   5.262   0.568   9.678  0.6922 -1.6106  0.6745
   74SLPC   C35 6610   5.076   0.601   9.570  0.2057  0.2725  0.1045
   74SLPC   H5X 6611   5.100   0.708   9.550  1.3809  0.1655  0.8611
   74SLPC   H5Y 6612   4.966   0.586   9.581 -0.0044  0.9259 -1.0658
   74SLPC   C36 6613   5.121   0.518   9.452 -0.4713 -0.3297  0.6196
   74SLPC   H6X 6614   5.082   0.416   9.473 -0.9294  0.0821  1.7548
   74SLPC   H6Y 6615   5.232   0.507   9.444 -0.5309 -1.5070  1.2957
   74SLPC   C37 6616   5.077   0.575   9.313 -0.2762 -0.1665 -0.2536
   74SLPC   H7X 6617   5.080   0.686   9.315  0.0643 -0.1931  0.5048
   74SLPC   H7Y 6618   4.969   0.550   9.301 -0.0985 -1.3386  0.4855
   74SLPC   C38 6619   5.140   0.517   9.188 -0.1173 -0.4785  0.1531
   74SLPC   H8X 6620   5.109   0.411   9.184  0.8968 -0.8941  2.2336
   74SLPC   H8Y 6621   5.248   0.534   9.203 -0.0304  1.2040 -2.1270
   74SLPC   C39 6622   5.084   0.601   9.072  0.5870 -0.0008  0.3222
   74SLPC   H9X 6623   5.112   0.707   9.087  0.3999  0.4708 -2.3702
   74SLPC   H9Y 6624   4.975   0.579   9.064  0.7605 -0.3639 -1.2878
   74SLPC  C310 6625   5.152   0.574   8.938  0.2235 -0.1668  0.6488
   74SLPC  H10X 6626   5.136   0.469   8.905 -2.0256  0.9508 -2.0023
   74SLPC  H10Y 6627   5.261   0.593   8.945 -0.0456  1.3897  0.8040
   74SLPC  C311 6628   5.112   0.658   8.812  0.2829  0.2993  0.0613
   74SLPC  H11X 6629   5.191   0.634   8.737  0.3399 -0.9317  0.5037
   74SLPC  H11Y 6630   5.115   0.767   8.833 -0.4108 -0.4739  4.7770
   74SLPC  C312 6631   4.978   0.605   8.754  0.0529  0.2016  0.4384
   74SLPC  H12X 6632   4.897   0.595   8.829 -2.1278  3.6585 -1.3378
   74SLPC  H12Y 6633   5.007   0.504   8.717 -0.0614 -0.1439  1.2783
   74SLPC  C313 6634   4.913   0.686   8.644 -0.7364  0.1609 -0.2408
   74SLPC  H13X 6635   4.982   0.698   8.558 -2.8573 -2.8660 -2.4805
   74SLPC  H13Y 6636   4.884   0.788   8.677 -3.1678 -0.1818 -1.2583
   74SLPC  C314 6637   4.784   0.614   8.598 -0.7579  0.2299 -0.3232
   74SLPC  H14X 6638   4.726   0.592   8.691  1.0607 -0.4807  0.6524
   74SLPC  H14Y 6639   4.798   0.517   8.545 -3.9592 -0.7156  0.4099
   74SLPC  C315 6640   4.695   0.699   8.513 -0.9127  0.2056 -0.4117
   74SLPC  H15X 6641   4.738   0.802   8.520 -0.1902  0.1022 -2.9685
   74SLPC  H15Y 6642   4.594   0.713   8.556 -1.1491 -2.0699 -0.1836
   74SLPC  C316 6643   4.666   0.646   8.377 -0.4637 -0.2376 -0.3979
   74SLPC  H16X 6644   4.614   0.550   8.398  0.4780 -0.5043  0.8315
   74SLPC  H16Y 6645   4.756   0.610   8.323  2.6047  1.5066  3.3056
   74SLPC  C317 6646   4.578   0.731   8.293  0.2256  0.3355  0.0857
   74SLPC  H17X 6647   4.470   0.740   8.319 -0.3033 -0.0439 -1.8428
   74SLPC  H17Y 6648   4.572   0.681   8.194 -0.8824 -1.5212  1.0627
   74SLPC  C318 6649   4.634   0.876   8.271 -0.6282  0.3956  0.4544
   74SLPC  H18X 6650   4.560   0.931   8.209 -2.3125  0.5602  2.5599
   74SLPC  H18Y 6651   4.730   0.882   8.216 -1.5043  2.6604 -0.9140
   74SLPC  H18Z 6652   4.649   0.925   8.369 -0.3683  3.2856 -0.9752
   75SLPC     N 6653   3.208   3.464   6.324  0.2324 -0.5707  0.3043
   75SLPC   C13 6654   3.293   3.397   6.221 -0.1662 -0.0335  0.3381
   75SLPC  H13A 6655   3.358   3.462   6.165  4.1318 -4.6921 -0.3671
   75SLPC  H13B 6656   3.345   3.311   6.259  1.1693 -0.3537 -2.1143
   75SLPC  H13C 6657   3.226   3.348   6.151 -2.0010  0.2842  1.8221
   75SLPC   C14 6658   3.152   3.362   6.414  0.0388  0.0853  0.9641
   75SLPC  H14A 6659   3.052   3.386   6.448 -0.7812  0.6251 -1.7138
   75SLPC  H14B 6660   3.141   3.265   6.369  0.3725 -0.0212  1.1122
   75SLPC  H14C 6661   3.211   3.348   6.504 -0.9365 -1.9232  1.3207
   75SLPC   C15 6662   3.082   3.522   6.262  0.1039 -0.5691 -0.3595
   75SLPC  H15A 6663   3.036   3.448   6.198  0.6677 -0.3246 -1.0414
   75SLPC  H15B 6664   3.005   3.550   6.334  2.3544  2.6992  0.8659
   75SLPC  H15C 6665   3.102   3.615   6.212  3.4360 -1.3679 -0.6088
   75SLPC   C12 6666   3.287   3.567   6.403 -0.0944 -0.8610 -0.2372
   75SLPC  H12A 6667   3.383   3.521   6.416  0.9201  0.9601 -1.2032
   75SLPC  H12B 6668   3.255   3.580   6.506  5.4761 -1.0481  1.6394
   75SLPC   C11 6669   3.307   3.699   6.330 -0.0493 -0.4739 -0.4995
   75SLPC  H11A 6670   3.204   3.738   6.315  0.3435  0.6851 -0.2087
   75SLPC  H11B 6671   3.362   3.682   6.235 -1.0027 -0.9628 -0.9741
   75SLPC     P 6672   3.524   3.772   6.467  0.0313  0.5205  0.0072
   75SLPC   O13 6673   3.606   3.677   6.382  0.2909  0.1280 -0.5963
   75SLPC   O14 6674   3.588   3.902   6.490  0.1490 -0.6664  0.0773
   75SLPC   O12 6675   3.381   3.796   6.414  0.1571  0.1923 -0.1027
   75SLPC   O11 6676   3.491   3.708   6.607  0.0248 -0.3677 -0.2065
   75SLPC    C1 6677   3.379   3.757   6.679  0.7749  0.4352 -0.6107
   75SLPC    HA 6678   3.298   3.791   6.611  0.5110  0.1976 -0.4167
   75SLPC    HB 6679   3.338   3.671   6.737  1.2017  2.1289  2.2718
   75SLPC    C2 6680   3.415   3.874   6.778 -0.0948  0.2138  0.1481
   75SLPC    HS 6681   3.464   3.952   6.716 -0.6246 -1.4732 -2.4522
   75SLPC   O21 6682   3.488   3.828   6.890  0.3300  0.0443  0.0706
   75SLPC   C21 6683   3.619   3.835   6.876 -1.0539  0.2204 -0.1818
   75SLPC   O22 6684   3.681   3.867   6.777  0.0231  0.2881  0.1240
   75SLPC   C22 6685   3.696   3.793   7.007 -0.1254 -0.4539 -0.3603
   75SLPC   H2R 6686   3.793   3.745   6.986  0.2552  0.4803 -0.7550
   75SLPC   H2S 6687   3.712   3.883   7.070 -0.2792 -2.5241  2.7424
   75SLPC    C3 6688   3.279   3.929   6.825  0.2842 -1.1877 -0.3821
   75SLPC    HX 6689   3.213   3.846   6.856  0.2211 -1.4685 -1.2640
   75SLPC    HY 6690   3.230   3.990   6.746  1.4760  1.3779  0.7758
   75SLPC   O31 6691   3.295   3.994   6.954 -0.1828 -0.1112 -0.8929
   75SLPC   C31 6692   3.356   4.116   6.933 -0.0562 -0.0944 -0.0960
   75SLPC   O32 6693   3.371   4.174   6.830  0.3862 -0.6168  0.2335
   75SLPC   C32 6694   3.385   4.177   7.065 -0.0674 -0.5103 -0.5689
   75SLPC   H2X 6695   3.287   4.201   7.111  1.3724 -1.1201  2.9148
   75SLPC   H2Y 6696   3.434   4.275   7.047 -0.5903 -0.3139 -0.9433
   75SLPC   C23 6697   3.626   3.682   7.092  0.4974 -1.1304  0.1294
   75SLPC   H3R 6698   3.624   3.586   7.035  1.9356  0.4453 -2.6909
   75SLPC   H3S 6699   3.516   3.694   7.100  0.4175 -0.9456 -1.0591
   75SLPC   C24 6700   3.678   3.688   7.230 -0.4769 -0.4751 -0.0177
   75SLPC   H4R 6701   3.684   3.796   7.258 -3.0373  0.5091 -3.0139
   75SLPC   H4S 6702   3.787   3.664   7.231 -0.6915 -1.5000  1.9412
   75SLPC   C25 6703   3.613   3.585   7.333 -0.7712 -0.0784  0.2083
   75SLPC   H5R 6704   3.635   3.484   7.291  0.9008 -0.0938  1.1095
   75SLPC   H5S 6705   3.507   3.616   7.333 -1.4848 -2.3416  1.8349
   75SLPC   C26 6706   3.662   3.586   7.470  0.1406  0.3010  0.1541
   75SLPC   H6R 6707   3.606   3.517   7.537 -0.0898 -0.5391 -0.8754
   75SLPC   H6S 6708   3.644   3.690   7.505  0.3611  0.7201 -0.9630
   75SLPC   C27 6709   3.809   3.567   7.500  0.4547 -0.1200  0.4365
   75SLPC   H7R 6710   3.866   3.639   7.438 -1.6065  2.1713  1.1102
   75SLPC   H7S 6711   3.828   3.463   7.464 -2.7835  0.1667 -2.3585
   75SLPC   C28 6712   3.851   3.600   7.646  0.5793  0.2833 -0.7014
   75SLPC   H8R 6713   3.813   3.702   7.668  0.6090  0.2623 -0.5547
   75SLPC   H8S 6714   3.961   3.615   7.646  1.1657 -3.5078 -0.6186
   75SLPC   C29 6715   3.796   3.499   7.741 -0.2002  0.2733  1.0322
   75SLPC   H9R 6716   3.800   3.396   7.702  0.3274  0.8741 -0.5428
   75SLPC  C210 6717   3.728   3.516   7.860 -0.5219  0.1566  0.3493
   75SLPC  H10R 6718   3.697   3.423   7.909  1.7065 -1.5339 -1.3443
   75SLPC  C211 6719   3.695   3.643   7.931 -0.0794  0.2045 -0.3138
   75SLPC  H11R 6720   3.595   3.623   7.976  0.4291 -2.3253 -0.2613
   75SLPC  H11S 6721   3.681   3.733   7.867 -1.1832  0.7115  0.6175
   75SLPC  C212 6722   3.800   3.668   8.041 -0.4787 -0.2009 -0.3928
   75SLPC  H12R 6723   3.901   3.685   7.999 -0.2970  0.2322  0.2125
   75SLPC  C213 6724   3.789   3.651   8.173 -0.5809 -0.2418  0.2655
   75SLPC  H13R 6725   3.867   3.680   8.245  1.6607 -3.8162 -0.5848
   75SLPC  C214 6726   3.663   3.619   8.242  0.0633  0.6939 -0.0275
   75SLPC  H14R 6727   3.577   3.663   8.187 -0.6336  0.7620  1.0980
   75SLPC  H14S 6728   3.657   3.667   8.342  1.5106  1.4490 -0.2948
   75SLPC  C215 6729   3.660   3.465   8.265  0.4819 -0.5733  0.9501
   75SLPC  H15R 6730   3.744   3.437   8.332  0.7956 -0.1910  0.7161
   75SLPC  H15S 6731   3.690   3.409   8.174 -1.0370  1.0745 -0.5862
   75SLPC  C216 6732   3.526   3.409   8.309 -0.2044  0.3821 -0.5097
   75SLPC  H16R 6733   3.517   3.300   8.288 -0.0668  0.8924 -3.3921
   75SLPC  H16S 6734   3.455   3.455   8.238 -0.4027 -0.2192 -0.7083
   75SLPC  C217 6735   3.478   3.454   8.446  0.2348  0.2826  0.0016
   75SLPC  H17R 6736   3.486   3.564   8.442  1.7699  0.2649  1.9062
   75SLPC  H17S 6737   3.552   3.415   8.520 -0.3583 -1.8887 -0.4980
   75SLPC  C218 6738   3.329   3.409   8.469  0.3061  0.9181 -0.7594
   75SLPC  H18R 6739   3.314   3.304   8.503 -2.4415  1.2194 -0.9284
   75SLPC  H18S 6740   3.264   3.445   8.386 -1.1792 -0.5786 -0.2571
   75SLPC  H18T 6741   3.291   3.465   8.557  0.0820 -0.3107 -0.0684
   75SLPC   C33 6742   3.459   4.084   7.169 -0.3969 -0.6742  0.8016
   75SLPC   H3X 6743   3.415   3.982   7.168 -1.0168 -0.3923 -1.7647
   75SLPC   H3Y 6744   3.564   4.085   7.131  0.2415 -4.4742  2.1978
   75SLPC   C34 6745   3.454   4.141   7.310  0.3781  0.1356 -0.6902
   75SLPC   H4X 6746   3.346   4.153   7.335  1.2241 -0.9107  4.0501
   75SLPC   H4Y 6747   3.495   4.244   7.322 -0.2163  0.1021  2.0823
   75SLPC   C35 6748   3.519   4.044   7.409  0.6198  0.0670 -0.1912
   75SLPC   H5X 6749   3.628   4.034   7.386  0.4378 -1.0729 -0.5672
   75SLPC   H5Y 6750   3.485   3.943   7.379  1.4879 -0.1065 -0.5949
   75SLPC   C36 6751   3.482   4.072   7.547 -0.1853 -0.5640  0.8536
   75SLPC   H6X 6752   3.375   4.097   7.562  0.6407  1.9719  2.9449
   75SLPC   H6Y 6753   3.542   4.159   7.583 -1.2469  0.4576  0.2094
   75SLPC   C37 6754   3.518   3.959   7.631  0.7613  0.2440 -0.4062
   75SLPC   H7X 6755   3.621   3.926   7.606  0.6339 -0.9374  0.5391
   75SLPC   H7Y 6756   3.447   3.877   7.606 -1.2684  1.9264 -0.2935
   75SLPC   C38 6757   3.530   3.987   7.775 -0.3677  0.6717  0.2734
   75SLPC   H8X 6758   3.578   4.086   7.791 -1.1584  1.0143  0.5242
   75SLPC   H8Y 6759   3.601   3.915   7.822 -0.5644 -1.7150 -2.8959
   75SLPC   C39 6760   3.400   3.975   7.855  0.1295 -0.2371  0.1295
   75SLPC   H9X 6761   3.308   3.977   7.794  0.6955  0.8250 -0.6960
   75SLPC   H9Y 6762   3.377   4.049   7.935  2.2574 -1.0650  1.5801
   75SLPC  C310 6763   3.390   3.840   7.930  0.0816 -0.5731 -0.1967
   75SLPC  H10X 6764   3.477   3.836   7.998 -2.3440  2.1545  3.2888
   75SLPC  H10Y 6765   3.391   3.751   7.862  3.5416  0.5993 -1.8026
   75SLPC  C311 6766   3.259   3.826   8.010 -0.4849 -0.5643 -0.0430
   75SLPC  H11X 6767   3.182   3.847   7.933  1.1087 -1.8493 -2.0064
   75SLPC  H11Y 6768   3.243   3.905   8.087 -0.0645  1.7929 -2.3163
   75SLPC  C312 6769   3.241   3.681   8.072  0.0129 -0.1195  0.2019
   75SLPC  H12X 6770   3.337   3.673   8.128  0.3564 -0.0640 -0.3681
   75SLPC  H12Y 6771   3.230   3.612   7.985  0.6829 -0.5690  0.4682
   75SLPC  C313 6772   3.123   3.667   8.165  0.6999 -0.0361  0.2376
   75SLPC  H13X 6773   3.121   3.748   8.240  0.0551  1.8351 -1.7274
   75SLPC  H13Y 6774   3.128   3.569   8.216 -0.5890  0.3091  1.0277
   75SLPC  C314 6775   2.986   3.668   8.094 -0.8515  0.0229 -0.4364
   75SLPC  H14X 6776   2.992   3.762   8.035  0.0234  0.8623  0.9430
   75SLPC  H14Y 6777   2.911   3.681   8.175 -1.3040  1.4082 -1.0540
   75SLPC  C315 6778   2.954   3.542   8.026  0.2333  0.1333 -0.0133
   75SLPC  H15X 6779   2.972   3.465   8.104 -0.8173  0.1912  0.2921
   75SLPC  H15Y 6780   3.034   3.523   7.951 -0.3263  1.0451 -0.8623
   75SLPC  C316 6781   2.823   3.537   7.950  0.0518 -0.4432 -0.0792
   75SLPC  H16X 6782   2.817   3.457   7.873  0.2316 -1.7526  1.2428
   75SLPC  H16Y 6783   2.806   3.630   7.891 -2.5160 -0.8848 -0.0877
   75SLPC  C317 6784   2.708   3.525   8.043  0.3281 -0.5494 -0.1770
   75SLPC  H17X 6785   2.709   3.610   8.114  0.3943 -1.6774  1.1888
   75SLPC  H17Y 6786   2.716   3.441   8.115 -0.3980 -2.0164 -1.7654
   75SLPC  C318 6787   2.582   3.529   7.962 -0.9475 -0.0643  0.1890
   75SLPC  H18X 6788   2.563   3.449   7.887 -0.0961  0.8096 -0.9710
   75SLPC  H18Y 6789   2.575   3.625   7.907 -1.0982  0.0876  0.4701
   75SLPC  H18Z 6790   2.493   3.528   8.029 -0.3360  0.7180  1.0233
   76SLPC     N 6791   6.117   2.372   5.803  0.1715  0.2488  0.0982
   76SLPC   C13 6792   5.988   2.321   5.736  0.4932 -0.0811 -0.0224
   76SLPC  H13A 6793   5.916   2.275   5.802 -1.1297  1.0522 -0.9671
   76SLPC  H13B 6794   5.921   2.398   5.700  2.1619  0.8220 -1.2624
   76SLPC  H13C 6795   6.009   2.276   5.640  1.3727 -1.4790  0.8034
   76SLPC   C14 6796   6.083   2.433   5.938  0.2284 -0.6513  0.6431
   76SLPC  H14A 6797   6.025   2.363   5.996 -0.0607  1.7033  3.2667
   76SLPC  H14B 6798   6.170   2.451   6.000  0.5308  1.2801 -0.3074
   76SLPC  H14C 6799   6.033   2.527   5.924  0.8251 -0.5102 -0.5758
   76SLPC   C15 6800   6.188   2.476   5.713  0.1467  0.6282  0.1458
   76SLPC  H15A 6801   6.218   2.445   5.614 -0.8101 -1.0949  0.3845
   76SLPC  H15B 6802   6.114   2.555   5.705 -0.2404  0.4871  2.1148
   76SLPC  H15C 6803   6.272   2.514   5.769 -0.1794 -1.4851  2.1264
   76SLPC   C12 6804   6.210   2.253   5.832 -0.0703  0.4611 -0.2800
   76SLPC  H12A 6805   6.245   2.222   5.734  0.3342  1.8479 -0.5880
   76SLPC  H12B 6806   6.158   2.168   5.874  0.8616  0.0076 -0.0271
   76SLPC   C11 6807   6.337   2.283   5.912 -0.3821  0.0565  0.1009
   76SLPC  H11A 6808   6.405   2.343   5.848  2.0476 -0.1510  2.4143
   76SLPC  H11B 6809   6.382   2.182   5.920 -0.6282 -0.3153 -2.6877
   76SLPC     P 6810   6.448   2.349   6.134 -0.4374  0.0452 -0.2182
   76SLPC   O13 6811   6.530   2.224   6.120  0.1639  0.1876 -0.1952
   76SLPC   O14 6812   6.516   2.478   6.116  0.2020 -0.5136  0.0418
   76SLPC   O12 6813   6.327   2.350   6.038  0.3559 -0.7711 -0.8468
   76SLPC   O11 6814   6.383   2.346   6.285  0.0300  0.1001 -0.2919
   76SLPC    C1 6815   6.275   2.432   6.330 -0.5764 -0.0398  0.1556
   76SLPC    HA 6816   6.320   2.516   6.387 -1.3348 -0.4231  1.3204
   76SLPC    HB 6817   6.219   2.468   6.241  0.5967 -0.5017 -0.8006
   76SLPC    C2 6818   6.164   2.365   6.419 -0.1962  0.9224  0.8139
   76SLPC    HS 6819   6.093   2.448   6.442 -0.6604  0.7117  0.1528
   76SLPC   O21 6820   6.225   2.293   6.525  0.2111 -0.6655 -0.3866
   76SLPC   C21 6821   6.259   2.384   6.625  0.3555 -0.3633 -0.2752
   76SLPC   O22 6822   6.236   2.503   6.621 -0.1127  0.0155 -1.7011
   76SLPC   C22 6823   6.348   2.315   6.733 -0.4808  0.3481 -0.1891
   76SLPC   H2R 6824   6.392   2.226   6.684 -1.9118 -0.0525 -0.7808
   76SLPC   H2S 6825   6.434   2.378   6.764  1.5472 -2.6023  0.3661
   76SLPC    C3 6826   6.097   2.261   6.334 -0.5807 -0.4306 -0.1523
   76SLPC    HX 6827   6.178   2.193   6.300 -0.1682  0.8501 -1.8485
   76SLPC    HY 6828   6.060   2.305   6.239 -0.5556  1.6303  0.7689
   76SLPC   O31 6829   5.990   2.201   6.411 -0.2922 -0.5106  0.3945
   76SLPC   C31 6830   6.021   2.084   6.454  0.5176 -0.5784 -0.1143
   76SLPC   O32 6831   6.128   2.026   6.430  0.5327 -0.0789  0.1069
   76SLPC   C32 6832   5.922   2.039   6.566  0.0413 -0.2017 -0.3660
   76SLPC   H2X 6833   5.820   2.076   6.541  1.6651  1.6592 -4.6993
   76SLPC   H2Y 6834   5.964   2.069   6.665 -0.4024 -0.8942  0.0410
   76SLPC   C23 6835   6.277   2.265   6.865  0.4031  0.0474 -0.8449
   76SLPC   H3R 6836   6.187   2.329   6.875  0.7797  0.1508  2.3784
   76SLPC   H3S 6837   6.344   2.267   6.953 -1.2705 -2.5460  0.5498
   76SLPC   C24 6838   6.230   2.122   6.849 -0.6360  0.2119 -0.0966
   76SLPC   H4R 6839   6.322   2.063   6.873 -1.0510  0.3106  1.8216
   76SLPC   H4S 6840   6.212   2.096   6.742 -0.2974  2.2803 -0.6729
   76SLPC   C25 6841   6.119   2.082   6.945  0.6439 -0.2198  0.3650
   76SLPC   H5R 6842   6.092   1.978   6.917  2.5614 -0.7938  0.5799
   76SLPC   H5S 6843   6.030   2.145   6.924 -0.8211 -2.3258  0.1002
   76SLPC   C26 6844   6.149   2.089   7.096 -0.8370  0.2085 -0.5845
   76SLPC   H6R 6845   6.182   2.187   7.137 -1.1804 -0.0646  0.3454
   76SLPC   H6S 6846   6.228   2.017   7.124  1.6588  2.9341 -0.3832
   76SLPC   C27 6847   6.026   2.037   7.187  0.3597  0.1051  0.4018
   76SLPC   H7R 6848   6.058   2.042   7.293 -2.3780 -1.0180  1.3432
   76SLPC   H7S 6849   5.986   1.943   7.142  0.1395 -0.3776  1.6000
   76SLPC   C28 6850   5.906   2.145   7.192 -0.4494 -0.1916  0.0650
   76SLPC   H8R 6851   5.944   2.240   7.235 -1.8645  0.1209  0.6673
   76SLPC   H8S 6852   5.867   2.156   7.089  2.3334  1.8323 -0.8340
   76SLPC   C29 6853   5.805   2.094   7.290  0.2862  0.9536  0.4911
   76SLPC   H9R 6854   5.737   2.014   7.255  1.6302  0.1421 -0.2948
   76SLPC  C210 6855   5.796   2.114   7.423 -0.2465  0.3285 -0.0665
   76SLPC  H10R 6856   5.717   2.058   7.476 -0.2718  0.4013 -0.0263
   76SLPC  C211 6857   5.872   2.203   7.514 -0.2833 -0.0702  1.0003
   76SLPC  H11R 6858   5.821   2.300   7.534 -0.2470 -0.1172  1.3199
   76SLPC  H11S 6859   5.972   2.232   7.473 -0.7056 -4.6397 -3.7359
   76SLPC  C212 6860   5.907   2.124   7.637 -0.0400 -0.6960  0.3970
   76SLPC  H12R 6861   6.008   2.080   7.636  0.5833  0.6775 -2.0966
   76SLPC  C213 6862   5.840   2.103   7.747  0.2285 -0.6245  0.0285
   76SLPC  H13R 6863   5.885   2.050   7.832  2.4598  1.2596  0.0730
   76SLPC  C214 6864   5.707   2.156   7.787  0.4702  1.1454  0.4185
   76SLPC  H14R 6865   5.661   2.095   7.868  1.8052 -0.1719  0.1869
   76SLPC  H14S 6866   5.632   2.145   7.706  1.0522 -0.0481  0.0444
   76SLPC  C215 6867   5.705   2.303   7.830 -0.3543 -0.8995  0.8166
   76SLPC  H15R 6868   5.602   2.344   7.839 -0.4119 -0.4890 -1.4045
   76SLPC  H15S 6869   5.766   2.359   7.755  1.1070 -3.4451  0.0228
   76SLPC  C216 6870   5.757   2.330   7.977  0.2890  0.6032 -0.0513
   76SLPC  H16R 6871   5.842   2.259   7.985 -0.1372 -0.0603 -1.1965
   76SLPC  H16S 6872   5.677   2.312   8.053 -0.1428  2.7345  0.0153
   76SLPC  C217 6873   5.794   2.476   8.006 -0.6660  0.6477 -0.8984
   76SLPC  H17R 6874   5.696   2.527   8.003 -0.7565  0.6423  1.3282
   76SLPC  H17S 6875   5.859   2.520   7.926  0.4451 -1.1800 -1.0315
   76SLPC  C218 6876   5.859   2.497   8.143  0.0061  0.0698  0.6426
   76SLPC  H18R 6877   5.796   2.460   8.227  0.5835 -0.1210  0.9931
   76SLPC  H18S 6878   5.867   2.607   8.156  1.2310 -0.0928  1.2720
   76SLPC  H18T 6879   5.962   2.456   8.145  0.6071  1.6271  2.6145
   76SLPC   C33 6880   5.917   1.888   6.565  0.5600  0.1851  0.0187
   76SLPC   H3X 6881   6.011   1.840   6.600  2.0442  1.4900 -1.9569
   76SLPC   H3Y 6882   5.908   1.848   6.461 -0.3461 -3.2662  1.3704
   76SLPC   C34 6883   5.804   1.826   6.651  0.4115  0.4514 -0.1005
   76SLPC   H4X 6884   5.822   1.717   6.665 -0.3555  0.1671 -1.2691
   76SLPC   H4Y 6885   5.708   1.830   6.595 -1.4177  1.0248  2.9983
   76SLPC   C35 6886   5.788   1.891   6.784  0.5472  0.2763 -0.9375
   76SLPC   H5X 6887   5.773   2.000   6.769  1.5538  0.7580  1.3280
   76SLPC   H5Y 6888   5.881   1.870   6.841  1.7077  3.2665 -1.6394
   76SLPC   C36 6889   5.671   1.829   6.860 -0.0885 -0.4866 -0.1069
   76SLPC   H6X 6890   5.654   1.731   6.811 -1.7966 -0.3681  0.2109
   76SLPC   H6Y 6891   5.575   1.885   6.854 -0.7211 -1.5840 -0.3087
   76SLPC   C37 6892   5.704   1.817   7.009  0.7580  1.2036 -0.4509
   76SLPC   H7X 6893   5.771   1.899   7.041  2.1133 -0.1258  0.1988
   76SLPC   H7Y 6894   5.770   1.729   7.025 -1.8776 -0.6140  0.8437
   76SLPC   C38 6895   5.586   1.800   7.105  0.2519  0.0374 -0.7024
   76SLPC   H8X 6896   5.518   1.716   7.082 -0.9967  0.1419  2.4197
   76SLPC   H8Y 6897   5.520   1.890   7.106 -1.2853 -1.0309 -2.5157
   76SLPC   C39 6898   5.639   1.780   7.252 -0.2444 -0.0617  0.2433
   76SLPC   H9X 6899   5.742   1.821   7.264 -0.0860  0.1358 -1.6961
   76SLPC   H9Y 6900   5.657   1.671   7.260  3.2545  0.2173 -2.4530
   76SLPC  C310 6901   5.545   1.815   7.367  0.4214 -0.0704 -0.3949
   76SLPC  H10X 6902   5.441   1.779   7.352  0.2552 -0.1315  0.7968
   76SLPC  H10Y 6903   5.545   1.926   7.373 -1.0641 -0.0480 -0.6470
   76SLPC  C311 6904   5.599   1.782   7.508 -0.1756 -0.2076 -0.3679
   76SLPC  H11X 6905   5.686   1.845   7.539 -0.5198 -0.1798  0.5615
   76SLPC  H11Y 6906   5.644   1.681   7.520  1.3827  0.3620 -1.2688
   76SLPC  C312 6907   5.487   1.804   7.617 -0.5634  0.2994  0.2929
   76SLPC  H12X 6908   5.396   1.749   7.584 -0.8051 -0.2329  1.8104
   76SLPC  H12Y 6909   5.453   1.909   7.618 -0.9348  0.1793  0.2974
   76SLPC  C313 6910   5.527   1.758   7.759  0.5222  0.1344  0.0448
   76SLPC  H13X 6911   5.605   1.834   7.784  1.4367 -0.4136 -1.0926
   76SLPC  H13Y 6912   5.588   1.666   7.766 -0.1353 -0.1621  2.2199
   76SLPC  C314 6913   5.405   1.774   7.852  0.1761  0.1133  0.1870
   76SLPC  H14X 6914   5.324   1.711   7.808 -1.0153  1.4032  0.4972
   76SLPC  H14Y 6915   5.357   1.874   7.844  1.0675  0.4086 -1.6932
   76SLPC  C315 6916   5.439   1.744   7.994 -0.2722  0.0007  0.1391
   76SLPC  H15X 6917   5.476   1.639   8.002  0.1080  0.2753  2.4094
   76SLPC  H15Y 6918   5.349   1.745   8.060 -0.6671  1.4562 -0.4033
   76SLPC  C316 6919   5.530   1.849   8.047  0.1149  0.0676 -0.2425
   76SLPC  H16X 6920   5.621   1.872   7.988  0.0909  0.0021 -0.3056
   76SLPC  H16Y 6921   5.582   1.824   8.142  1.9923 -0.2373 -1.3340
   76SLPC  C317 6922   5.441   1.975   8.075  0.2089 -0.6053  0.4434
   76SLPC  H17X 6923   5.373   2.000   7.991 -0.0924 -0.8922  0.6008
   76SLPC  H17Y 6924   5.520   2.052   8.089  0.3891 -0.9514  1.4022
   76SLPC  C318 6925   5.364   1.969   8.211 -0.0096  0.0040 -0.4853
   76SLPC  H18X 6926   5.430   1.952   8.298 -0.8313 -2.6406 -0.3288
   76SLPC  H18Y 6927   5.291   1.885   8.215 -0.2188  0.2698  2.3148
   76SLPC  H18Z 6928   5.306   2.062   8.231  1.2719  0.8013 -0.4289
   77SLPC     N 6929   0.950   0.678   6.144  0.8174  0.6296 -0.0114
   77SLPC   C13 6930   0.868   0.800   6.137  0.3549  0.1471  0.3077
   77SLPC  H13A 6931   0.888   0.853   6.044  0.0271 -1.5255 -0.7359
   77SLPC  H13B 6932   0.762   0.780   6.133  0.4270 -0.0691 -0.8852
   77SLPC  H13C 6933   0.891   0.868   6.218  1.2721  2.1655 -1.5852
   77SLPC   C14 6934   0.917   0.590   6.023  0.1046  0.1452  0.2072
   77SLPC  H14A 6935   0.969   0.496   6.029  1.0292  0.4265 -2.6876
   77SLPC  H14B 6936   0.810   0.577   6.021 -0.0838  1.3349  1.4304
   77SLPC  H14C 6937   0.947   0.639   5.932 -1.5466  0.2167 -0.3149
   77SLPC   C15 6938   0.908   0.603   6.270  0.3853  0.2876  0.0272
   77SLPC  H15A 6939   0.970   0.516   6.284  1.2089  1.3643  3.5804
   77SLPC  H15B 6940   0.923   0.664   6.358  0.3036  0.8176 -0.3253
   77SLPC  H15C 6941   0.804   0.573   6.268  0.6396 -0.5979 -0.0824
   77SLPC   C12 6942   1.099   0.713   6.154 -0.0065 -0.3345 -0.6239
   77SLPC  H12A 6943   1.120   0.770   6.065  0.2261 -1.3989 -1.2595
   77SLPC  H12B 6944   1.151   0.618   6.147  0.3501 -0.0750 -1.6825
   77SLPC   C11 6945   1.143   0.792   6.281  1.8706 -0.4135  0.6433
   77SLPC  H11A 6946   1.249   0.823   6.268  1.7445  0.4051  1.5002
   77SLPC  H11B 6947   1.152   0.721   6.366  0.4446 -1.4507 -0.0553
   77SLPC     P 6948   1.119   1.032   6.384 -0.1176  0.0176 -0.1669
   77SLPC   O13 6949   1.260   1.062   6.338  0.5824  0.6316  0.1094
   77SLPC   O14 6950   1.015   1.142   6.367  0.0744 -0.4095  0.8891
   77SLPC   O12 6951   1.063   0.905   6.312 -0.3548  0.3539 -0.1696
   77SLPC   O11 6952   1.119   0.960   6.521 -0.2536  0.2992 -0.5969
   77SLPC    C1 6953   0.993   0.943   6.587 -0.1880  0.0020 -0.8937
   77SLPC    HA 6954   0.915   1.021   6.573 -1.7254 -1.4877 -0.8282
   77SLPC    HB 6955   0.935   0.857   6.547  1.2220 -0.6104 -1.6622
   77SLPC    C2 6956   1.020   0.924   6.745  0.1631  0.0344  0.2989
   77SLPC    HS 6957   0.924   0.936   6.799  0.2288 -0.7475  0.5952
   77SLPC   O21 6958   1.116   1.029   6.797  0.1558  0.2931  0.4348
   77SLPC   C21 6959   1.095   1.155   6.762  0.4360 -0.2585 -0.1419
   77SLPC   O22 6960   0.996   1.204   6.710 -0.3821 -0.4962 -0.4095
   77SLPC   C22 6961   1.213   1.230   6.814 -0.2598  0.1985  0.8111
   77SLPC   H2R 6962   1.306   1.170   6.813  0.4835  1.2430  3.0102
   77SLPC   H2S 6963   1.229   1.318   6.748 -0.1372 -0.0548  0.5048
   77SLPC    C3 6964   1.079   0.786   6.769  0.4340  0.2493  0.4458
   77SLPC    HX 6965   1.163   0.772   6.698  1.0818 -1.3244  1.4974
   77SLPC    HY 6966   1.002   0.714   6.734  0.6822  0.2620 -0.1435
   77SLPC   O31 6967   1.123   0.776   6.903  0.9774  0.0122  0.5608
   77SLPC   C31 6968   1.037   0.733   7.001 -0.1236  0.8669 -0.1648
   77SLPC   O32 6969   0.930   0.686   6.982  0.2565 -0.2156 -0.4620
   77SLPC   C32 6970   1.092   0.760   7.137 -1.0928 -0.7529 -0.1412
   77SLPC   H2X 6971   1.190   0.708   7.140  0.4229  1.9692 -0.8873
   77SLPC   H2Y 6972   1.029   0.717   7.218 -0.9935 -2.4794 -0.9668
   77SLPC   C23 6973   1.174   1.270   6.954 -0.3306 -0.0118 -0.6103
   77SLPC   H3R 6974   1.138   1.186   7.017 -1.0915 -0.1925 -1.2794
   77SLPC   H3S 6975   1.092   1.345   6.949 -1.3631 -0.9340  1.9081
   77SLPC   C24 6976   1.293   1.339   7.033  0.5114  0.5315  0.0931
   77SLPC   H4R 6977   1.256   1.358   7.137 -1.2376  2.0937 -0.7821
   77SLPC   H4S 6978   1.317   1.440   6.995  1.4312  0.4767  0.5207
   77SLPC   C25 6979   1.419   1.256   7.032  0.0246 -0.5629  0.0976
   77SLPC   H5R 6980   1.461   1.248   6.929  1.2002  2.2395  0.3267
   77SLPC   H5S 6981   1.381   1.158   7.068 -2.5353 -0.4074 -2.0069
   77SLPC   C26 6982   1.541   1.298   7.122  0.4190  0.4607 -0.1126
   77SLPC   H6R 6983   1.588   1.206   7.161  2.2624  1.5450  0.2461
   77SLPC   H6S 6984   1.495   1.349   7.209 -1.2334  2.1573 -1.9314
   77SLPC   C27 6985   1.645   1.379   7.040  0.5765  0.1353 -0.8588
   77SLPC   H7R 6986   1.711   1.418   7.120  0.7339 -2.4570  0.3270
   77SLPC   H7S 6987   1.592   1.462   6.990  1.3642  0.4812 -1.1274
   77SLPC   C28 6988   1.720   1.280   6.953 -0.9745 -0.5362  0.1582
   77SLPC   H8R 6989   1.654   1.227   6.881 -1.1924  1.0657 -0.8442
   77SLPC   H8S 6990   1.759   1.196   7.015  2.8149  1.3063  0.4569
   77SLPC   C29 6991   1.834   1.339   6.869 -0.1751  0.2957 -0.0330
   77SLPC   H9R 6992   1.805   1.368   6.767  1.9789  0.3057 -0.6751
   77SLPC  C210 6993   1.966   1.360   6.904 -0.3124 -0.6577 -0.5712
   77SLPC  H10R 6994   2.027   1.428   6.842 -0.5841  0.1291  0.0290
   77SLPC  C211 6995   2.009   1.339   7.043  0.3956 -0.3224 -0.4296
   77SLPC  H11R 6996   1.934   1.285   7.103  0.3260  0.7202  0.4354
   77SLPC  H11S 6997   2.033   1.440   7.084  0.7706  0.6326 -2.8698
   77SLPC  C212 6998   2.134   1.259   7.024  0.5651 -0.0512  1.0067
   77SLPC  H12R 6999   2.144   1.192   6.938  0.5397  1.6348 -0.3388
   77SLPC  C213 7000   2.234   1.262   7.115 -0.5609  0.5480  0.8783
   77SLPC  H13R 7001   2.323   1.198   7.102 -0.8268  0.5627 -1.2607
   77SLPC  C214 7002   2.253   1.338   7.244  0.4004  0.3591 -0.4223
   77SLPC  H14R 7003   2.162   1.398   7.266  1.1320  0.6864  1.8472
   77SLPC  H14S 7004   2.345   1.399   7.251  1.1419 -0.7545 -0.2967
   77SLPC  C215 7005   2.255   1.228   7.356 -0.1324 -0.2181  0.3845
   77SLPC  H15R 7006   2.346   1.166   7.344  0.4956  1.0014 -1.1774
   77SLPC  H15S 7007   2.165   1.163   7.348 -0.2338 -0.0041 -0.2012
   77SLPC  C216 7008   2.255   1.294   7.487  0.5649 -0.0351  0.4091
   77SLPC  H16R 7009   2.175   1.371   7.487  0.9023  0.3145  0.7564
   77SLPC  H16S 7010   2.346   1.357   7.496 -0.8776  2.1420  0.0415
   77SLPC  C217 7011   2.238   1.196   7.600 -0.5758  0.5014 -0.6350
   77SLPC  H17R 7012   2.334   1.140   7.604  0.1225  1.5588 -2.0898
   77SLPC  H17S 7013   2.147   1.132   7.586 -1.4418  0.4361  4.4389
   77SLPC  C218 7014   2.209   1.273   7.727  0.0353 -0.1745  0.8544
   77SLPC  H18R 7015   2.191   1.197   7.806  0.8808  0.5955  1.8046
   77SLPC  H18S 7016   2.118   1.335   7.707 -0.1193 -0.0915  1.7601
   77SLPC  H18T 7017   2.284   1.347   7.761  0.6089 -0.4544  0.1867
   77SLPC   C33 7018   1.103   0.911   7.162  0.5770  0.7380 -0.1811
   77SLPC   H3X 7019   1.174   0.962   7.093  2.0094  0.6143  1.1918
   77SLPC   H3Y 7020   1.142   0.923   7.265 -0.0213 -0.9944  0.2643
   77SLPC   C34 7021   0.965   0.984   7.162 -0.4175 -0.0591  1.0944
   77SLPC   H4X 7022   0.945   1.000   7.054  0.3022 -2.1841  0.6376
   77SLPC   H4Y 7023   0.982   1.084   7.208 -1.6033  0.6118  0.0964
   77SLPC   C35 7024   0.842   0.919   7.231  0.3539  0.3158  0.1561
   77SLPC   H5X 7025   0.808   0.828   7.177 -0.9601  1.4619 -0.9601
   77SLPC   H5Y 7026   0.760   0.993   7.235  0.5421  0.4428  2.3537
   77SLPC   C36 7027   0.871   0.880   7.380 -1.3009  0.3049  0.3167
   77SLPC   H6X 7028   0.909   0.968   7.438 -0.5864  0.3944 -0.2927
   77SLPC   H6Y 7029   0.931   0.789   7.399  0.6053  1.3703 -0.5253
   77SLPC   C37 7030   0.739   0.843   7.450  0.4254  0.4235  0.3195
   77SLPC   H7X 7031   0.709   0.749   7.399 -1.1687  1.8980 -1.5420
   77SLPC   H7Y 7032   0.666   0.925   7.429 -1.9831 -1.7640 -0.1445
   77SLPC   C38 7033   0.744   0.827   7.600  0.0802  0.3221  0.0275
   77SLPC   H8X 7034   0.830   0.760   7.620 -0.3453  0.2494  1.7096
   77SLPC   H8Y 7035   0.646   0.790   7.635 -0.2710  1.4559  0.2679
   77SLPC   C39 7036   0.761   0.963   7.675 -0.2748  0.2724  0.1526
   77SLPC   H9X 7037   0.704   1.031   7.608 -0.2336  0.1939  0.0363
   77SLPC   H9Y 7038   0.865   0.999   7.668 -1.0101  2.8666  2.1855
   77SLPC  C310 7039   0.692   0.947   7.814  0.2355 -1.1863 -1.4298
   77SLPC  H10X 7040   0.591   0.902   7.818  0.2279 -0.9622  1.8710
   77SLPC  H10Y 7041   0.693   1.050   7.854 -0.9088 -1.8392  0.3033
   77SLPC  C311 7042   0.783   0.871   7.908 -0.4613 -0.2203 -0.3902
   77SLPC  H11X 7043   0.894   0.868   7.907 -0.4362  1.0265 -2.0491
   77SLPC  H11Y 7044   0.758   0.768   7.875 -2.7471  0.3751 -0.6029
   77SLPC  C312 7045   0.746   0.901   8.060  0.4835  0.1326  0.2977
   77SLPC  H12X 7046   0.663   0.830   8.081  0.4064 -0.1759 -0.9861
   77SLPC  H12Y 7047   0.700   1.002   8.063  0.5572  0.1427  1.2297
   77SLPC  C313 7048   0.862   0.887   8.153 -0.4494  0.3312 -0.2301
   77SLPC  H13X 7049   0.918   0.799   8.114  0.1375 -0.2336  1.7895
   77SLPC  H13Y 7050   0.840   0.882   8.262  2.1188  1.5946  0.3731
   77SLPC  C314 7051   0.958   1.009   8.149  0.1449  0.2288  0.0611
   77SLPC  H14X 7052   0.902   1.086   8.206  1.3549 -0.5596  2.3534
   77SLPC  H14Y 7053   0.973   1.045   8.045  0.0340  0.8635  0.2663
   77SLPC  C315 7054   1.093   0.974   8.215  0.0673 -0.8455  0.1776
   77SLPC  H15X 7055   1.078   0.968   8.325  0.9097  3.0501  0.5805
   77SLPC  H15Y 7056   1.159   1.063   8.208 -1.4725  0.3881  1.0786
   77SLPC  C316 7057   1.173   0.846   8.176 -0.5204  0.4972 -0.3437
   77SLPC  H16X 7058   1.215   0.850   8.073  0.4056 -0.0213  0.0108
   77SLPC  H16Y 7059   1.110   0.756   8.157 -0.0170  0.5115 -2.2688
   77SLPC  C317 7060   1.279   0.807   8.279  0.5248  0.3381 -0.1812
   77SLPC  H17X 7061   1.222   0.780   8.370 -1.3448  1.4475 -1.0019
   77SLPC  H17Y 7062   1.351   0.891   8.294 -0.2062  0.9350  0.0562
   77SLPC  C318 7063   1.375   0.693   8.244  0.0380  0.0748  0.4485
   77SLPC  H18X 7064   1.313   0.603   8.224 -1.0393  0.5121  1.7747
   77SLPC  H18Y 7065   1.434   0.664   8.333  1.9851  1.0955 -0.4855
   77SLPC  H18Z 7066   1.432   0.733   8.157 -0.0419  4.1566  2.1668
   78SLPC     N 7067   4.286   2.436   6.289 -0.2659 -0.2427 -0.0066
   78SLPC   C13 7068   4.330   2.504   6.419  0.0566  1.0481 -0.0049
   78SLPC  H13A 7069   4.265   2.465   6.496  0.5781  1.5548  0.6973
   78SLPC  H13B 7070   4.433   2.477   6.440 -0.2863  0.2365  0.6777
   78SLPC  H13C 7071   4.322   2.609   6.397  0.9573  1.0092 -0.5695
   78SLPC   C14 7072   4.374   2.486   6.176  0.0373  0.2773  0.6439
   78SLPC  H14A 7073   4.374   2.593   6.186  1.9420  0.6019 -2.3887
   78SLPC  H14B 7074   4.477   2.459   6.191 -0.1019 -0.4832  0.2863
   78SLPC  H14C 7075   4.338   2.451   6.080 -1.2062  0.6097  0.9729
   78SLPC   C15 7076   4.138   2.469   6.271 -0.3358 -0.2926 -0.0782
   78SLPC  H15A 7077   4.098   2.417   6.185  0.5431  1.6718 -1.7501
   78SLPC  H15B 7078   4.073   2.441   6.353  1.3294 -1.9335  0.7085
   78SLPC  H15C 7079   4.116   2.575   6.270 -2.7292 -0.7408  0.6405
   78SLPC   C12 7080   4.298   2.287   6.302 -0.3564 -0.3049 -0.2699
   78SLPC  H12A 7081   4.230   2.262   6.382  1.0513  2.0985  1.7322
   78SLPC  H12B 7082   4.392   2.266   6.350 -0.8198 -0.6683  0.4935
   78SLPC   C11 7083   4.266   2.188   6.182  0.0353 -0.3328 -0.2449
   78SLPC  H11A 7084   4.310   2.090   6.214  0.0040 -0.5885 -0.9900
   78SLPC  H11B 7085   4.336   2.223   6.103 -0.6414 -1.3729 -1.3235
   78SLPC     P 7086   4.010   2.144   6.210  0.2623  0.2731  0.2969
   78SLPC   O13 7087   3.895   2.179   6.130 -0.0875  0.5828 -0.1197
   78SLPC   O14 7088   4.040   1.999   6.240 -0.0127 -0.1149  0.0818
   78SLPC   O12 7089   4.130   2.196   6.135 -0.0021  0.1759  0.0616
   78SLPC   O11 7090   4.026   2.224   6.351 -1.0392 -0.0724 -0.3977
   78SLPC    C1 7091   3.912   2.211   6.443 -0.3602  0.6348 -0.3138
   78SLPC    HA 7092   3.829   2.267   6.395  0.4345  1.5682 -0.6252
   78SLPC    HB 7093   3.890   2.104   6.463 -1.1592  0.7394 -0.6147
   78SLPC    C2 7094   3.953   2.279   6.581 -0.4777  0.7151  0.1677
   78SLPC    HS 7095   3.969   2.388   6.561 -0.8449  1.2659  2.6832
   78SLPC   O21 7096   4.077   2.212   6.629 -0.1908 -0.0870  0.1863
   78SLPC   C21 7097   4.165   2.295   6.678  0.2320  0.1639  0.2361
   78SLPC   O22 7098   4.161   2.419   6.672  0.3249  0.1787 -0.0044
   78SLPC   C22 7099   4.287   2.215   6.737  0.5432  0.0685 -0.3074
   78SLPC   H2R 7100   4.243   2.165   6.826  2.0891 -3.0009 -1.1694
   78SLPC   H2S 7101   4.323   2.134   6.669 -0.3476  0.2962 -1.0642
   78SLPC    C3 7102   3.832   2.284   6.689  0.0154 -0.4848 -0.0096
   78SLPC    HX 7103   3.790   2.183   6.664 -0.5765  0.0438 -1.1941
   78SLPC    HY 7104   3.755   2.361   6.666  2.7404  1.9650 -1.1388
   78SLPC   O31 7105   3.889   2.286   6.820  0.0435  0.3619 -0.1945
   78SLPC   C31 7106   3.839   2.380   6.898  0.2092  0.0476 -0.7411
   78SLPC   O32 7107   3.739   2.445   6.884 -0.3908  0.0520 -0.2086
   78SLPC   C32 7108   3.942   2.401   7.008  0.0088  0.1267  0.0407
   78SLPC   H2X 7109   3.996   2.497   6.992 -1.7242  1.2243  0.6275
   78SLPC   H2Y 7110   4.016   2.318   7.000 -1.0114 -0.8506  0.6272
   78SLPC   C23 7111   4.405   2.305   6.789 -0.2842  0.3867 -0.0271
   78SLPC   H3R 7112   4.447   2.367   6.707 -0.6996 -1.8228 -1.9733
   78SLPC   H3S 7113   4.493   2.250   6.827  0.9574  2.9282  0.9230
   78SLPC   C24 7114   4.363   2.402   6.904 -0.6325  0.1984  0.0527
   78SLPC   H4R 7115   4.293   2.479   6.865  0.6112  0.8074 -1.0614
   78SLPC   H4S 7116   4.448   2.462   6.944 -1.3386  1.5734 -0.4839
   78SLPC   C25 7117   4.298   2.330   7.021  0.2378  0.3454  0.0669
   78SLPC   H5R 7118   4.222   2.257   6.987  0.7418 -0.0089 -0.3024
   78SLPC   H5S 7119   4.248   2.404   7.087  2.2750  0.7406  1.2203
   78SLPC   C26 7120   4.396   2.269   7.116  0.2443  0.5352  0.1831
   78SLPC   H6R 7121   4.467   2.345   7.153 -1.3097  1.6836  0.8372
   78SLPC   H6S 7122   4.450   2.199   7.048  1.2237  1.4782 -0.0224
   78SLPC   C27 7123   4.323   2.196   7.226  0.3508  1.0387  0.6693
   78SLPC   H7R 7124   4.241   2.131   7.188  1.6572 -1.0233  1.3402
   78SLPC   H7S 7125   4.292   2.272   7.301 -0.2705  2.0830 -0.6202
   78SLPC   C28 7126   4.412   2.090   7.296 -0.1605 -1.0343 -0.3664
   78SLPC   H8R 7127   4.452   2.012   7.227  0.1865 -0.1888 -1.1305
   78SLPC   H8S 7128   4.344   2.028   7.358 -1.2324 -1.1921 -1.7004
   78SLPC   C29 7129   4.528   2.152   7.371 -0.1604 -0.1978 -0.6393
   78SLPC   H9R 7130   4.611   2.203   7.319  1.0424  0.4848  1.8802
   78SLPC  C210 7131   4.537   2.171   7.505 -0.3466  0.6475  1.5971
   78SLPC  H10R 7132   4.625   2.227   7.538  0.5898 -0.8313  1.6547
   78SLPC  C211 7133   4.430   2.147   7.610 -0.2936 -0.3452  0.1083
   78SLPC  H11R 7134   4.325   2.147   7.572  0.3817  3.4987 -2.0608
   78SLPC  H11S 7135   4.428   2.239   7.673 -0.7520 -0.0785 -0.2849
   78SLPC  C212 7136   4.455   2.022   7.678 -0.3842  0.5688  0.1715
   78SLPC  H12R 7137   4.423   1.936   7.618  1.7581  1.2914 -2.0978
   78SLPC  C213 7138   4.504   2.014   7.806 -0.5587 -0.6726 -0.7900
   78SLPC  H13R 7139   4.506   1.918   7.859 -1.1287 -0.0573  0.3863
   78SLPC  C214 7140   4.533   2.122   7.906 -0.3033  0.8390  0.3695
   78SLPC  H14R 7141   4.544   2.226   7.868 -1.8288  0.1513 -2.0566
   78SLPC  H14S 7142   4.629   2.087   7.949 -0.1270 -2.1569 -2.2889
   78SLPC  C215 7143   4.431   2.133   8.022 -0.0342 -1.0130 -0.6917
   78SLPC  H15R 7144   4.328   2.114   7.984 -0.4059  3.2732 -2.0833
   78SLPC  H15S 7145   4.432   2.235   8.066 -2.7060 -1.2866  0.1075
   78SLPC  C216 7146   4.442   2.042   8.151  0.0392 -0.7910  0.1462
   78SLPC  H16R 7147   4.527   2.080   8.211 -0.3560 -1.7950  1.3675
   78SLPC  H16S 7148   4.461   1.937   8.119 -1.5085 -1.1441  0.3638
   78SLPC  C217 7149   4.312   2.054   8.240  0.0602  0.6736  0.7265
   78SLPC  H17R 7150   4.344   2.000   8.332  2.6035  0.2903 -0.3442
   78SLPC  H17S 7151   4.223   2.005   8.195  0.3630 -0.9252  1.8107
   78SLPC  C218 7152   4.261   2.191   8.273 -0.4523  0.2266 -0.1987
   78SLPC  H18R 7153   4.173   2.178   8.341 -0.3144  0.0914 -0.0464
   78SLPC  H18S 7154   4.226   2.235   8.177  0.7205 -0.9196 -1.1664
   78SLPC  H18T 7155   4.338   2.258   8.316 -0.5628 -0.4497  1.0828
   78SLPC   C33 7156   3.879   2.388   7.143 -0.6217 -0.6025 -0.0971
   78SLPC   H3X 7157   3.809   2.302   7.139 -0.1849 -0.8707 -2.1444
   78SLPC   H3Y 7158   3.807   2.467   7.174  0.5918  0.0600  1.0636
   78SLPC   C34 7159   3.982   2.367   7.256 -0.2847 -0.7892  0.4464
   78SLPC   H4X 7160   4.034   2.464   7.271  0.2188 -0.9812 -0.0260
   78SLPC   H4Y 7161   4.058   2.293   7.222 -3.1933 -2.3854 -2.8002
   78SLPC   C35 7162   3.913   2.328   7.388  0.1659 -0.3617  0.7698
   78SLPC   H5X 7163   3.838   2.250   7.364 -0.2655  0.9195 -2.2536
   78SLPC   H5Y 7164   3.860   2.417   7.427 -2.0179  0.0570 -2.9888
   78SLPC   C36 7165   4.019   2.275   7.479 -0.2078  0.5999  0.3528
   78SLPC   H6X 7166   4.097   2.351   7.499  0.1510  0.2311  0.3576
   78SLPC   H6Y 7167   4.073   2.187   7.437  1.4176  2.2012 -0.9615
   78SLPC   C37 7168   3.972   2.223   7.619  0.4939 -0.3322  0.0414
   78SLPC   H7X 7169   3.921   2.125   7.608 -1.4755  0.6686  0.1949
   78SLPC   H7Y 7170   3.884   2.286   7.643  0.5673 -0.6061  1.0663
   78SLPC   C38 7171   4.067   2.256   7.741  0.2101 -0.4209  0.0422
   78SLPC   H8X 7172   4.088   2.365   7.742  2.8951 -0.9106  1.3660
   78SLPC   H8Y 7173   4.165   2.207   7.725 -0.4749 -0.7641 -3.5570
   78SLPC   C39 7174   4.007   2.214   7.882 -0.6265 -0.0222 -0.5735
   78SLPC   H9X 7175   4.092   2.189   7.950 -0.7773  3.0971  0.8786
   78SLPC   H9Y 7176   3.943   2.128   7.854 -2.9006  1.6781 -0.7055
   78SLPC  C310 7177   3.923   2.330   7.942 -0.8500  0.0816  0.1420
   78SLPC  H10X 7178   3.822   2.339   7.897 -0.7238 -0.3616 -0.2275
   78SLPC  H10Y 7179   3.979   2.425   7.927  0.3236 -0.5564  0.4026
   78SLPC  C311 7180   3.894   2.314   8.089  0.0623 -0.5467 -0.0311
   78SLPC  H11X 7181   3.986   2.312   8.152 -0.1116  3.7318  0.4922
   78SLPC  H11Y 7182   3.849   2.213   8.094 -3.3783  0.8614 -1.2186
   78SLPC  C312 7183   3.790   2.423   8.143  0.5927 -0.1918 -0.2123
   78SLPC  H12X 7184   3.692   2.406   8.092  0.5710  0.7365 -0.4784
   78SLPC  H12Y 7185   3.823   2.527   8.123 -1.4890  0.1036 -2.3963
   78SLPC  C313 7186   3.757   2.404   8.286  0.5711  0.0388  0.4154
   78SLPC  H13X 7187   3.732   2.303   8.324 -2.4844  1.8040  3.4041
   78SLPC  H13Y 7188   3.657   2.453   8.296  1.0142  1.1934 -0.6525
   78SLPC  C314 7189   3.858   2.465   8.390  0.3913 -0.2922 -0.1131
   78SLPC  H14X 7190   3.869   2.574   8.369 -0.7880 -0.1475 -0.0150
   78SLPC  H14Y 7191   3.961   2.428   8.374  0.1494 -0.1491 -2.1873
   78SLPC  C315 7192   3.807   2.454   8.533 -1.4691  0.3066  0.5593
   78SLPC  H15X 7193   3.699   2.479   8.534 -1.0740  2.1390  2.0517
   78SLPC  H15Y 7194   3.855   2.533   8.595 -2.8954  1.2432  0.5069
   78SLPC  C316 7195   3.818   2.310   8.585  0.0112 -0.9228  0.0138
   78SLPC  H16X 7196   3.924   2.278   8.594  0.2962  0.6143  2.6987
   78SLPC  H16Y 7197   3.779   2.249   8.501  0.3214 -0.0211 -0.7969
   78SLPC  C317 7198   3.746   2.280   8.710 -0.1510  0.9415 -0.8919
   78SLPC  H17X 7199   3.666   2.212   8.676  0.5652  1.0493 -2.8865
   78SLPC  H17Y 7200   3.696   2.372   8.747 -3.7085 -1.0876 -0.4881
   78SLPC  C318 7201   3.834   2.230   8.826  0.1018 -0.3695  0.2984
   78SLPC  H18X 7202   3.928   2.288   8.813 -1.1408  1.7565  0.6061
   78SLPC  H18Y 7203   3.854   2.121   8.811 -0.5190 -0.4367 -0.0525
   78SLPC  H18Z 7204   3.783   2.252   8.922 -0.8656 -1.5596  0.0770
   79SLPC     N 7205   0.984   4.763   6.065  0.0984  0.3320 -0.3974
   79SLPC   C13 7206   0.912   4.832   5.950  0.6989 -0.1941 -0.7893
   79SLPC  H13A 7207   0.941   4.936   5.956 -1.9382  0.5061  0.9262
   79SLPC  H13B 7208   0.938   4.784   5.857  0.7800  1.0908 -1.4436
   79SLPC  H13C 7209   0.804   4.826   5.952  0.5143  2.4313 -0.5567
   79SLPC   C14 7210   1.135   4.779   6.035  0.3175  0.0968  0.2857
   79SLPC  H14A 7211   1.177   4.729   5.949  1.3814 -0.5111  1.1513
   79SLPC  H14B 7212   1.158   4.885   6.041  3.0445 -0.4604  0.3281
   79SLPC  H14C 7213   1.191   4.753   6.123  0.0246  2.5946  1.2743
   79SLPC   C15 7214   0.945   4.616   6.060  0.4871  0.2335 -0.5001
   79SLPC  H15A 7215   1.004   4.556   6.128  0.5949  0.6206 -0.2474
   79SLPC  H15B 7216   0.843   4.600   6.089  0.0859  1.1568 -1.3626
   79SLPC  H15C 7217   0.950   4.577   5.959  2.0329  0.0177 -0.3621
   79SLPC   C12 7218   0.949   4.827   6.202 -0.2405 -0.2174  0.1626
   79SLPC  H12A 7219   0.841   4.818   6.202 -0.1684 -1.1017  1.7828
   79SLPC  H12B 7220   0.978   4.930   6.189  0.1969 -0.2781  0.6296
   79SLPC   C11 7221   0.997   4.761   6.333 -0.3381 -0.0673  0.0353
   79SLPC  H11A 7222   0.951   4.661   6.353  0.6495 -0.6692 -0.6667
   79SLPC  H11B 7223   0.958   4.836   6.405  3.0806  1.0456  0.8056
   79SLPC     P 7224   1.226   4.632   6.389  0.3059 -0.0181 -0.2098
   79SLPC   O13 7225   1.208   4.520   6.293 -0.1914  0.7201 -0.3394
   79SLPC   O14 7226   1.364   4.675   6.418  0.1914 -0.0162 -0.2414
   79SLPC   O12 7227   1.145   4.755   6.328 -0.4147 -0.2873  0.3904
   79SLPC   O11 7228   1.144   4.603   6.520  0.3187 -0.0272 -0.3670
   79SLPC    C1 7229   1.132   4.704   6.628 -0.2456 -0.0422 -0.1086
   79SLPC    HA 7230   1.219   4.774   6.627  1.2925 -1.9222 -0.9062
   79SLPC    HB 7231   1.035   4.758   6.619 -0.7314 -0.7289  0.8532
   79SLPC    C2 7232   1.126   4.645   6.775  0.7002 -0.3788  0.2237
   79SLPC    HS 7233   1.112   4.733   6.842  0.2534 -1.0586  1.0257
   79SLPC   O21 7234   1.239   4.570   6.823  0.1337 -0.1565 -0.3594
   79SLPC   C21 7235   1.347   4.636   6.851 -0.6543  0.5477  0.7343
   79SLPC   O22 7236   1.373   4.747   6.812 -0.1356 -0.4033 -0.7026
   79SLPC   C22 7237   1.445   4.548   6.932 -0.2182 -1.2024  0.6760
   79SLPC   H2R 7238   1.407   4.443   6.939 -0.9654 -1.0190 -0.5096
   79SLPC   H2S 7239   1.539   4.566   6.875 -2.0054  0.0309 -1.9288
   79SLPC    C3 7240   1.011   4.551   6.797 -0.6610 -0.0158 -0.3305
   79SLPC    HX 7241   1.030   4.468   6.725 -0.8281  2.1872 -2.9931
   79SLPC    HY 7242   0.912   4.596   6.774 -1.1154 -0.7462  0.1909
   79SLPC   O31 7243   1.015   4.496   6.925  0.0497  0.5181  0.0731
   79SLPC   C31 7244   0.989   4.588   7.015 -0.4911 -0.0799 -0.0606
   79SLPC   O32 7245   0.935   4.697   6.992 -0.0419 -0.4873  0.5597
   79SLPC   C32 7246   1.016   4.528   7.152  0.0692  0.5654 -0.3441
   79SLPC   H2X 7247   1.072   4.432   7.143 -1.3569 -0.4153  1.0552
   79SLPC   H2Y 7248   0.917   4.511   7.199 -0.0723  0.6799 -0.5960
   79SLPC   C23 7249   1.465   4.626   7.062  0.7701 -0.0986 -0.2050
   79SLPC   H3R 7250   1.371   4.658   7.114  0.5152  0.8479 -1.2416
   79SLPC   H3S 7251   1.532   4.714   7.064 -1.5030  1.6928  1.5783
   79SLPC   C24 7252   1.532   4.531   7.163  0.7019  0.1019 -0.2697
   79SLPC   H4R 7253   1.623   4.482   7.122 -0.0211 -1.3447 -0.2039
   79SLPC   H4S 7254   1.465   4.449   7.198  2.7202 -0.6463  2.0379
   79SLPC   C25 7255   1.563   4.605   7.291 -0.3672 -0.3041  0.3921
   79SLPC   H5R 7256   1.476   4.664   7.328  1.4219  2.1737  0.7066
   79SLPC   H5S 7257   1.643   4.681   7.285 -0.0557 -0.5922  0.8147
   79SLPC   C26 7258   1.605   4.519   7.410 -0.3812  0.9371  0.0447
   79SLPC   H6R 7259   1.672   4.590   7.462 -1.3383  1.5801  0.4121
   79SLPC   H6S 7260   1.663   4.433   7.369 -0.4343  0.5278  0.8087
   79SLPC   C27 7261   1.490   4.483   7.499  0.4571 -0.0032 -0.2993
   79SLPC   H7R 7262   1.417   4.424   7.440 -1.5786  0.5408  1.6047
   79SLPC   H7S 7263   1.448   4.585   7.514  2.2142  0.8042 -0.7283
   79SLPC   C28 7264   1.519   4.418   7.634 -0.5301 -0.2261  0.4084
   79SLPC   H8R 7265   1.429   4.406   7.698  0.5091  1.2485  2.1833
   79SLPC   H8S 7266   1.579   4.487   7.697  0.5415 -1.4002  0.6818
   79SLPC   C29 7267   1.578   4.282   7.618  0.1115  0.5855  0.0604
   79SLPC   H9R 7268   1.554   4.232   7.522  0.3177  2.0252 -0.7460
   79SLPC  C210 7269   1.680   4.240   7.698 -0.1223  0.3051 -0.0805
   79SLPC  H10R 7270   1.724   4.147   7.661 -0.2372  0.2638 -0.1146
   79SLPC  C211 7271   1.745   4.315   7.814 -0.5926  0.1071 -0.1782
   79SLPC  H11R 7272   1.779   4.417   7.786 -1.1025 -0.1549 -1.7546
   79SLPC  H11S 7273   1.837   4.256   7.834  0.5155  1.0762 -2.2487
   79SLPC  C212 7274   1.663   4.332   7.940  0.4676 -0.1906  0.0003
   79SLPC  H12R 7275   1.558   4.299   7.934 -0.0278  1.4102 -0.2128
   79SLPC  C213 7276   1.701   4.397   8.047  0.0229 -0.1506 -0.1309
   79SLPC  H13R 7277   1.627   4.412   8.127 -1.1842  2.2846 -1.6303
   79SLPC  C214 7278   1.838   4.451   8.070  0.2357 -0.3041 -0.2876
   79SLPC  H14R 7279   1.837   4.562   8.066  0.6801 -0.2914 -0.0441
   79SLPC  H14S 7280   1.912   4.425   7.992  1.2384 -1.3332  0.9674
   79SLPC  C215 7281   1.890   4.415   8.212  0.3356  0.9180 -0.1268
   79SLPC  H15R 7282   1.813   4.441   8.288 -0.4937 -0.9095 -0.3168
   79SLPC  H15S 7283   1.977   4.481   8.233  2.0741 -0.7523 -1.7747
   79SLPC  C216 7284   1.937   4.272   8.221  0.3367 -0.2882  0.3642
   79SLPC  H16R 7285   2.007   4.263   8.136 -1.6085 -0.5452 -1.2522
   79SLPC  H16S 7286   1.859   4.196   8.200 -1.1663  1.7773 -1.7179
   79SLPC  C217 7287   2.026   4.242   8.347 -0.5216  1.2058  0.5678
   79SLPC  H17R 7288   2.046   4.132   8.351 -2.2289  0.8317 -0.6327
   79SLPC  H17S 7289   1.968   4.275   8.435  0.4740  0.8631  1.3636
   79SLPC  C218 7290   2.166   4.315   8.341 -0.3752  0.1765  0.0094
   79SLPC  H18R 7291   2.231   4.287   8.255  0.3581 -1.6092  1.1128
   79SLPC  H18S 7292   2.218   4.284   8.435  0.7313  2.1393  0.0666
   79SLPC  H18T 7293   2.161   4.426   8.347 -0.9645  0.2455 -1.5662
   79SLPC   C33 7294   1.093   4.631   7.237 -0.6925  0.6569  0.5037
   79SLPC   H3X 7295   1.028   4.713   7.273 -2.5502  0.4309 -2.1989
   79SLPC   H3Y 7296   1.163   4.680   7.167 -3.4794  0.0751 -2.8123
   79SLPC   C34 7297   1.174   4.571   7.357 -0.2133 -0.0411  0.0028
   79SLPC   H4X 7298   1.235   4.651   7.402  0.6296 -0.6407 -0.0717
   79SLPC   H4Y 7299   1.263   4.515   7.323 -0.6413 -0.0725 -1.0845
   79SLPC   C35 7300   1.103   4.503   7.479 -0.1921 -0.0682 -0.0248
   79SLPC   H5X 7301   1.183   4.440   7.523 -1.9454 -2.5938 -0.3420
   79SLPC   H5Y 7302   1.037   4.430   7.427 -0.6735  1.3623 -1.5015
   79SLPC   C36 7303   1.032   4.592   7.578 -0.6596 -0.8865  0.1757
   79SLPC   H6X 7304   0.930   4.623   7.545 -0.6726 -0.8966  0.2059
   79SLPC   H6Y 7305   1.086   4.690   7.579  1.2223 -1.8065 -3.3505
   79SLPC   C37 7306   1.014   4.525   7.718  0.0404  0.3410  0.0856
   79SLPC   H7X 7307   0.970   4.427   7.687 -2.6453  1.2787  0.7759
   79SLPC   H7Y 7308   0.941   4.575   7.785 -0.2109 -0.7021  0.6017
   79SLPC   C38 7309   1.141   4.485   7.794 -0.2967 -0.0895 -0.1718
   79SLPC   H8X 7310   1.204   4.573   7.822 -1.7674  0.4097  1.7115
   79SLPC   H8Y 7311   1.205   4.421   7.730 -1.7233 -1.3174 -0.3814
   79SLPC   C39 7312   1.110   4.408   7.928  0.0998 -0.4494  0.2371
   79SLPC   H9X 7313   1.048   4.318   7.907  1.4085 -1.6524  1.4391
   79SLPC   H9Y 7314   1.041   4.468   7.992 -2.2441 -0.3467 -2.3257
   79SLPC  C310 7315   1.234   4.362   8.000 -0.0585  0.1302  0.2202
   79SLPC  H10X 7316   1.297   4.453   8.016 -0.5921  0.5456 -0.0157
   79SLPC  H10Y 7317   1.297   4.288   7.947 -0.8975 -0.4565  0.0364
   79SLPC  C311 7318   1.212   4.304   8.138  0.1036  0.4295 -0.7617
   79SLPC  H11X 7319   1.128   4.232   8.132  0.6927 -0.2758 -0.5136
   79SLPC  H11Y 7320   1.183   4.383   8.212  1.3866 -1.4297  1.7813
   79SLPC  C312 7321   1.337   4.234   8.187  0.0122 -0.1796  0.2898
   79SLPC  H12X 7322   1.378   4.275   8.282 -1.2865  2.7684 -0.3543
   79SLPC  H12Y 7323   1.428   4.254   8.126  0.6147  1.2131  1.5995
   79SLPC  C313 7324   1.306   4.090   8.208  0.2529 -0.3075 -0.1522
   79SLPC  H13X 7325   1.253   4.046   8.121 -1.4498  1.2290  0.1025
   79SLPC  H13Y 7326   1.235   4.081   8.293 -0.2791 -1.7495 -0.7210
   79SLPC  C314 7327   1.412   3.989   8.246  0.0557  0.3952  0.3234
   79SLPC  H14X 7328   1.496   4.002   8.174  1.1655 -2.4585  1.0214
   79SLPC  H14Y 7329   1.372   3.886   8.230 -1.0411  1.0078 -1.0058
   79SLPC  C315 7330   1.462   4.005   8.385 -0.4511  0.4850 -0.3605
   79SLPC  H15X 7331   1.378   3.983   8.454 -0.0833  0.3692  0.0528
   79SLPC  H15Y 7332   1.473   4.116   8.385  0.0830  0.4363 -1.8245
   79SLPC  C316 7333   1.586   3.930   8.406 -0.5525  0.9393 -0.2250
   79SLPC  H16X 7334   1.657   3.953   8.324 -0.0995  1.6177  0.3539
   79SLPC  H16Y 7335   1.570   3.820   8.395 -1.6504  0.8589  1.8996
   79SLPC  C317 7336   1.661   3.952   8.539 -0.6406  0.0571 -0.1851
   79SLPC  H17X 7337   1.747   3.883   8.547 -1.2327 -0.5147  1.3233
   79SLPC  H17Y 7338   1.598   3.932   8.628  0.4971  0.1465  0.6549
   79SLPC  C318 7339   1.716   4.096   8.555 -0.0274  0.4733  0.7285
   79SLPC  H18X 7340   1.783   4.109   8.643 -1.2913  0.9401  1.6421
   79SLPC  H18Y 7341   1.628   4.162   8.562 -0.6274 -0.4141  1.7350
   79SLPC  H18Z 7342   1.775   4.110   8.462 -1.8099  2.0124 -0.2097
   80SLPC     N 7343   3.142   2.311   6.152 -0.1916  0.5994 -0.7798
   80SLPC   C13 7344   3.288   2.281   6.179 -0.3377 -0.0371  0.0942
   80SLPC  H13A 7345   3.335   2.252   6.086  2.6400  0.7230  1.3277
   80SLPC  H13B 7346   3.343   2.368   6.209  0.3408 -0.8657  1.2716
   80SLPC  H13C 7347   3.305   2.198   6.246  1.2569  1.9941  2.2616
   80SLPC   C14 7348   3.078   2.180   6.125  0.2488 -0.3774 -0.0541
   80SLPC  H14A 7349   3.136   2.133   6.047  2.2810 -1.0022  1.8113
   80SLPC  H14B 7350   3.085   2.116   6.211 -1.6034  0.9051  1.0918
   80SLPC  H14C 7351   2.973   2.201   6.110  0.3099  1.0831  1.4192
   80SLPC   C15 7352   3.140   2.401   6.033 -0.3723 -0.1791 -0.6308
   80SLPC  H15A 7353   3.177   2.502   6.044  1.3701 -0.8159 -0.5935
   80SLPC  H15B 7354   3.177   2.361   5.940 -1.4359  0.0214 -1.1548
   80SLPC  H15C 7355   3.034   2.402   6.009 -1.0293  3.0520  2.0641
   80SLPC   C12 7356   3.078   2.383   6.274 -0.1635  0.4628 -0.1549
   80SLPC  H12A 7357   2.984   2.425   6.242  0.1950  0.3643 -1.3970
   80SLPC  H12B 7358   3.141   2.467   6.300 -0.4564 -0.0762  2.4460
   80SLPC   C11 7359   3.060   2.295   6.401  0.6124  0.6836 -0.5219
   80SLPC  H11A 7360   3.011   2.197   6.383  0.3693  0.6952  0.0517
   80SLPC  H11B 7361   2.987   2.351   6.465  1.1441 -0.1771  0.8555
   80SLPC     P 7362   3.250   2.388   6.561  0.4402 -0.2675 -0.1488
   80SLPC   O13 7363   3.372   2.326   6.623 -0.2008 -0.3519 -0.2651
   80SLPC   O14 7364   3.277   2.502   6.468 -0.0577  0.5426 -0.2928
   80SLPC   O12 7365   3.187   2.276   6.470 -0.3342  0.5577  0.2815
   80SLPC   O11 7366   3.144   2.418   6.670 -0.1603  0.9624  0.3841
   80SLPC    C1 7367   3.068   2.309   6.730 -0.0954 -0.1434 -0.7837
   80SLPC    HA 7368   2.976   2.278   6.675  0.1480 -1.8080 -0.2702
   80SLPC    HB 7369   3.124   2.214   6.746  2.2788  1.1924 -0.9905
   80SLPC    C2 7370   3.014   2.339   6.872  0.2405 -1.0449  0.4481
   80SLPC    HS 7371   2.972   2.244   6.913 -1.0062 -0.7939 -0.2481
   80SLPC   O21 7372   2.916   2.438   6.858  0.5478  0.1386  0.5111
   80SLPC   C21 7373   2.807   2.423   6.922  0.1382 -0.3165 -0.8358
   80SLPC   O22 7374   2.771   2.321   6.984 -0.3241  0.1801  0.5312
   80SLPC   C22 7375   2.737   2.555   6.918  0.6302 -0.3255 -0.2046
   80SLPC   H2R 7376   2.799   2.642   6.889  0.2221  0.3178  0.8238
   80SLPC   H2S 7377   2.661   2.541   6.838  0.5652  0.0312 -0.2067
   80SLPC    C3 7378   3.123   2.377   6.984  0.3936  0.2155 -0.1715
   80SLPC    HX 7379   3.161   2.478   6.958 -2.0938  1.6703  1.5523
   80SLPC    HY 7380   3.204   2.304   6.967 -0.7981 -1.8975  2.8255
   80SLPC   O31 7381   3.075   2.375   7.119 -0.4159 -0.0449 -0.2259
   80SLPC   C31 7382   3.040   2.255   7.174  0.2290  0.6565  0.3546
   80SLPC   O32 7383   3.059   2.146   7.123 -0.1203 -0.7233  0.2735
   80SLPC   C32 7384   2.964   2.275   7.304 -0.1271 -0.7646  0.4390
   80SLPC   H2X 7385   2.858   2.289   7.274 -0.1856 -2.6114 -0.2349
   80SLPC   H2Y 7386   3.013   2.360   7.357  0.8750  0.0907 -1.7786
   80SLPC   C23 7387   2.689   2.590   7.059 -0.3615 -0.7332 -0.6874
   80SLPC   H3R 7388   2.621   2.506   7.086  1.5492 -1.9559  0.4382
   80SLPC   H3S 7389   2.622   2.678   7.044  1.3125  0.6708 -0.0660
   80SLPC   C24 7390   2.788   2.617   7.168 -0.0025 -0.1496 -0.4097
   80SLPC   H4R 7391   2.867   2.690   7.141  1.9834 -1.5553  1.3767
   80SLPC   H4S 7392   2.828   2.519   7.202 -2.8217 -1.1118  0.2350
   80SLPC   C25 7393   2.731   2.680   7.301  0.7558 -0.7382 -0.2726
   80SLPC   H5R 7394   2.670   2.603   7.354  2.3298 -0.8520  1.4575
   80SLPC   H5S 7395   2.667   2.767   7.276  1.1446  0.4780  2.6649
   80SLPC   C26 7396   2.832   2.744   7.402 -0.3758 -0.2441  0.4851
   80SLPC   H6R 7397   2.904   2.813   7.353 -1.9033  0.5933 -0.6043
   80SLPC   H6S 7398   2.892   2.657   7.437 -1.4046 -1.1437  0.0382
   80SLPC   C27 7399   2.769   2.803   7.531  0.7239 -0.2535 -0.2775
   80SLPC   H7R 7400   2.705   2.734   7.590 -1.4315  0.9459 -1.1224
   80SLPC   H7S 7401   2.692   2.874   7.494 -0.4312 -0.2185  2.0970
   80SLPC   C28 7402   2.867   2.861   7.632  0.9256 -0.0331 -0.1792
   80SLPC   H8R 7403   2.949   2.789   7.651  1.4672  0.7497  0.4893
   80SLPC   H8S 7404   2.809   2.869   7.727  1.5721  2.8629  0.0170
   80SLPC   C29 7405   2.933   2.994   7.594  0.5104 -0.1480  0.3723
   80SLPC   H9R 7406   3.022   2.994   7.529 -1.0946  1.5727 -1.9009
   80SLPC  C210 7407   2.884   3.105   7.646 -0.2172  0.6779  0.1936
   80SLPC  H10R 7408   2.932   3.200   7.617  2.3669  0.2420  2.8874
   80SLPC  C211 7409   2.769   3.121   7.745 -0.2605 -0.1249  0.3417
   80SLPC  H11R 7410   2.698   3.036   7.735  0.9295 -1.2390  1.0840
   80SLPC  H11S 7411   2.712   3.211   7.714 -0.7441 -0.7348 -0.5664
   80SLPC  C212 7412   2.818   3.146   7.889 -0.1299  0.1299  0.4563
   80SLPC  H12R 7413   2.873   3.239   7.907 -1.6016  1.5252 -1.9773
   80SLPC  C213 7414   2.777   3.074   7.996 -0.3116  0.3209  0.4285
   80SLPC  H13R 7415   2.836   3.086   8.088  0.4207 -1.0029  0.1422
   80SLPC  C214 7416   2.693   2.950   7.994  0.1614 -0.1932 -0.3065
   80SLPC  H14R 7417   2.641   2.936   7.897  1.6275  2.1575 -1.4825
   80SLPC  H14S 7418   2.616   2.961   8.074  0.3254  0.0916 -0.1858
   80SLPC  C215 7419   2.783   2.819   8.016  0.0076 -0.4223  0.2409
   80SLPC  H15R 7420   2.822   2.836   8.118  0.5411 -0.4495  0.0455
   80SLPC  H15S 7421   2.863   2.814   7.939  0.4143 -0.6239  0.6800
   80SLPC  C216 7422   2.693   2.696   8.035  0.1927  0.5807  0.1035
   80SLPC  H16R 7423   2.623   2.681   7.950 -0.5921 -3.1624  1.3044
   80SLPC  H16S 7424   2.628   2.705   8.125 -0.6505 -1.5180 -0.2589
   80SLPC  C217 7425   2.768   2.561   8.044 -0.0511 -0.2722 -0.0778
   80SLPC  H17R 7426   2.698   2.487   8.089 -0.0795  0.2336  0.7309
   80SLPC  H17S 7427   2.855   2.577   8.111  0.7792 -1.4103 -0.8894
   80SLPC  C218 7428   2.815   2.518   7.910 -0.5529  0.1571  0.3701
   80SLPC  H18R 7429   2.892   2.584   7.866 -1.5262  0.3885 -1.0035
   80SLPC  H18S 7430   2.733   2.503   7.836 -0.4237 -1.5231  0.5439
   80SLPC  H18T 7431   2.859   2.416   7.910  0.0404  0.4044 -1.2087
   80SLPC   C33 7432   2.995   2.153   7.394  0.3937  0.4843 -0.1213
   80SLPC   H3X 7433   3.100   2.146   7.431 -0.4626 -3.1393  1.8680
   80SLPC   H3Y 7434   2.975   2.055   7.346 -0.2553  1.4504 -1.8753
   80SLPC   C34 7435   2.914   2.157   7.526  0.2641  0.0727 -0.3478
   80SLPC   H4X 7436   2.807   2.159   7.499  0.0855  1.6679  0.3955
   80SLPC   H4Y 7437   2.926   2.253   7.581  0.4459  0.4761 -1.0840
   80SLPC   C35 7438   2.955   2.046   7.613  0.3782  0.1108  0.4705
   80SLPC   H5X 7439   3.062   2.060   7.640  0.9156  0.2098 -1.6267
   80SLPC   H5Y 7440   2.954   1.943   7.571  1.7092 -0.5570  1.9593
   80SLPC   C36 7441   2.888   2.045   7.755  0.9275 -0.0305 -0.3007
   80SLPC   H6X 7442   2.782   2.010   7.749  1.0237 -0.2002 -1.0385
   80SLPC   H6Y 7443   2.878   2.153   7.781  0.6358  0.0069 -0.5583
   80SLPC   C37 7444   2.966   1.961   7.859 -0.3171  0.2010  0.3831
   80SLPC   H7X 7445   3.066   2.007   7.870 -0.2648  0.9658 -2.8073
   80SLPC   H7Y 7446   2.979   1.858   7.819  0.0118  0.2926  0.2546
   80SLPC   C38 7447   2.893   1.952   7.992  0.3022 -0.3796 -0.6371
   80SLPC   H8X 7448   2.937   1.869   8.052  0.1297 -0.2670 -0.3546
   80SLPC   H8Y 7449   2.793   1.907   7.973  0.6040 -0.8621 -1.0902
   80SLPC   C39 7450   2.877   2.082   8.063  0.2615  0.0965  0.2533
   80SLPC   H9X 7451   2.798   2.071   8.140  0.1930  0.0765  0.1788
   80SLPC   H9Y 7452   2.844   2.169   8.002  0.9845  0.6685  0.6572
   80SLPC  C310 7453   3.009   2.119   8.152  0.0145 -0.8389 -0.1975
   80SLPC  H10X 7454   3.093   2.122   8.080 -0.2958 -0.9893 -0.5684
   80SLPC  H10Y 7455   3.027   2.034   8.222  0.3134 -0.2886  0.3957
   80SLPC  C311 7456   2.996   2.251   8.226 -0.3191 -0.0139  1.0126
   80SLPC  H11X 7457   2.999   2.335   8.153  1.6606 -2.1461 -1.4738
   80SLPC  H11Y 7458   3.087   2.261   8.289  0.6269  1.7998 -0.5903
   80SLPC  C312 7459   2.883   2.276   8.315 -0.0659  0.4108  0.4770
   80SLPC  H12X 7460   2.887   2.192   8.387 -0.7311  0.3196  0.4091
   80SLPC  H12Y 7461   2.786   2.272   8.260  1.5233  1.3753 -2.5479
   80SLPC  C313 7462   2.876   2.403   8.402 -0.1345  0.6299 -0.0606
   80SLPC  H13X 7463   2.780   2.391   8.456 -0.1461  1.8805  0.2290
   80SLPC  H13Y 7464   2.851   2.495   8.344 -0.5368  1.3195  1.1927
   80SLPC  C314 7465   2.993   2.421   8.497 -0.2064 -0.3926  0.4898
   80SLPC  H14X 7466   3.080   2.402   8.431  0.1920 -0.4836  1.0379
   80SLPC  H14Y 7467   2.998   2.336   8.569  2.1625  1.7958  3.0174
   80SLPC  C315 7468   3.019   2.547   8.583 -0.0231 -0.0783  0.1274
   80SLPC  H15X 7469   2.925   2.566   8.639 -0.5862 -1.2370 -0.4079
   80SLPC  H15Y 7470   3.038   2.629   8.511  0.1301 -2.1425 -2.2530
   80SLPC  C316 7471   3.146   2.524   8.666  0.0017  0.3728  0.0514
   80SLPC  H16X 7472   3.155   2.417   8.695  1.6187  0.2585 -0.7951
   80SLPC  H16Y 7473   3.121   2.565   8.766 -1.1256  0.1258 -0.1189
   80SLPC  C317 7474   3.270   2.580   8.604 -0.2740  0.5250  0.3474
   80SLPC  H17X 7475   3.254   2.689   8.587  0.8583  0.5371 -0.6361
   80SLPC  H17Y 7476   3.277   2.533   8.504  1.5866  0.0592  0.6792
   80SLPC  C318 7477   3.399   2.565   8.675 -0.7723 -0.1031 -0.2366
   80SLPC  H18X 7478   3.412   2.455   8.684  0.4471 -0.0511 -1.2402
   80SLPC  H18Y 7479   3.406   2.604   8.779 -0.5354  0.9804 -0.6475
   80SLPC  H18Z 7480   3.487   2.597   8.616  1.1293 -2.2438  1.3406
   81SAPS     N 7481   2.728   4.340  10.788  0.2367 -0.2860 -0.5994
   81SAPS   HN1 7482   2.684   4.343  10.694 -1.1351 -0.3627  0.0325
   81SAPS   HN2 7483   2.689   4.411  10.853 -0.2559 -1.5493  0.5082
   81SAPS   HN3 7484   2.828   4.364  10.775  0.9412 -1.3656  2.4505
   81SAPS   C12 7485   2.721   4.201  10.852  0.6237 -0.5755 -0.4316
   81SAPS  H12A 7486   2.725   4.123  10.777  1.7204  0.0719 -1.0610
   81SAPS   C13 7487   2.827   4.178  10.960 -0.1434  0.4940  0.0141
   81SAPS  O13A 7488   2.918   4.262  10.981  0.9821 -0.3606 -0.3258
   81SAPS  O13B 7489   2.818   4.068  11.025 -0.5408 -0.3701  0.1010
   81SAPS   C11 7490   2.578   4.187  10.910  0.7168  0.5315 -0.2878
   81SAPS  H11A 7491   2.564   4.283  10.965 -0.0991  1.2724 -1.7597
   81SAPS  H11B 7492   2.577   4.099  10.978  0.4348  0.2116 -0.7081
   81SAPS     P 7493   2.412   4.038  10.771  0.1758  0.2032 -0.2589
   81SAPS   O13 7494   2.507   3.971  10.676  0.0446 -0.3396  0.1919
   81SAPS   O14 7495   2.378   3.960  10.890 -0.0252  0.0252  0.0073
   81SAPS   O12 7496   2.474   4.179  10.805  0.1441 -0.4009 -0.0248
   81SAPS   O11 7497   2.279   4.070  10.694 -0.2576  0.4702  0.0594
   81SAPS    C1 7498   2.250   4.193  10.631 -0.0421 -0.1583 -0.6391
   81SAPS    HA 7499   2.175   4.254  10.686  1.5029  1.1118  0.0858
   81SAPS    HB 7500   2.339   4.259  10.622 -0.0248 -0.1952 -0.7377
   81SAPS    C2 7501   2.182   4.168  10.491 -0.1987 -0.3060 -0.0163
   81SAPS    HS 7502   2.087   4.111  10.499 -1.2953  1.5759  0.8870
   81SAPS   O21 7503   2.273   4.104  10.401  0.2652  0.1141 -0.2962
   81SAPS   C21 7504   2.275   3.972  10.416 -0.6262 -0.0382  0.3103
   81SAPS   O22 7505   2.198   3.905  10.481 -0.5020  0.5603 -0.9569
   81SAPS   C22 7506   2.390   3.912  10.332  0.5746 -0.3091  0.6216
   81SAPS   H2R 7507   2.441   3.995  10.279 -0.7585 -0.0353 -0.2653
   81SAPS   H2S 7508   2.456   3.870  10.411  0.7328  0.7504  1.0524
   81SAPS    C3 7509   2.136   4.303  10.433  0.2909  0.2080  0.1768
   81SAPS    HX 7510   2.225   4.369  10.417 -1.0290  2.6303  2.5624
   81SAPS    HY 7511   2.081   4.359  10.511  0.9385  0.0337  0.7648
   81SAPS   O31 7512   2.060   4.273  10.314  0.2380  0.1329  0.7673
   81SAPS   C31 7513   2.044   4.371  10.234 -0.3972 -0.6907 -0.1175
   81SAPS   O32 7514   2.078   4.489  10.252 -0.3131 -0.0261 -0.0092
   81SAPS   C32 7515   1.985   4.326  10.108 -0.8721 -0.1351 -0.1625
   81SAPS   H2X 7516   1.892   4.381  10.082 -1.0263 -1.0935 -1.7318
   81SAPS   H2Y 7517   1.961   4.218  10.117 -0.7980 -0.1820 -0.5143
   81SAPS   C23 7518   2.359   3.799  10.224 -0.8128 -0.0602 -0.3465
   81SAPS   H3R 7519   2.314   3.706  10.264  0.2144 -0.8943 -1.0902
   81SAPS   H3S 7520   2.460   3.766  10.191  1.2041  0.5080  4.7790
   81SAPS   C24 7521   2.287   3.849  10.100  0.2539 -0.1771 -0.1531
   81SAPS   H4R 7522   2.190   3.892  10.132 -0.0951 -0.5708 -0.6634
   81SAPS   H4S 7523   2.262   3.757  10.043 -1.7814 -0.4021  1.0704
   81SAPS   C25 7524   2.374   3.953  10.023 -0.0005  0.4341 -0.0953
   81SAPS   H5R 7525   2.407   4.045  10.075  3.0593 -0.7909  0.2771
   81SAPS   C26 7526   2.412   3.944   9.896 -0.1209  0.0439  0.3768
   81SAPS   H6R 7527   2.461   4.027   9.844  0.6940 -1.0523 -0.6278
   81SAPS   C27 7528   2.365   3.832   9.810  0.1215  0.7049 -0.3860
   81SAPS   H7R 7529   2.257   3.850   9.789  0.5647  2.0533 -1.6033
   81SAPS   H7S 7530   2.394   3.739   9.863  0.2660  1.7756  1.4715
   81SAPS   C28 7531   2.440   3.842   9.683 -0.3643 -0.7078  0.9874
   81SAPS   H8R 7532   2.535   3.897   9.686 -0.5156 -0.1874 -1.8982
   81SAPS   C29 7533   2.406   3.799   9.559  0.4362  0.2917 -0.0287
   81SAPS   H9R 7534   2.478   3.818   9.478  0.3889  1.2348  0.1409
   81SAPS  C210 7535   2.280   3.721   9.522 -0.9755 -0.0895 -0.0237
   81SAPS  H10R 7536   2.208   3.779   9.461  0.9334  0.1926 -2.0978
   81SAPS  H10S 7537   2.222   3.692   9.612 -0.0465  0.8793  0.9064
   81SAPS  C211 7538   2.327   3.597   9.444 -0.1630  0.1891 -0.0773
   81SAPS  H11R 7539   2.359   3.516   9.510 -0.2806  1.2082  1.2517
   81SAPS  C212 7540   2.336   3.578   9.311  0.3130 -0.0576  0.3699
   81SAPS  H12R 7541   2.359   3.477   9.276 -1.6293 -1.0977  2.0364
   81SAPS  C213 7542   2.308   3.682   9.206 -0.0649  0.1367  0.3157
   81SAPS  H13R 7543   2.321   3.782   9.252  1.9675 -0.1274  0.3848
   81SAPS  H13S 7544   2.205   3.666   9.167  0.7125 -1.3108 -1.1996
   81SAPS  C214 7545   2.430   3.694   9.118 -0.1018  0.0625  0.3482
   81SAPS  H14R 7546   2.526   3.721   9.165  0.7293  0.6945 -1.6676
   81SAPS  C215 7547   2.425   3.660   8.984 -0.5851 -0.3369  0.1647
   81SAPS  H15R 7548   2.512   3.686   8.922  0.7997 -1.5924  1.5246
   81SAPS  C216 7549   2.301   3.586   8.935  0.7824  0.0368  0.1844
   81SAPS  H16R 7550   2.212   3.652   8.946  1.1467  0.5649 -0.0276
   81SAPS  H16S 7551   2.295   3.510   9.016  3.5283  0.6135  0.9657
   81SAPS  C217 7552   2.325   3.532   8.790  0.5565 -0.0610  0.5198
   81SAPS  H17R 7553   2.407   3.457   8.797  1.0766  0.6232  1.9248
   81SAPS  H17S 7554   2.353   3.620   8.728 -1.2259  0.0706 -0.1241
   81SAPS  C218 7555   2.205   3.460   8.737 -0.2889 -0.2086  0.9682
   81SAPS  H18R 7556   2.213   3.426   8.632  0.6322  0.7474  0.7214
   81SAPS  H18S 7557   2.117   3.526   8.724 -0.7435 -1.1608 -1.0181
   81SAPS  C219 7558   2.139   3.341   8.818  0.1275 -0.1173 -0.4997
   81SAPS  H19R 7559   2.059   3.294   8.757 -0.3893 -2.5145  1.9010
   81SAPS  H19S 7560   2.100   3.376   8.916  1.5799 -0.9835  0.4195
   81SAPS  C220 7561   2.247   3.239   8.855 -0.8153  0.6638  0.1862
   81SAPS  H20R 7562   2.311   3.270   8.940  0.8397  2.3231 -1.6324
   81SAPS  H20S 7563   2.323   3.212   8.779 -1.2125 -0.4721  0.1768
   81SAPS  H20T 7564   2.187   3.148   8.877 -1.0231  0.7936  0.1591
   81SAPS   C33 7565   2.070   4.354   9.982 -0.0262 -0.3959 -0.3001
   81SAPS   H3X 7566   2.106   4.459   9.988  2.3325 -1.2516  1.1622
   81SAPS   H3Y 7567   2.004   4.348   9.892  1.6649 -2.1909 -1.4555
   81SAPS   C34 7568   2.189   4.266   9.969 -0.0259  0.3018 -0.1762
   81SAPS   H4X 7569   2.151   4.163   9.953  0.0018 -0.0079  1.6233
   81SAPS   H4Y 7570   2.261   4.251  10.053  0.8864 -0.1926 -1.0327
   81SAPS   C35 7571   2.279   4.308   9.848 -0.5088 -0.4920  0.2759
   81SAPS   H5X 7572   2.367   4.242   9.835 -1.6859 -2.0031 -0.1007
   81SAPS   H5Y 7573   2.310   4.411   9.874 -0.8428 -0.1064 -0.8373
   81SAPS   C36 7574   2.215   4.324   9.711 -0.1524 -0.7019  0.6228
   81SAPS   H6X 7575   2.280   4.388   9.647  1.5607 -3.2725 -0.2770
   81SAPS   H6Y 7576   2.113   4.370   9.710  0.5351  0.9931  2.5514
   81SAPS   C37 7577   2.192   4.187   9.648  0.1419  0.2388  0.2989
   81SAPS   H7X 7578   2.118   4.123   9.700 -1.2315  1.8533  0.4112
   81SAPS   H7Y 7579   2.284   4.125   9.650 -0.0025 -0.0744 -1.7011
   81SAPS   C38 7580   2.168   4.215   9.495  0.0291  0.2767 -0.1314
   81SAPS   H8X 7581   2.233   4.293   9.450  0.0451  0.2740 -0.1132
   81SAPS   H8Y 7582   2.070   4.264   9.484 -0.9854 -2.0707 -1.9175
   81SAPS   C39 7583   2.149   4.099   9.402 -0.5695 -0.1179  0.0737
   81SAPS   H9X 7584   2.060   4.045   9.440  0.3996 -0.7561  1.4997
   81SAPS   H9Y 7585   2.241   4.038   9.415 -0.7040 -0.0039  1.7651
   81SAPS  C310 7586   2.130   4.138   9.252  0.2550  0.1227 -0.0413
   81SAPS  H10X 7587   2.208   4.210   9.218 -0.7760  0.3788 -1.8826
   81SAPS  H10Y 7588   2.038   4.200   9.255 -0.5260 -1.0626  0.8121
   81SAPS  C311 7589   2.121   4.013   9.172  0.0730  0.4973  0.2223
   81SAPS  H11X 7590   2.037   3.961   9.222  2.2425  0.6348  4.2327
   81SAPS  H11Y 7591   2.208   3.943   9.173 -0.4946 -0.2145  0.5214
   81SAPS  C312 7592   2.091   4.048   9.024 -0.0661 -0.0606 -0.0864
   81SAPS  H12X 7593   2.001   4.112   9.012 -0.4415 -0.5593  0.1259
   81SAPS  H12Y 7594   2.067   3.960   8.961 -0.3765 -0.1194  0.1190
   81SAPS  C313 7595   2.212   4.104   8.952 -0.3123  0.3199 -0.2795
   81SAPS  H13X 7596   2.284   4.174   8.999  0.4040  0.9164 -2.2091
   81SAPS  H13Y 7597   2.171   4.165   8.868  0.5814 -2.0866 -2.5622
   81SAPS  C314 7598   2.307   4.005   8.880 -0.2745 -0.1378 -0.4491
   81SAPS  H14X 7599   2.270   3.900   8.877 -0.2433 -0.1691  0.2489
   81SAPS  H14Y 7600   2.406   3.995   8.930 -1.0169  0.2939  1.1118
   81SAPS  C315 7601   2.357   4.054   8.739  0.2978  0.1411  0.2133
   81SAPS  H15X 7602   2.414   4.146   8.759  1.5860 -0.8826  1.3159
   81SAPS  H15Y 7603   2.268   4.084   8.680 -0.4089  0.9453  1.6687
   81SAPS  C316 7604   2.447   3.948   8.668  0.5609  0.3861  0.1371
   81SAPS  H16X 7605   2.376   3.869   8.636  0.4780 -0.5377  2.4923
   81SAPS  H16Y 7606   2.508   3.913   8.754  3.3095  2.7456 -0.7966
   81SAPS  C317 7607   2.531   3.998   8.562  0.5135  0.2345 -0.5396
   81SAPS  H17X 7608   2.584   3.912   8.515  2.3399  0.5514  0.9079
   81SAPS  H17Y 7609   2.612   4.066   8.594 -0.7385  1.5723 -0.1717
   81SAPS  C318 7610   2.463   4.073   8.451 -0.3268 -0.3626  0.1506
   81SAPS  H18X 7611   2.421   4.167   8.494  0.0945  0.5149 -1.2840
   81SAPS  H18Y 7612   2.375   4.024   8.405  1.1213  0.2498 -3.4679
   81SAPS  H18Z 7613   2.542   4.104   8.379  2.1077  0.5354  3.1133
   82SAPS     N 7614   1.544   3.459  10.771  0.1914  0.0865 -0.6670
   82SAPS   HN1 7615   1.644   3.430  10.771  0.4993  1.0366  1.0793
   82SAPS   HN2 7616   1.510   3.407  10.688 -0.8991 -2.0956  1.0966
   82SAPS   HN3 7617   1.540   3.562  10.766 -0.7909  0.0578 -0.5464
   82SAPS   C12 7618   1.489   3.392  10.900  0.0403 -0.0529  0.1064
   82SAPS  H12A 7619   1.487   3.284  10.895 -0.7638  0.0047 -0.8624
   82SAPS   C13 7620   1.586   3.414  11.021  0.0498  0.0884  0.0083
   82SAPS  O13A 7621   1.700   3.481  11.013  0.5341 -0.1267  0.1838
   82SAPS  O13B 7622   1.537   3.380  11.132 -0.2460  0.4615  0.2482
   82SAPS   C11 7623   1.354   3.463  10.937 -0.4711 -0.3942 -0.4540
   82SAPS  H11A 7624   1.376   3.566  10.972 -0.6396 -0.4961 -0.0439
   82SAPS  H11B 7625   1.317   3.402  11.022  0.5718  0.9438  0.9795
   82SAPS     P 7626   1.143   3.544  10.819  0.3739  0.3411  0.0254
   82SAPS   O13 7627   1.024   3.462  10.840 -0.0194 -0.6178  0.3031
   82SAPS   O14 7628   1.159   3.664  10.906  0.9118  0.6132 -0.1852
   82SAPS   O12 7629   1.276   3.453  10.821 -0.6109  0.4960  0.1898
   82SAPS   O11 7630   1.126   3.595  10.672  0.2889  0.3263  0.3665
   82SAPS    C1 7631   1.104   3.515  10.558  0.5581  0.3823  0.7467
   82SAPS    HA 7632   1.160   3.419  10.568 -1.5405 -1.0269 -0.8866
   82SAPS    HB 7633   0.996   3.492  10.550  0.9451 -0.8452 -1.3799
   82SAPS    C2 7634   1.125   3.601  10.431 -0.0188  0.6402 -0.2684
   82SAPS    HS 7635   1.076   3.701  10.437  1.0863  1.1392  0.8311
   82SAPS   O21 7636   1.086   3.516  10.318  0.2201  0.1939  0.3681
   82SAPS   C21 7637   0.980   3.565  10.247 -0.2526 -0.4046 -0.9974
   82SAPS   O22 7638   0.927   3.670  10.276  0.1227 -0.0494 -0.4174
   82SAPS   C22 7639   0.956   3.474  10.130 -0.2194 -0.4907  0.3816
   82SAPS   H2R 7640   1.041   3.473  10.059 -2.0695 -1.3689 -1.8895
   82SAPS   H2S 7641   0.950   3.370  10.170  0.3835 -1.4264 -1.8785
   82SAPS    C3 7642   1.276   3.645  10.418  0.5522 -0.1854  0.2924
   82SAPS    HX 7643   1.327   3.547  10.412 -2.0716 -1.6079  0.5655
   82SAPS    HY 7644   1.306   3.705  10.507  1.4906 -1.0938  0.5958
   82SAPS   O31 7645   1.304   3.713  10.294  0.2164  0.3102  0.1945
   82SAPS   C31 7646   1.263   3.836  10.296 -0.5501 -0.1998 -0.2522
   82SAPS   O32 7647   1.236   3.896  10.399  0.2769  0.1279 -0.2059
   82SAPS   C32 7648   1.258   3.898  10.160 -0.2847 -0.3742  0.2670
   82SAPS   H2X 7649   1.341   3.859  10.098 -1.0899 -1.1905 -0.2963
   82SAPS   H2Y 7650   1.259   4.007  10.180 -2.0738 -0.5040  1.1870
   82SAPS   C23 7651   0.830   3.502  10.047 -0.0317 -0.0758  1.1208
   82SAPS   H3R 7652   0.760   3.534  10.127 -1.3592 -1.0117  0.3455
   82SAPS   H3S 7653   0.787   3.414   9.995 -0.9535  1.7980 -1.3422
   82SAPS   C24 7654   0.834   3.608   9.942  0.0397 -0.0280  0.7572
   82SAPS   H4R 7655   0.912   3.591   9.864 -1.8931  1.4169 -1.5732
   82SAPS   H4S 7656   0.863   3.701   9.994 -1.3774  0.7686  0.1460
   82SAPS   C25 7657   0.700   3.626   9.886 -0.1813 -0.3455  0.5667
   82SAPS   H5R 7658   0.631   3.673   9.958  0.1370  0.4266  0.3774
   82SAPS   C26 7659   0.670   3.636   9.755 -0.6045 -0.4802 -0.2072
   82SAPS   H6R 7660   0.565   3.638   9.724 -0.3124  1.0701 -1.1483
   82SAPS   C27 7661   0.763   3.620   9.630  0.8408  0.4211  0.0354
   82SAPS   H7R 7662   0.701   3.604   9.539 -0.3805  0.9855  0.7498
   82SAPS   H7S 7663   0.819   3.525   9.623  0.0643  0.0092 -0.6802
   82SAPS   C28 7664   0.837   3.748   9.596 -0.5613  0.5578  0.4820
   82SAPS   H8R 7665   0.811   3.836   9.657  0.1452  0.9055  0.2915
   82SAPS   C29 7666   0.917   3.766   9.491  0.4560 -0.2308  0.1521
   82SAPS   H9R 7667   0.964   3.865   9.489  0.0288 -0.0356 -0.3632
   82SAPS  C210 7668   0.958   3.659   9.398 -0.6044  0.1036  0.3498
   82SAPS  H10R 7669   0.861   3.623   9.358  0.0353  2.2160 -3.3301
   82SAPS  H10S 7670   1.005   3.586   9.468 -0.4318 -0.6832 -0.5806
   82SAPS  C211 7671   1.055   3.692   9.288  0.4743 -0.3690 -0.5674
   82SAPS  H11R 7672   1.142   3.747   9.328  0.6780 -1.7846  1.0426
   82SAPS  C212 7673   1.042   3.676   9.157 -0.4460 -1.4703 -1.2152
   82SAPS  H12R 7674   1.137   3.696   9.106 -0.1913  0.6549  0.0308
   82SAPS  C213 7675   0.928   3.606   9.079  0.6447 -0.6535  0.0568
   82SAPS  H13R 7676   0.850   3.565   9.147 -0.0060 -1.0753 -0.9430
   82SAPS  H13S 7677   0.964   3.526   9.010 -1.2301 -0.0634 -1.6281
   82SAPS  C214 7678   0.844   3.707   9.010 -0.4015  0.5516 -0.7006
   82SAPS  H14R 7679   0.826   3.803   9.060 -2.1522  1.9880 -3.9599
   82SAPS  C215 7680   0.789   3.694   8.888  0.0689 -0.0136 -0.2160
   82SAPS  H15R 7681   0.720   3.769   8.847 -0.4864  0.5119  1.6139
   82SAPS  C216 7682   0.794   3.580   8.788 -0.0192 -0.0581 -0.6783
   82SAPS  H16R 7683   0.868   3.507   8.827  0.8939  0.4906 -1.3562
   82SAPS  H16S 7684   0.831   3.619   8.691 -0.6522  1.1898 -0.4332
   82SAPS  C217 7685   0.661   3.518   8.745  0.1929 -0.3914  0.3957
   82SAPS  H17R 7686   0.586   3.582   8.694 -1.9230 -3.0501  0.1036
   82SAPS  H17S 7687   0.610   3.497   8.841 -0.0729  1.1550  0.6079
   82SAPS  C218 7688   0.683   3.393   8.658 -0.1338  0.3793  0.1069
   82SAPS  H18R 7689   0.747   3.323   8.717 -0.2555  0.6509  0.5630
   82SAPS  H18S 7690   0.740   3.417   8.566 -0.4578 -1.6574 -0.6425
   82SAPS  C219 7691   0.551   3.319   8.632 -0.4115  0.1181 -0.6269
   82SAPS  H19R 7692   0.565   3.215   8.597 -1.7287 -0.2743 -0.0152
   82SAPS  H19S 7693   0.486   3.357   8.550  1.7717  1.0590 -1.9827
   82SAPS  C220 7694   0.475   3.286   8.763 -0.0325  0.3631  0.1365
   82SAPS  H20R 7695   0.557   3.264   8.835 -1.0323  0.9797  1.4815
   82SAPS  H20S 7696   0.408   3.198   8.750  1.2145 -0.3518 -1.6564
   82SAPS  H20T 7697   0.421   3.376   8.799  1.4788  2.5531 -2.9265
   82SAPS   C33 7698   1.135   3.862  10.076  0.0973  0.0128 -0.2040
   82SAPS   H3X 7699   1.047   3.910  10.123  0.8383 -0.1957  1.4377
   82SAPS   H3Y 7700   1.122   3.752  10.074  2.8129 -0.4175 -5.5620
   82SAPS   C34 7701   1.142   3.915   9.930 -0.5407  0.1245  0.8504
   82SAPS   H4X 7702   1.174   4.021   9.918  1.1714 -0.4068  0.6220
   82SAPS   H4Y 7703   1.045   3.896   9.880 -0.9872 -0.3332  1.8858
   82SAPS   C35 7704   1.238   3.831   9.849 -0.2208 -0.0026  0.2250
   82SAPS   H5X 7705   1.188   3.733   9.830 -1.6771  1.5985 -4.7188
   82SAPS   H5Y 7706   1.343   3.819   9.883  1.5642  1.9858 -4.1938
   82SAPS   C36 7707   1.264   3.895   9.706 -0.5671  0.3322 -0.1884
   82SAPS   H6X 7708   1.330   3.983   9.722  0.3099 -0.0222 -1.7493
   82SAPS   H6Y 7709   1.168   3.920   9.655 -0.6414  0.9510  0.2542
   82SAPS   C37 7710   1.362   3.801   9.630 -0.5085 -0.4418 -0.4191
   82SAPS   H7X 7711   1.459   3.792   9.684  0.4717  2.3883 -1.6157
   82SAPS   H7Y 7712   1.373   3.850   9.531 -1.0190  1.3628  0.3843
   82SAPS   C38 7713   1.308   3.663   9.598  0.2514  0.8647  0.0362
   82SAPS   H8X 7714   1.214   3.674   9.540  0.5179 -0.0031 -0.5736
   82SAPS   H8Y 7715   1.289   3.608   9.693  2.0605  0.8656  0.4173
   82SAPS   C39 7716   1.400   3.572   9.512 -0.1413 -0.4978  0.2896
   82SAPS   H9X 7717   1.333   3.487   9.486  1.1025 -0.6616 -2.5956
   82SAPS   H9Y 7718   1.489   3.537   9.567 -1.3784 -1.8442  1.4543
   82SAPS  C310 7719   1.436   3.639   9.381 -0.6147  0.0068 -0.2608
   82SAPS  H10X 7720   1.510   3.716   9.412  0.5414 -1.3252  0.3851
   82SAPS  H10Y 7721   1.348   3.690   9.338 -1.5484 -0.5333  0.9717
   82SAPS  C311 7722   1.479   3.545   9.260 -0.0534 -0.9582 -0.0324
   82SAPS  H11X 7723   1.568   3.491   9.299  0.4546 -1.0376 -1.2520
   82SAPS  H11Y 7724   1.496   3.605   9.168  1.8235 -0.5922  0.5254
   82SAPS  C312 7725   1.374   3.443   9.221 -0.6680  0.1515  0.1914
   82SAPS  H12X 7726   1.280   3.501   9.220 -1.0161 -0.4094  0.2361
   82SAPS  H12Y 7727   1.346   3.371   9.300 -0.4534  0.9449  0.9958
   82SAPS  C313 7728   1.372   3.374   9.083 -0.0345 -0.1525  0.9588
   82SAPS  H13X 7729   1.452   3.297   9.078  0.6743  0.6913 -0.9413
   82SAPS  H13Y 7730   1.396   3.448   9.004  1.5544  0.3481  1.8735
   82SAPS  C314 7731   1.234   3.311   9.057  0.0374  0.4022  0.1874
   82SAPS  H14X 7732   1.164   3.397   9.057  1.0671  1.2489  0.2809
   82SAPS  H14Y 7733   1.207   3.235   9.133  0.8542  0.1251  0.2150
   82SAPS  C315 7734   1.208   3.233   8.926 -0.9575 -0.0561 -0.3935
   82SAPS  H15X 7735   1.261   3.136   8.923  0.2000  0.5969 -1.0164
   82SAPS  H15Y 7736   1.240   3.293   8.838  0.8766 -0.3996  0.0179
   82SAPS  C316 7737   1.057   3.215   8.904  0.7215  0.2043 -0.4533
   82SAPS  H16X 7738   1.010   3.314   8.889  0.0569 -0.3773 -2.4515
   82SAPS  H16Y 7739   1.020   3.173   8.999  2.5518 -1.8294 -0.5880
   82SAPS  C317 7740   1.029   3.119   8.787  0.3332  0.3103  0.4797
   82SAPS  H17X 7741   1.109   3.115   8.709  0.8508  0.8406  0.9777
   82SAPS  H17Y 7742   0.928   3.134   8.743  0.8214  0.9204 -0.4628
   82SAPS  C318 7743   1.015   2.972   8.840  0.1991  0.3715  0.1991
   82SAPS  H18X 7744   0.951   2.963   8.931 -0.0579 -0.6198 -0.0653
   82SAPS  H18Y 7745   1.114   2.935   8.873  0.3581 -0.8235 -1.5588
   82SAPS  H18Z 7746   0.990   2.896   8.763  0.5180  1.0883 -0.6216
   83SAPS     N 7747   3.047   4.427  11.148 -0.3753  0.5819 -0.1330
   83SAPS   HN1 7748   3.146   4.454  11.135  0.6449 -3.4660 -1.7986
   83SAPS   HN2 7749   3.039   4.379  11.240  2.2187  1.1852  0.4408
   83SAPS   HN3 7750   3.027   4.355  11.075 -1.9973  0.4370  0.4358
   83SAPS   C12 7751   2.955   4.539  11.148  0.2968 -0.6423  0.4931
   83SAPS  H12A 7752   2.860   4.512  11.191  1.1558 -1.6404  1.8134
   83SAPS   C13 7753   3.008   4.649  11.240 -0.2123 -0.4745  0.6161
   83SAPS  O13A 7754   3.091   4.622  11.335  0.8497 -0.4264 -0.0513
   83SAPS  O13B 7755   2.925   4.745  11.261 -0.7977  0.2764 -0.4730
   83SAPS   C11 7756   2.944   4.595  11.003 -0.0842  0.0293  0.3350
   83SAPS  H11A 7757   2.908   4.513  10.937 -1.1236 -0.2411  1.2225
   83SAPS  H11B 7758   3.044   4.625  10.965 -0.1575  0.6498  0.6309
   83SAPS     P 7759   2.719   4.702  10.901  0.1637  0.1738 -0.5686
   83SAPS   O13 7760   2.664   4.565  10.904  0.7128 -0.3172  0.8844
   83SAPS   O14 7761   2.637   4.818  10.943  0.5677  0.0088  0.1109
   83SAPS   O12 7762   2.840   4.698  11.001 -1.0684  0.3586 -0.2288
   83SAPS   O11 7763   2.769   4.732  10.756 -0.4825 -0.0891  0.1114
   83SAPS    C1 7764   2.869   4.830  10.726  0.5338 -0.2643 -0.0791
   83SAPS    HA 7765   2.965   4.801  10.774  0.2151 -3.0329 -1.0186
   83SAPS    HB 7766   2.881   4.826  10.616  1.3564 -1.0789  0.0368
   83SAPS    C2 7767   2.818   4.976  10.765  0.4638 -0.7639 -0.6728
   83SAPS    HS 7768   2.782   4.983  10.870 -1.8968  1.3254 -1.5817
   83SAPS   O21 7769   2.705   5.005  10.680 -0.1265 -0.3319  0.2347
   83SAPS   C21 7770   2.633   5.107  10.720  0.2455 -0.2684  0.2758
   83SAPS   O22 7771   2.654   5.163  10.829 -0.0905  0.0056 -0.4188
   83SAPS   C22 7772   2.535   5.153  10.617  0.2123  0.2649  0.0546
   83SAPS   H2R 7773   2.592   5.204  10.536  2.0810 -0.8816  0.6195
   83SAPS   H2S 7774   2.480   5.061  10.588  1.3668 -0.1415 -0.8493
   83SAPS    C3 7775   2.934   5.078  10.746  0.4282  0.5885 -0.5832
   83SAPS    HX 7776   3.013   5.063  10.822  2.9440  2.4536 -2.7111
   83SAPS    HY 7777   2.912   5.187  10.749 -0.4447  0.4754 -2.1165
   83SAPS   O31 7778   2.998   5.054  10.621  0.2817  0.1154  0.0290
   83SAPS   C31 7779   2.936   5.112  10.517 -0.1645  0.3279 -0.0670
   83SAPS   O32 7780   2.845   5.193  10.521  0.4744  1.0689 -0.0792
   83SAPS   C32 7781   3.004   5.048  10.393 -0.0620 -0.0365  0.3049
   83SAPS   H2X 7782   2.997   4.938  10.400  1.4057 -0.3608 -2.4915
   83SAPS   H2Y 7783   3.109   5.083  10.393 -0.5322  1.4465 -1.4742
   83SAPS   C23 7784   2.431   5.246  10.677  0.4209 -0.3082 -0.3000
   83SAPS   H3R 7785   2.474   5.328  10.738 -2.2281  3.3067 -3.0332
   83SAPS   H3S 7786   2.361   5.187  10.739 -0.2992 -0.3291 -1.1249
   83SAPS   C24 7787   2.357   5.305  10.554  0.8311 -0.8153 -0.0016
   83SAPS   H4R 7788   2.423   5.364  10.489 -1.3457  1.1267 -0.5122
   83SAPS   H4S 7789   2.278   5.370  10.597  2.5089 -0.6250  2.9065
   83SAPS   C25 7790   2.283   5.204  10.465 -0.8232 -0.9136  0.1276
   83SAPS   H5R 7791   2.187   5.163  10.501 -2.5399  0.2169 -2.9968
   83SAPS   C26 7792   2.324   5.170  10.343 -0.0329  0.2397 -0.4866
   83SAPS   H6R 7793   2.263   5.096  10.291  0.3712  0.0976 -0.7594
   83SAPS   C27 7794   2.445   5.212  10.276  0.3904  0.1250  0.1345
   83SAPS   H7R 7795   2.523   5.248  10.346 -0.1610  0.5319  0.5416
   83SAPS   H7S 7796   2.404   5.289  10.208 -2.4897 -0.6925  0.8992
   83SAPS   C28 7797   2.525   5.119  10.185 -0.5352  0.1584  0.6663
   83SAPS   H8R 7798   2.606   5.072  10.243  0.1221  2.5229  1.7430
   83SAPS   C29 7799   2.519   5.112  10.048 -0.5628  0.3961 -0.2096
   83SAPS   H9R 7800   2.593   5.054   9.991 -2.3241 -1.0607 -1.0913
   83SAPS  C210 7801   2.427   5.178   9.954  0.2566 -0.0429  0.0368
   83SAPS  H10R 7802   2.338   5.214  10.010 -0.9646 -0.6713 -1.4500
   83SAPS  H10S 7803   2.382   5.104   9.884  0.9384  1.9606 -2.5878
   83SAPS  C211 7804   2.495   5.294   9.886  0.8623 -0.7003  0.3636
   83SAPS  H11R 7805   2.549   5.362   9.954 -0.8954 -0.8036  1.8988
   83SAPS  C212 7806   2.508   5.309   9.752  0.3627 -0.7956 -0.0279
   83SAPS  H12R 7807   2.544   5.408   9.721 -0.7590  0.1706  1.6137
   83SAPS  C213 7808   2.454   5.216   9.648 -0.0609 -0.3505 -0.3255
   83SAPS  H13R 7809   2.390   5.139   9.696 -0.1880  0.5905  1.0495
   83SAPS  H13S 7810   2.538   5.160   9.603 -0.6244 -0.5789 -1.1084
   83SAPS  C214 7811   2.373   5.273   9.532 -0.8604 -0.0628 -0.1749
   83SAPS  H14R 7812   2.280   5.327   9.556 -2.7264 -3.1723 -0.0986
   83SAPS  C215 7813   2.407   5.256   9.401  0.2146 -0.4419 -0.8378
   83SAPS  H15R 7814   2.323   5.265   9.332 -0.3804  1.7125  0.1546
   83SAPS  C216 7815   2.517   5.170   9.342  0.4385  0.4701  1.0398
   83SAPS  H16R 7816   2.557   5.089   9.407  1.1084 -0.6720 -0.7758
   83SAPS  H16S 7817   2.598   5.231   9.297  3.2376 -2.9080  1.2382
   83SAPS  C217 7818   2.466   5.097   9.211 -0.8063 -0.2659 -0.0362
   83SAPS  H17R 7819   2.379   5.030   9.227 -0.8487 -0.2951 -0.3973
   83SAPS  H17S 7820   2.543   5.020   9.190 -1.7047 -1.4969  1.1023
   83SAPS  C218 7821   2.439   5.190   9.090  0.3076 -0.4167 -0.4120
   83SAPS  H18R 7822   2.537   5.228   9.053  0.3313 -1.0542 -1.0307
   83SAPS  H18S 7823   2.382   5.276   9.128 -1.4473 -1.4286 -0.6961
   83SAPS  C219 7824   2.383   5.127   8.963  0.5539 -0.9707 -0.1894
   83SAPS  H19R 7825   2.277   5.102   8.987 -0.0796 -0.1031 -1.9423
   83SAPS  H19S 7826   2.445   5.040   8.933 -1.8730 -2.1256 -2.0456
   83SAPS  C220 7827   2.375   5.221   8.838 -0.0938 -0.2115  0.7356
   83SAPS  H20R 7828   2.358   5.154   8.751 -2.2795  0.7009  0.4199
   83SAPS  H20S 7829   2.481   5.251   8.821 -0.2110 -0.4484 -0.4804
   83SAPS  H20T 7830   2.307   5.307   8.855 -1.1511 -0.8104 -0.3085
   83SAPS   C33 7831   2.922   5.091  10.271  0.0658  0.6822  0.6719
   83SAPS   H3X 7832   2.946   5.199  10.259 -0.8530  0.7098 -1.0577
   83SAPS   H3Y 7833   2.812   5.084  10.284  0.4528 -1.4582  3.0076
   83SAPS   C34 7834   2.969   5.025  10.143 -0.5711 -0.6838 -0.2851
   83SAPS   H4X 7835   2.956   4.916  10.163 -0.6371 -1.0474 -2.2248
   83SAPS   H4Y 7836   3.078   5.046  10.136 -0.8212  0.8096  0.1594
   83SAPS   C35 7837   2.896   5.066  10.013 -0.5396 -0.1080 -0.0231
   83SAPS   H5X 7838   2.921   5.173   9.995 -0.6880 -0.2000 -0.8138
   83SAPS   H5Y 7839   2.788   5.059  10.037 -0.7509  1.7188 -0.3208
   83SAPS   C36 7840   2.934   4.972   9.892 -0.0410  0.0462 -0.5971
   83SAPS   H6X 7841   2.946   4.872   9.939 -1.5254  1.0615  2.0891
   83SAPS   H6Y 7842   3.037   5.000   9.861 -0.2573  0.1929 -1.1880
   83SAPS   C37 7843   2.846   4.986   9.761  0.2339  0.1701  0.3123
   83SAPS   H7X 7844   2.857   5.090   9.725 -0.2437 -0.3554 -1.3996
   83SAPS   H7Y 7845   2.736   4.974   9.770  0.4928 -2.1663  0.8019
   83SAPS   C38 7846   2.892   4.894   9.638 -0.2291  0.2549  0.0475
   83SAPS   H8X 7847   2.894   4.786   9.666 -2.4842  0.8416  2.6096
   83SAPS   H8Y 7848   2.992   4.931   9.609 -0.1442  1.4541  1.8164
   83SAPS   C39 7849   2.788   4.902   9.528  0.4392 -0.4615  0.4918
   83SAPS   H9X 7850   2.773   5.008   9.497  2.6027  0.0785  1.1869
   83SAPS   H9Y 7851   2.693   4.864   9.571  0.5711 -1.0300  0.2716
   83SAPS  C310 7852   2.834   4.835   9.405 -0.5616 -0.2234 -0.4373
   83SAPS  H10X 7853   2.842   4.726   9.422  2.9522  0.0229 -0.1693
   83SAPS  H10Y 7854   2.935   4.877   9.380 -0.7613  0.8976  0.5857
   83SAPS  C311 7855   2.748   4.867   9.278  0.9077 -0.3413 -0.1696
   83SAPS  H11X 7856   2.748   4.978   9.275 -0.2182 -0.3393 -0.2920
   83SAPS  H11Y 7857   2.639   4.850   9.289  0.2852  2.9019 -0.8766
   83SAPS  C312 7858   2.804   4.814   9.146 -0.0342  0.4117 -0.4943
   83SAPS  H12X 7859   2.806   4.703   9.144 -2.1783  0.3677 -0.9140
   83SAPS  H12Y 7860   2.910   4.846   9.154  0.5058 -1.5257  0.3335
   83SAPS  C313 7861   2.724   4.854   9.017 -0.2831 -0.2624 -0.1399
   83SAPS  H13X 7862   2.755   4.955   8.983 -1.1393 -0.7403 -2.4243
   83SAPS  H13Y 7863   2.618   4.859   9.050 -0.2848 -0.5537 -0.0964
   83SAPS  C314 7864   2.726   4.754   8.907 -0.2979  0.8445  0.5363
   83SAPS  H14X 7865   2.674   4.664   8.947  1.0510 -0.5525 -0.7522
   83SAPS  H14Y 7866   2.831   4.729   8.881  0.1660  1.7739  1.4977
   83SAPS  C315 7867   2.661   4.800   8.776 -0.7270 -0.0864 -0.3871
   83SAPS  H15X 7868   2.682   4.907   8.753  2.1808 -0.5435 -0.1074
   83SAPS  H15Y 7869   2.552   4.783   8.788 -1.0874  2.4147  0.1981
   83SAPS  C316 7870   2.707   4.708   8.665  0.5401 -0.1020  1.0386
   83SAPS  H16X 7871   2.723   4.608   8.710  1.7432 -1.5402 -2.4158
   83SAPS  H16Y 7872   2.797   4.742   8.609  1.0723 -2.2283  0.5550
   83SAPS  C317 7873   2.586   4.689   8.568 -0.1607  0.3979  0.3199
   83SAPS  H17X 7874   2.555   4.784   8.520 -0.6965 -0.2529 -0.6366
   83SAPS  H17Y 7875   2.494   4.669   8.627  0.9527 -0.4553  1.8344
   83SAPS  C318 7876   2.601   4.579   8.462 -0.7310 -0.2557  0.0648
   83SAPS  H18X 7877   2.688   4.603   8.397 -2.4446  0.0747 -2.2002
   83SAPS  H18Y 7878   2.513   4.576   8.394 -1.1973 -1.9867  0.6963
   83SAPS  H18Z 7879   2.615   4.477   8.505 -3.7132 -0.2512  1.2278
   84SAPS     N 7880   3.939   3.993  11.028  0.6434  0.6072 -0.7098
   84SAPS   HN1 7881   3.979   4.058  10.957  0.5549  1.2410 -0.1825
   84SAPS   HN2 7882   4.003   3.915  11.049 -0.1083 -1.1849 -4.5799
   84SAPS   HN3 7883   3.853   3.955  10.984 -1.1502  0.5026  2.7129
   84SAPS   C12 7884   3.904   4.077  11.143  0.3325  0.0031 -1.0986
   84SAPS  H12A 7885   3.821   4.137  11.110  1.1163  1.2773 -0.7618
   84SAPS   C13 7886   3.851   3.997  11.265 -0.1297  0.0409 -0.6365
   84SAPS  O13A 7887   3.845   3.872  11.249  0.4023 -0.3540  0.0970
   84SAPS  O13B 7888   3.797   4.061  11.362  0.2525  0.5689  0.5116
   84SAPS   C11 7889   4.027   4.156  11.192 -0.8847 -0.2398  0.3376
   84SAPS  H11A 7890   4.104   4.083  11.226 -0.0881  0.0286 -0.8791
   84SAPS  H11B 7891   3.996   4.231  11.268 -0.4297  0.8827 -0.5747
   84SAPS     P 7892   4.120   4.375  11.078 -0.5860 -0.1457  0.1327
   84SAPS   O13 7893   4.029   4.429  10.978  0.6189 -0.0043 -0.3510
   84SAPS   O14 7894   4.110   4.429  11.214  0.6654  0.0014  0.0053
   84SAPS   O12 7895   4.090   4.223  11.084 -0.0379  0.3453  0.3830
   84SAPS   O11 7896   4.268   4.389  11.031 -0.2426  0.0841  0.0441
   84SAPS    C1 7897   4.359   4.287  11.073 -0.6265 -0.3355 -0.7001
   84SAPS    HA 7898   4.440   4.332  11.135  0.1120 -2.0159 -0.4122
   84SAPS    HB 7899   4.319   4.208  11.140 -0.2152 -0.7157 -0.8973
   84SAPS    C2 7900   4.417   4.222  10.947 -0.1537 -0.1772  0.5829
   84SAPS    HS 7901   4.477   4.133  10.976 -1.2810 -1.4828 -1.0111
   84SAPS   O21 7902   4.504   4.320  10.880 -0.1674  0.4155  0.0398
   84SAPS   C21 7903   4.605   4.269  10.806  0.4953 -0.3240  0.1944
   84SAPS   O22 7904   4.645   4.154  10.810 -0.0958 -0.4313 -0.4012
   84SAPS   C22 7905   4.648   4.368  10.694  0.4402  0.2109 -0.1312
   84SAPS   H2R 7906   4.551   4.394  10.647 -0.1129 -1.2633  0.1694
   84SAPS   H2S 7907   4.700   4.451  10.748  0.9196 -0.8372  1.0578
   84SAPS    C3 7908   4.308   4.168  10.850 -0.3576  0.1077 -0.2163
   84SAPS    HX 7909   4.241   4.256  10.836 -2.0730 -0.5312  3.3673
   84SAPS    HY 7910   4.250   4.093  10.907 -0.3098 -1.0397 -1.6628
   84SAPS   O31 7911   4.344   4.126  10.716 -0.0334  0.2195  0.3978
   84SAPS   C31 7912   4.359   3.993  10.710 -0.7671 -0.2815  0.2612
   84SAPS   O32 7913   4.363   3.918  10.804 -0.1423  0.6024 -0.0536
   84SAPS   C32 7914   4.371   3.958  10.555 -0.5088 -0.3920 -0.4997
   84SAPS   H2X 7915   4.391   3.849  10.545 -1.0617 -0.4234 -1.2764
   84SAPS   H2Y 7916   4.477   3.989  10.536  0.5609 -3.3148  0.4921
   84SAPS   C23 7917   4.756   4.310  10.604 -0.8861 -0.5398  0.8402
   84SAPS   H3R 7918   4.716   4.225  10.545 -0.2903 -1.2895  1.5130
   84SAPS   H3S 7919   4.841   4.275  10.666 -0.5486  0.3305  0.8712
   84SAPS   C24 7920   4.808   4.410  10.498 -0.9672 -0.1151 -0.7072
   84SAPS   H4R 7921   4.886   4.351  10.445 -0.7162  0.3353 -0.8438
   84SAPS   H4S 7922   4.870   4.486  10.550 -1.0522 -1.4593  1.4286
   84SAPS   C25 7923   4.712   4.478  10.409 -0.3352  0.7948 -0.3092
   84SAPS   H5R 7924   4.698   4.584  10.433  2.8062  1.2945 -0.4058
   84SAPS   C26 7925   4.651   4.421  10.307  0.9317 -0.4413  0.6785
   84SAPS   H6R 7926   4.593   4.493  10.248  1.0298 -0.1253  0.9732
   84SAPS   C27 7927   4.663   4.273  10.252 -0.3136  0.4263  0.0964
   84SAPS   H7R 7928   4.697   4.211  10.338  2.3371  1.5316 -0.1183
   84SAPS   H7S 7929   4.745   4.264  10.178  0.7480  1.3188  1.1224
   84SAPS   C28 7930   4.533   4.212  10.209  0.0240 -0.1334 -0.2320
   84SAPS   H8R 7931   4.479   4.168  10.294 -1.3893  2.0105  0.0169
   84SAPS   C29 7932   4.491   4.191  10.080 -0.2669 -0.6232 -0.5873
   84SAPS   H9R 7933   4.396   4.138  10.065 -0.8888  0.6079 -1.0033
   84SAPS  C210 7934   4.558   4.217   9.944 -0.1594 -1.1193  0.1903
   84SAPS  H10R 7935   4.662   4.251   9.963 -0.7658  0.9513 -0.0438
   84SAPS  H10S 7936   4.518   4.305   9.888 -0.5893 -0.1999  1.9160
   84SAPS  C211 7937   4.557   4.095   9.849  0.0847  0.0050 -0.7364
   84SAPS  H11R 7938   4.622   4.010   9.874 -1.2397 -0.8985 -0.3140
   84SAPS  C212 7939   4.488   4.080   9.732 -0.2817  0.2100 -0.0928
   84SAPS  H12R 7940   4.502   3.987   9.674 -1.5259  1.8227 -3.0952
   84SAPS  C213 7941   4.395   4.193   9.680 -0.3543 -0.0412 -0.3723
   84SAPS  H13R 7942   4.400   4.180   9.570 -2.3590  1.5617 -0.6705
   84SAPS  H13S 7943   4.435   4.295   9.698 -1.2474  0.2563 -0.0475
   84SAPS  C214 7944   4.256   4.180   9.735 -0.3750 -0.3502 -0.8381
   84SAPS  H14R 7945   4.265   4.151   9.840  0.4684  0.1948 -0.7534
   84SAPS  C215 7946   4.142   4.218   9.673 -0.3787 -0.4830 -0.2021
   84SAPS  H15R 7947   4.050   4.209   9.731 -0.9476 -3.7735 -1.5145
   84SAPS  C216 7948   4.128   4.279   9.538  0.7030  0.1191 -0.8765
   84SAPS  H16R 7949   4.074   4.209   9.471  0.4537 -0.0948 -0.4539
   84SAPS  H16S 7950   4.221   4.311   9.487  1.3033  1.1726  0.8145
   84SAPS  C217 7951   4.048   4.411   9.549 -1.2254 -0.0464  0.2941
   84SAPS  H17R 7952   4.112   4.475   9.613 -0.3555 -1.2715  0.6487
   84SAPS  H17S 7953   3.951   4.405   9.604 -2.3207  2.3147 -1.2513
   84SAPS  C218 7954   4.021   4.472   9.408 -0.3906  0.3709  1.0259
   84SAPS  H18R 7955   3.957   4.402   9.351  0.3202  1.3669 -1.0675
   84SAPS  H18S 7956   4.122   4.478   9.361 -1.0035  1.2366 -0.2077
   84SAPS  C219 7957   3.953   4.604   9.407 -0.5833 -0.6324 -0.2549
   84SAPS  H19R 7958   3.882   4.606   9.493  1.4498  2.3623  1.4753
   84SAPS  H19S 7959   3.885   4.613   9.320  0.1379  0.0672 -0.7539
   84SAPS  C220 7960   4.060   4.714   9.409 -0.0835 -0.0134 -0.3607
   84SAPS  H20R 7961   4.013   4.814   9.420 -1.8049 -0.8977  0.6537
   84SAPS  H20S 7962   4.113   4.712   9.311  0.9810  2.7329  0.1198
   84SAPS  H20T 7963   4.132   4.699   9.492 -0.2333 -0.4381 -0.3065
   84SAPS   C33 7964   4.248   4.003  10.469 -1.0697  0.0987  0.3740
   84SAPS   H3X 7965   4.227   4.112  10.474  0.6427  0.6521 -2.9958
   84SAPS   H3Y 7966   4.161   3.946  10.508 -1.9469  1.0576 -0.1522
   84SAPS   C34 7967   4.271   3.960  10.325 -0.0497  0.5060  0.2966
   84SAPS   H4X 7968   4.301   3.853  10.326 -1.0380  0.2233  1.5967
   84SAPS   H4Y 7969   4.358   4.012  10.281 -0.9802  1.0550 -0.9266
   84SAPS   C35 7970   4.159   3.977  10.226 -0.2562  0.5561  0.5994
   84SAPS   H5X 7971   4.137   4.081  10.196 -1.5176  0.3295  0.7080
   84SAPS   H5Y 7972   4.072   3.921  10.269 -0.1027 -0.3510 -0.2703
   84SAPS   C36 7973   4.183   3.919  10.085  0.7205  0.1619 -0.1940
   84SAPS   H6X 7974   4.199   3.809  10.097  3.3147  0.3179 -1.7533
   84SAPS   H6Y 7975   4.268   3.958  10.024 -0.9180  1.7469 -1.5117
   84SAPS   C37 7976   4.062   3.933   9.986 -0.1732  0.1760  0.1309
   84SAPS   H7X 7977   4.038   4.039   9.964  1.0824  0.4734  0.1186
   84SAPS   H7Y 7978   3.971   3.882  10.023  1.3004 -0.9783  2.2634
   84SAPS   C38 7979   4.102   3.879   9.843 -0.8770  0.5416 -0.6300
   84SAPS   H8X 7980   4.119   3.771   9.863 -2.3020  0.5829  0.9322
   84SAPS   H8Y 7981   4.197   3.926   9.808  0.2777 -0.4372  1.1031
   84SAPS   C39 7982   3.983   3.877   9.745 -0.0212  0.4091 -0.9432
   84SAPS   H9X 7983   3.929   3.974   9.751 -0.5242 -0.0445  3.2356
   84SAPS   H9Y 7984   3.912   3.796   9.773 -0.4916  1.4636  1.0147
   84SAPS  C310 7985   4.030   3.852   9.598  0.1255 -0.2278 -0.3561
   84SAPS  H10X 7986   4.076   3.751   9.595  1.3560  0.2954  0.4699
   84SAPS  H10Y 7987   4.104   3.927   9.565 -0.4477 -0.3318 -1.8929
   84SAPS  C311 7988   3.916   3.865   9.497  0.1450 -0.3685  0.4377
   84SAPS  H11X 7989   3.879   3.970   9.494 -1.2183 -0.8694 -0.9661
   84SAPS  H11Y 7990   3.829   3.801   9.523 -0.5406  0.2456 -0.3025
   84SAPS  C312 7991   3.962   3.817   9.359 -0.8145  0.5364  0.6494
   84SAPS  H12X 7992   3.999   3.714   9.381 -0.1956  0.3640 -1.0960
   84SAPS  H12Y 7993   4.039   3.872   9.300 -2.6333  1.0915 -1.2711
   84SAPS  C313 7994   3.838   3.788   9.270 -0.1006  0.2438 -0.6128
   84SAPS  H13X 7995   3.790   3.884   9.242 -0.2077  0.1934 -0.5987
   84SAPS  H13Y 7996   3.760   3.735   9.329 -1.0249  3.2341  0.9308
   84SAPS  C314 7997   3.854   3.688   9.146 -0.6793  0.1976  0.5079
   84SAPS  H14X 7998   3.808   3.592   9.176 -1.0079  0.6342  1.4367
   84SAPS  H14Y 7999   3.962   3.671   9.127 -0.6565  2.1970 -1.4542
   84SAPS  C315 8000   3.786   3.735   9.013  0.6189  0.1822 -0.4255
   84SAPS  H15X 8001   3.824   3.835   8.981  1.2200  0.2295  0.4038
   84SAPS  H15Y 8002   3.676   3.745   9.022  0.5166 -2.0459  1.2404
   84SAPS  C316 8003   3.817   3.641   8.903  0.0947  0.1722  0.7030
   84SAPS  H16X 8004   3.779   3.537   8.919  2.0082 -0.9907 -1.9851
   84SAPS  H16Y 8005   3.926   3.623   8.896  0.0463 -0.2671  1.0174
   84SAPS  C317 8006   3.755   3.688   8.769 -0.0964 -0.1050 -0.6405
   84SAPS  H17X 8007   3.806   3.783   8.741  1.2510 -0.7664 -0.4341
   84SAPS  H17Y 8008   3.646   3.701   8.789 -0.5620 -3.4479 -0.7907
   84SAPS  C318 8009   3.778   3.588   8.649  0.5948 -0.1095 -0.5345
   84SAPS  H18X 8010   3.726   3.633   8.561  0.8380  0.4423 -0.3931
   84SAPS  H18Y 8011   3.730   3.488   8.659  1.8143 -0.6553 -0.0546
   84SAPS  H18Z 8012   3.883   3.572   8.618  0.2008 -2.1589 -0.8621
   85SAPS     N 8013   1.118   6.076  11.057  1.1336 -0.2816  0.2604
   85SAPS   HN1 8014   1.036   6.046  11.001  0.2499  0.4099  1.1639
   85SAPS   HN2 8015   1.140   6.016  11.140 -2.0297 -0.1494  1.2500
   85SAPS   HN3 8016   1.090   6.171  11.090 -1.3096 -1.0246  0.4122
   85SAPS   C12 8017   1.238   6.104  10.970  0.4129 -0.4469 -0.5183
   85SAPS  H12A 8018   1.306   6.155  11.037  0.5079 -0.2488 -0.7631
   85SAPS   C13 8019   1.304   5.974  10.916 -0.4130 -0.0468  0.4168
   85SAPS  O13A 8020   1.267   5.862  10.957  1.0034 -0.3120 -0.2387
   85SAPS  O13B 8021   1.401   5.978  10.838  0.7864  0.2008 -0.1406
   85SAPS   C11 8022   1.199   6.202  10.849  0.0612  0.2168 -0.1690
   85SAPS  H11A 8023   1.133   6.144  10.781 -0.7818  0.7933  0.1490
   85SAPS  H11B 8024   1.296   6.216  10.796  0.2543  0.4135  0.2321
   85SAPS     P 8025   1.227   6.447  10.910  0.2548 -0.2968 -0.0247
   85SAPS   O13 8026   1.136   6.561  10.930  0.1423 -0.3772  0.5023
   85SAPS   O14 8027   1.333   6.419  11.009 -0.2643  0.5165 -0.4855
   85SAPS   O12 8028   1.136   6.318  10.893 -0.1803 -0.1132 -0.3303
   85SAPS   O11 8029   1.285   6.465  10.765 -0.1329  0.5489 -0.0445
   85SAPS    C1 8030   1.192   6.509  10.663 -0.1099 -0.3027 -0.3114
   85SAPS    HA 8031   1.089   6.469  10.666 -0.7201  1.2786 -0.1187
   85SAPS    HB 8032   1.187   6.619  10.674  0.6343 -0.2611 -0.3109
   85SAPS    C2 8033   1.235   6.474  10.517  0.4339  0.2680  0.4606
   85SAPS    HS 8034   1.329   6.527  10.492 -0.1546  1.5678  0.9216
   85SAPS   O21 8035   1.135   6.518  10.424  0.3694 -0.3836  0.5831
   85SAPS   C21 8036   1.117   6.646  10.418  0.3947 -0.4592 -0.6053
   85SAPS   O22 8037   1.165   6.738  10.483 -0.4602 -0.0236 -0.6978
   85SAPS   C22 8038   1.014   6.672  10.314 -0.1270 -0.3461  0.2197
   85SAPS   H2R 8039   1.049   6.617  10.224  1.6925  0.8853  0.1626
   85SAPS   H2S 8040   0.925   6.614  10.348 -0.5585 -0.8264 -1.6666
   85SAPS    C3 8041   1.254   6.320  10.511  0.5149 -0.1743  0.3963
   85SAPS    HX 8042   1.154   6.279  10.536  0.0758  1.7309  1.8979
   85SAPS    HY 8043   1.329   6.295  10.588 -1.1007  1.7876  2.6823
   85SAPS   O31 8044   1.301   6.284  10.380 -0.3003 -0.6155  0.4604
   85SAPS   C31 8045   1.258   6.169  10.333 -0.0301 -0.2261  0.1118
   85SAPS   O32 8046   1.183   6.093  10.391 -0.1462 -0.5699 -0.4721
   85SAPS   C32 8047   1.330   6.132  10.205 -0.3092  0.5026  0.2567
   85SAPS   H2X 8048   1.380   6.034  10.221  0.0594  0.6225 -0.1650
   85SAPS   H2Y 8049   1.401   6.215  10.183 -1.8785  1.8340  0.1183
   85SAPS   C23 8050   0.995   6.825  10.283  0.1527  0.4692 -0.0829
   85SAPS   H3R 8051   1.091   6.875  10.255  0.4391  0.7558  1.3234
   85SAPS   H3S 8052   0.960   6.863  10.382 -0.3940  0.7112 -0.3669
   85SAPS   C24 8053   0.886   6.852  10.174 -0.0249  0.4012  0.5755
   85SAPS   H4R 8054   0.849   6.953  10.204  0.5181  1.1839 -1.3270
   85SAPS   H4S 8055   0.803   6.780  10.190 -0.1761  0.5372  0.4103
   85SAPS   C25 8056   0.938   6.840  10.034 -0.6486  0.4399 -0.7608
   85SAPS   H5R 8057   1.027   6.903  10.018 -0.6017  0.6438  0.2776
   85SAPS   C26 8058   0.891   6.763   9.929  0.6995 -0.2587 -0.5457
   85SAPS   H6R 8059   0.936   6.757   9.829  0.7871 -0.3139 -0.5051
   85SAPS   C27 8060   0.764   6.670   9.931  0.0718 -0.4591 -0.4674
   85SAPS   H7R 8061   0.669   6.720   9.961  0.6219 -0.5502  1.4706
   85SAPS   H7S 8062   0.787   6.604  10.017  0.2843  0.9763  0.6044
   85SAPS   C28 8063   0.755   6.605   9.796  0.3884 -0.5542  0.3626
   85SAPS   H8R 8064   0.825   6.521   9.782 -1.2022 -1.6363 -1.4044
   85SAPS   C29 8065   0.667   6.653   9.703  0.3951  0.3434 -0.0364
   85SAPS   H9R 8066   0.648   6.597   9.611  0.1200  0.3509  0.0166
   85SAPS  C210 8067   0.564   6.766   9.712  0.6589  0.2703 -0.5363
   85SAPS  H10R 8068   0.539   6.799   9.816  0.5649  0.1600 -0.5216
   85SAPS  H10S 8069   0.465   6.736   9.672  0.0475 -1.1994  1.9201
   85SAPS  C211 8070   0.601   6.890   9.635  0.0824 -0.0519  0.5197
   85SAPS  H11R 8071   0.629   6.979   9.694 -2.5484  0.9925  0.2279
   85SAPS  C212 8072   0.590   6.913   9.499  0.5903  0.0419 -0.3093
   85SAPS  H12R 8073   0.635   7.010   9.471  2.0661 -0.4358  0.3649
   85SAPS  C213 8074   0.538   6.816   9.393  0.2958 -0.3760  0.4308
   85SAPS  H13R 8075   0.454   6.863   9.337  2.2133  0.2140 -2.1075
   85SAPS  H13S 8076   0.504   6.720   9.436  1.3766 -0.4439  1.1606
   85SAPS  C214 8077   0.641   6.767   9.297 -0.1657  0.3822  0.7414
   85SAPS  H14R 8078   0.734   6.732   9.344 -0.3878 -1.1093  0.0768
   85SAPS  C215 8079   0.636   6.747   9.165 -0.4049  0.8832  0.6463
   85SAPS  H15R 8080   0.718   6.705   9.106 -0.1529  0.8353  1.0313
   85SAPS  C216 8081   0.526   6.771   9.066 -0.4963  0.2626  0.5413
   85SAPS  H16R 8082   0.573   6.840   8.994  0.4468 -0.4792  0.4324
   85SAPS  H16S 8083   0.437   6.822   9.109  0.7935  4.4000 -1.4666
   85SAPS  C217 8084   0.482   6.631   9.000  0.0310 -0.5474 -0.2311
   85SAPS  H17R 8085   0.434   6.563   9.073 -1.4960 -1.8604 -2.3770
   85SAPS  H17S 8086   0.576   6.585   8.964 -0.2414 -0.0289 -1.6470
   85SAPS  C218 8087   0.388   6.648   8.887 -0.6334  0.3596 -0.1183
   85SAPS  H18R 8088   0.301   6.704   8.928 -0.8521 -1.2164  1.6585
   85SAPS  H18S 8089   0.348   6.549   8.855  0.0539 -0.4851  1.6021
   85SAPS  C219 8090   0.441   6.714   8.761  0.3908 -0.3277  0.0510
   85SAPS  H19R 8091   0.480   6.816   8.784 -0.9764 -0.0129  1.0027
   85SAPS  H19S 8092   0.364   6.735   8.683  0.6668  0.0488 -0.1269
   85SAPS  C220 8093   0.568   6.647   8.702  0.3086  0.1112 -0.3117
   85SAPS  H20R 8094   0.593   6.679   8.599 -0.7422 -0.9634 -0.9166
   85SAPS  H20S 8095   0.557   6.537   8.710 -3.3024  0.4940  1.2689
   85SAPS  H20T 8096   0.661   6.668   8.759  0.0564 -1.2187  0.6003
   85SAPS   C33 8097   1.232   6.137  10.081  0.5655 -0.1160 -0.0959
   85SAPS   H3X 8098   1.209   6.243  10.057 -0.4230 -1.0180 -3.4053
   85SAPS   H3Y 8099   1.141   6.078  10.104  0.3785 -0.2350 -1.1192
   85SAPS   C34 8100   1.302   6.078   9.958  0.0366  0.5485 -0.0920
   85SAPS   H4X 8101   1.323   5.970   9.969  1.5864  1.1420  3.1775
   85SAPS   H4Y 8102   1.395   6.138   9.953  0.2914  0.0375 -2.0653
   85SAPS   C35 8103   1.208   6.093   9.831 -0.2642  0.2177  0.6804
   85SAPS   H5X 8104   1.198   6.203   9.814 -1.0996 -0.4333 -3.5687
   85SAPS   H5Y 8105   1.113   6.048   9.868  0.0243 -0.4673  0.5771
   85SAPS   C36 8106   1.265   6.016   9.712 -0.0345  0.3622 -0.4568
   85SAPS   H6X 8107   1.291   5.909   9.728  1.2366  0.5492 -1.1637
   85SAPS   H6Y 8108   1.359   6.070   9.685  0.3145 -0.4655 -0.9097
   85SAPS   C37 8109   1.160   6.016   9.601 -0.5603 -0.4289  0.9180
   85SAPS   H7X 8110   1.122   6.120   9.585  0.7192  0.1712  1.6601
   85SAPS   H7Y 8111   1.073   5.957   9.637 -0.4856 -0.9938  0.1870
   85SAPS   C38 8112   1.219   5.970   9.471  0.2430 -0.7434  0.4067
   85SAPS   H8X 8113   1.256   5.865   9.470 -0.0956 -0.8628 -0.3227
   85SAPS   H8Y 8114   1.304   6.040   9.455 -1.0516  0.9333  0.6410
   85SAPS   C39 8115   1.117   5.988   9.357  0.4484  0.1829  0.2418
   85SAPS   H9X 8116   1.070   6.089   9.356  1.3581  0.6141  0.5875
   85SAPS   H9Y 8117   1.040   5.909   9.369 -0.8330  1.2049 -0.9875
   85SAPS  C310 8118   1.187   5.961   9.213 -0.2757  0.3676  0.3178
   85SAPS  H10X 8119   1.237   5.862   9.210 -0.5266  0.2129  1.1317
   85SAPS  H10Y 8120   1.271   6.034   9.207  1.0098 -1.0965  0.3836
   85SAPS  C311 8121   1.087   5.962   9.099 -0.0103  0.0695  0.8950
   85SAPS  H11X 8122   1.048   6.066   9.090  1.3081  0.4397 -0.6931
   85SAPS  H11Y 8123   1.002   5.892   9.113  0.2786 -0.4715 -0.0583
   85SAPS  C312 8124   1.164   5.932   8.966 -0.4676  0.7299 -0.3798
   85SAPS  H12X 8125   1.231   5.847   8.991  0.4826  1.1991 -1.3032
   85SAPS  H12Y 8126   1.225   6.021   8.941  0.2197  0.5812  0.7407
   85SAPS  C313 8127   1.073   5.899   8.844  0.1017  0.5753 -0.3654
   85SAPS  H13X 8128   1.010   5.980   8.804 -3.4421 -2.4086 -1.1275
   85SAPS  H13Y 8129   1.002   5.818   8.873  0.7766 -1.0966 -3.1901
   85SAPS  C314 8130   1.160   5.835   8.731 -0.5759  0.3661  0.2759
   85SAPS  H14X 8131   1.247   5.900   8.708  1.4273 -2.1112  0.5122
   85SAPS  H14Y 8132   1.092   5.828   8.644 -0.1502 -0.9954  0.0391
   85SAPS  C315 8133   1.225   5.698   8.764  0.5108 -0.3593  0.7510
   85SAPS  H15X 8134   1.247   5.676   8.870 -2.4330 -1.5355  1.1728
   85SAPS  H15Y 8135   1.316   5.686   8.701 -0.1327  0.3581 -0.3471
   85SAPS  C316 8136   1.128   5.588   8.723 -0.0886 -0.1410  0.3478
   85SAPS  H16X 8137   1.108   5.592   8.614  0.9162 -0.3188  0.1525
   85SAPS  H16Y 8138   1.032   5.596   8.779 -0.9328 -2.5050 -0.6821
   85SAPS  C317 8139   1.178   5.444   8.742 -0.4042  0.0642 -0.2439
   85SAPS  H17X 8140   1.103   5.374   8.700  1.2055 -0.8413 -1.7298
   85SAPS  H17Y 8141   1.206   5.428   8.848  1.3707  0.8783 -0.5532
   85SAPS  C318 8142   1.303   5.405   8.650 -0.1064 -0.1972  0.6342
   85SAPS  H18X 8143   1.396   5.466   8.655  2.4450 -3.7097 -1.9473
   85SAPS  H18Y 8144   1.273   5.403   8.542 -0.1029 -2.3786  0.6621
   85SAPS  H18Z 8145   1.329   5.302   8.681 -1.5649 -0.8504 -0.2137
   86SAPS     N 8146   2.855   6.374  11.393 -0.1796  0.1254 -0.3909
   86SAPS   HN1 8147   2.912   6.296  11.355  0.2329  1.5252 -2.7482
   86SAPS   HN2 8148   2.825   6.367  11.493  0.5450 -1.5799 -0.2730
   86SAPS   HN3 8149   2.780   6.377  11.321  0.5852 -0.9856 -1.2522
   86SAPS   C12 8150   2.924   6.506  11.389 -0.0200 -0.0695  0.2804
   86SAPS  H12A 8151   2.843   6.577  11.396 -1.2248 -1.2016 -1.7719
   86SAPS   C13 8152   3.022   6.544  11.501  0.5992 -0.8421 -0.5045
   86SAPS  O13A 8153   3.052   6.469  11.595  0.4859  0.0043  0.2976
   86SAPS  O13B 8154   3.059   6.668  11.507  0.0576 -0.2930  0.1846
   86SAPS   C11 8155   2.997   6.524  11.250 -0.1566  0.3494 -0.7989
   86SAPS  H11A 8156   3.040   6.425  11.222 -2.1157 -0.6366 -0.3627
   86SAPS  H11B 8157   3.076   6.602  11.249 -1.6900  1.9070 -1.8655
   86SAPS     P 8158   2.938   6.583  11.005 -0.3623  0.5888  0.0793
   86SAPS   O13 8159   2.834   6.667  10.945  0.3678  0.2923  0.6353
   86SAPS   O14 8160   3.078   6.623  10.991  0.0908  0.0694  0.2926
   86SAPS   O12 8161   2.898   6.570  11.155 -0.0886  0.0574 -0.0603
   86SAPS   O11 8162   2.914   6.433  10.954  0.1359  0.1821  0.0086
   86SAPS    C1 8163   3.011   6.330  10.936 -0.5042  0.7342 -0.1375
   86SAPS    HA 8164   3.098   6.347  11.004  1.4763  2.4820 -2.9853
   86SAPS    HB 8165   2.966   6.233  10.963 -2.8839  0.7825 -3.6250
   86SAPS    C2 8166   3.078   6.330  10.788  0.5444 -0.2369 -0.2931
   86SAPS    HS 8167   3.112   6.436  10.783 -1.7704  0.6135  0.9146
   86SAPS   O21 8168   2.979   6.292  10.686  0.0664 -0.1801 -0.4841
   86SAPS   C21 8169   2.935   6.396  10.610  0.1362 -0.1379 -0.2418
   86SAPS   O22 8170   2.958   6.513  10.617 -0.0462  0.2470  0.3218
   86SAPS   C22 8171   2.857   6.331  10.502  0.4550  0.8415  0.1552
   86SAPS   H2R 8172   2.906   6.233  10.488  0.9536  1.2839 -1.3248
   86SAPS   H2S 8173   2.755   6.303  10.535  0.8590 -1.0951 -0.2011
   86SAPS    C3 8174   3.194   6.235  10.784 -0.1918  0.1320  0.3511
   86SAPS    HX 8175   3.156   6.131  10.783 -1.2112  0.5003 -1.1996
   86SAPS    HY 8176   3.255   6.239  10.877 -1.1342 -3.9055  1.2390
   86SAPS   O31 8177   3.272   6.264  10.661 -0.9059 -0.5383 -0.2991
   86SAPS   C31 8178   3.343   6.163  10.619 -0.1490 -0.5942 -0.6645
   86SAPS   O32 8179   3.352   6.055  10.676  0.2897 -0.3853 -0.2889
   86SAPS   C32 8180   3.408   6.204  10.479  0.6059  0.4261  0.2821
   86SAPS   H2X 8181   3.473   6.122  10.439  2.0411  1.8267 -0.3171
   86SAPS   H2Y 8182   3.469   6.292  10.508  0.5349 -0.2200  2.5062
   86SAPS   C23 8183   2.849   6.415  10.371  0.4758  0.0221  1.0416
   86SAPS   H3R 8184   2.942   6.412  10.310 -0.6375 -1.1384 -0.6365
   86SAPS   H3S 8185   2.833   6.520  10.403  2.0048  0.2753  1.0185
   86SAPS   C24 8186   2.726   6.369  10.278 -0.5338 -0.1017  0.0030
   86SAPS   H4R 8187   2.631   6.384  10.334 -1.4453  0.2278 -1.6082
   86SAPS   H4S 8188   2.749   6.261  10.270 -2.3421 -0.5491  0.5805
   86SAPS   C25 8189   2.713   6.447  10.158 -0.5500 -0.5606  0.3227
   86SAPS   H5R 8190   2.674   6.548  10.179  1.1290 -0.0625  1.1072
   86SAPS   C26 8191   2.751   6.418  10.035 -0.6747  0.4353 -0.0164
   86SAPS   H6R 8192   2.737   6.498   9.961 -0.4468  3.0053  2.6370
   86SAPS   C27 8193   2.816   6.295   9.980  0.6218  0.1019 -0.1354
   86SAPS   H7R 8194   2.739   6.235   9.927  1.3824 -0.9939 -0.0125
   86SAPS   H7S 8195   2.843   6.233  10.068 -0.3215 -1.7907 -1.1542
   86SAPS   C28 8196   2.931   6.320   9.880 -0.0891 -0.7257 -0.9131
   86SAPS   H8R 8197   3.028   6.358   9.916 -1.1776  2.1659 -0.8604
   86SAPS   C29 8198   2.926   6.286   9.748  0.1319  0.1221 -0.3568
   86SAPS   H9R 8199   3.019   6.297   9.691  0.4156 -3.0947 -0.6366
   86SAPS  C210 8200   2.810   6.223   9.676 -0.1789  0.2496  0.0023
   86SAPS  H10R 8201   2.712   6.246   9.722  0.0739  1.8596 -0.2120
   86SAPS  H10S 8202   2.815   6.115   9.699 -1.0335  0.3920  0.8600
   86SAPS  C211 8203   2.796   6.228   9.525  0.0269  0.3194  0.1033
   86SAPS  H11R 8204   2.723   6.303   9.492 -1.1676 -1.0017 -0.3480
   86SAPS  C212 8205   2.852   6.151   9.425  0.2035  0.1371 -0.3223
   86SAPS  H12R 8206   2.816   6.185   9.326  1.6825  2.3650 -0.1099
   86SAPS  C213 8207   2.956   6.044   9.424 -0.1921  0.6469  0.5776
   86SAPS  H13R 8208   2.914   5.951   9.379  0.1218  0.8623 -0.1681
   86SAPS  H13S 8209   2.980   6.018   9.529  0.7404  1.7191  0.6311
   86SAPS  C214 8210   3.087   6.083   9.351 -0.1872 -0.5503 -0.6246
   86SAPS  H14R 8211   3.144   6.153   9.414 -1.1763  0.2644 -0.6132
   86SAPS  C215 8212   3.111   6.062   9.222  0.0674  0.2976  0.1362
   86SAPS  H15R 8213   3.207   6.098   9.182 -0.7547  4.1139  1.4028
   86SAPS  C216 8214   3.021   5.990   9.128 -0.4169  0.3729 -0.0929
   86SAPS  H16R 8215   2.914   5.988   9.157 -1.2805  1.1105 -3.0454
   86SAPS  H16S 8216   3.068   5.889   9.121  0.9862  1.1410 -2.6003
   86SAPS  C217 8217   3.023   6.052   8.985 -0.2817  0.4199  0.4146
   86SAPS  H17R 8218   3.129   6.055   8.951 -0.0712 -2.4233  0.7280
   86SAPS  H17S 8219   2.990   6.158   8.989 -0.3611  0.3586  1.3427
   86SAPS  C218 8220   2.927   5.969   8.896  0.6504  1.1866  0.5660
   86SAPS  H18R 8221   2.837   5.952   8.959 -1.8259 -2.3799 -3.6219
   86SAPS  H18S 8222   2.971   5.869   8.872  0.9162  1.8196 -1.6544
   86SAPS  C219 8223   2.878   6.034   8.760  0.0678 -0.2573  0.4840
   86SAPS  H19R 8224   2.822   6.125   8.788 -0.0624  0.2790 -1.4392
   86SAPS  H19S 8225   2.810   5.963   8.707 -2.0866  1.3637  0.9978
   86SAPS  C220 8226   2.984   6.079   8.660 -1.5009 -0.2146  0.2934
   86SAPS  H20R 8227   3.071   6.010   8.648  0.7682  2.3625  1.2271
   86SAPS  H20S 8228   3.025   6.172   8.705 -1.2330 -0.8648  1.4310
   86SAPS  H20T 8229   2.944   6.092   8.557  0.5632 -1.2897 -0.7032
   86SAPS   C33 8230   3.310   6.249  10.362 -0.4180 -0.6343 -0.2659
   86SAPS   H3X 8231   3.246   6.332  10.399  0.9831  0.0198  0.7433
   86SAPS   H3Y 8232   3.238   6.165  10.350 -0.2497 -0.4245 -2.9057
   86SAPS   C34 8233   3.379   6.291  10.230  0.0458 -0.3352  0.4655
   86SAPS   H4X 8234   3.469   6.229  10.210  0.1397  0.2196 -0.8731
   86SAPS   H4Y 8235   3.414   6.396  10.242  0.7105 -0.1447 -2.8014
   86SAPS   C35 8236   3.273   6.289  10.115 -0.4013 -0.2862 -1.0126
   86SAPS   H5X 8237   3.192   6.358  10.147 -1.2006 -1.4848 -0.4537
   86SAPS   H5Y 8238   3.236   6.185  10.107 -2.3548  0.3325 -0.3113
   86SAPS   C36 8239   3.324   6.337   9.972 -0.7451 -0.2101 -0.8957
   86SAPS   H6X 8240   3.396   6.420   9.989 -1.9994  0.3991  1.6949
   86SAPS   H6Y 8241   3.240   6.390   9.922 -0.2033  0.3440 -1.2204
   86SAPS   C37 8242   3.368   6.213   9.910 -0.7482  0.5471  0.5170
   86SAPS   H7X 8243   3.294   6.130   9.918  0.5141 -1.0007 -3.0636
   86SAPS   H7Y 8244   3.466   6.185   9.953 -0.5639 -0.6974 -0.6768
   86SAPS   C38 8245   3.398   6.232   9.764 -0.6399  0.1342  0.0409
   86SAPS   H8X 8246   3.465   6.319   9.745 -1.1785  0.9539  1.7702
   86SAPS   H8Y 8247   3.301   6.253   9.714  0.6157  0.5751 -2.2890
   86SAPS   C39 8248   3.455   6.114   9.693  0.1156  0.4314  1.0318
   86SAPS   H9X 8249   3.407   6.017   9.719  0.4164 -0.0613 -0.2130
   86SAPS   H9Y 8250   3.561   6.101   9.724  0.1148 -0.5752  0.6433
   86SAPS  C310 8251   3.454   6.141   9.545  0.3660 -0.5133 -0.4688
   86SAPS  H10X 8252   3.520   6.230   9.540  0.1267 -0.2127  1.3745
   86SAPS  H10Y 8253   3.354   6.181   9.520  0.3748 -0.0326  0.2411
   86SAPS  C311 8254   3.519   6.027   9.467  0.1957 -0.0308  0.0803
   86SAPS  H11X 8255   3.497   5.933   9.521 -1.0394 -0.6529 -1.4733
   86SAPS  H11Y 8256   3.630   6.025   9.479  0.4053  1.8370 -1.2530
   86SAPS  C312 8257   3.483   6.017   9.322  0.4690 -0.6278  0.2237
   86SAPS  H12X 8258   3.541   6.094   9.266  0.1272 -1.0017 -0.6561
   86SAPS  H12Y 8259   3.376   6.040   9.307  0.5359 -0.1153  0.5146
   86SAPS  C313 8260   3.514   5.870   9.259  0.2232 -0.0179 -0.5351
   86SAPS  H13X 8261   3.470   5.785   9.317 -1.2190  1.1067  0.0584
   86SAPS  H13Y 8262   3.623   5.859   9.245  0.0608  0.6622 -2.4301
   86SAPS  C314 8263   3.442   5.849   9.126  0.1246  0.0532 -0.5761
   86SAPS  H14X 8264   3.334   5.867   9.147  0.1743  0.2311 -0.4621
   86SAPS  H14Y 8265   3.444   5.747   9.084 -0.7985 -0.2092 -0.0210
   86SAPS  C315 8266   3.493   5.945   9.013 -0.3718  0.4642  0.4114
   86SAPS  H15X 8267   3.604   5.940   9.019 -0.4103  0.4396  1.2110
   86SAPS  H15Y 8268   3.453   6.046   9.038 -1.5691  0.3603 -1.0709
   86SAPS  C316 8269   3.453   5.916   8.865 -0.0151 -0.4711 -0.1372
   86SAPS  H16X 8270   3.508   5.994   8.808 -1.0830  2.3266  2.5357
   86SAPS  H16Y 8271   3.345   5.934   8.849  0.3709  0.9971 -1.1643
   86SAPS  C317 8272   3.498   5.777   8.821  1.0665 -0.1436  0.5818
   86SAPS  H17X 8273   3.446   5.758   8.725  0.2173 -2.7453  1.5022
   86SAPS  H17Y 8274   3.451   5.701   8.887  0.0398 -1.0296 -1.1440
   86SAPS  C318 8275   3.650   5.760   8.809  0.1056  0.4431 -0.2572
   86SAPS  H18X 8276   3.690   5.747   8.911 -0.8430 -1.2243 -0.0696
   86SAPS  H18Y 8277   3.698   5.835   8.743 -0.5190  0.4634 -0.6895
   86SAPS  H18Z 8278   3.661   5.658   8.767 -1.8869  0.3942 -0.7329
   87SAPS     N 8279   3.471   0.030  11.169 -0.4771 -0.2427  0.1934
   87SAPS   HN1 8280   3.429   0.113  11.122  1.2823  2.3724  2.9899
   87SAPS   HN2 8281   3.488  -0.033  11.089 -0.4584  0.4312 -0.3440
   87SAPS   HN3 8282   3.397  -0.009  11.231 -1.1976  0.2201 -0.3585
   87SAPS   C12 8283   3.599   0.071  11.235  0.4955  1.2372  0.7083
   87SAPS  H12A 8284   3.565   0.164  11.277  0.2040  2.0875 -1.3472
   87SAPS   C13 8285   3.642  -0.034  11.357  0.5618  0.0220  0.3977
   87SAPS  O13A 8286   3.575  -0.133  11.393  0.2191 -0.4132  0.7048
   87SAPS  O13B 8287   3.750  -0.004  11.413  0.1120  0.7599 -0.5016
   87SAPS   C11 8288   3.724   0.077  11.132  0.3520 -0.3121  0.0748
   87SAPS  H11A 8289   3.806   0.111  11.199  1.1007 -1.1116 -0.4189
   87SAPS  H11B 8290   3.706   0.158  11.058 -3.2970 -0.3353  0.8302
   87SAPS     P 8291   3.681  -0.114  10.947 -0.0048  0.0795 -0.1757
   87SAPS   O13 8292   3.739  -0.250  10.917 -0.3673 -0.4437  0.1945
   87SAPS   O14 8293   3.536  -0.111  10.966 -0.8407 -0.0039  0.1252
   87SAPS   O12 8294   3.755  -0.051  11.071  0.6038 -0.0161 -0.2335
   87SAPS   O11 8295   3.718  -0.010  10.830  0.3355 -0.1910 -0.3855
   87SAPS    C1 8296   3.843   0.057  10.816 -0.8145  0.0345 -0.0552
   87SAPS    HA 8297   3.822   0.163  10.841 -1.5797  0.0080 -0.5797
   87SAPS    HB 8298   3.915   0.017  10.891  1.5245  2.0289 -1.1524
   87SAPS    C2 8299   3.887   0.050  10.674 -0.1036 -0.4774 -0.0881
   87SAPS    HS 8300   3.824   0.108  10.603 -0.1920  0.4717  0.7448
   87SAPS   O21 8301   3.900  -0.093  10.645 -0.0551 -0.0162 -1.0698
   87SAPS   C21 8302   3.802  -0.128  10.558 -0.0887  0.1082  0.1135
   87SAPS   O22 8303   3.710  -0.057  10.513  0.1934 -0.3252 -0.2672
   87SAPS   C22 8304   3.820  -0.275  10.527 -0.6035  0.1472 -0.5043
   87SAPS   H2R 8305   3.928  -0.302  10.518 -1.4506 -2.9354 -2.1142
   87SAPS   H2S 8306   3.791  -0.351  10.603  1.7071  0.2783  0.5439
   87SAPS    C3 8307   4.021   0.122  10.652 -0.4366  0.0828 -0.6249
   87SAPS    HX 8308   4.063   0.100  10.551  1.4728 -0.6111  0.2963
   87SAPS    HY 8309   4.096   0.082  10.724 -0.9599 -1.5749 -0.9719
   87SAPS   O31 8310   4.006   0.262  10.670  0.2257  0.3155  0.1981
   87SAPS   C31 8311   3.997   0.343  10.563 -0.3970  0.0902 -0.2161
   87SAPS   O32 8312   3.981   0.310  10.448  0.2779 -0.2541 -0.0910
   87SAPS   C32 8313   3.999   0.491  10.606 -0.1822  0.5710 -0.5101
   87SAPS   H2X 8314   4.093   0.504  10.663  0.3265 -2.2491 -0.6154
   87SAPS   H2Y 8315   3.902   0.512  10.656 -0.8982 -1.7579 -0.8585
   87SAPS   C23 8316   3.765  -0.319  10.395  0.5112 -0.1507 -0.2643
   87SAPS   H3R 8317   3.663  -0.275  10.393 -0.1420 -1.6691 -0.8593
   87SAPS   H3S 8318   3.762  -0.428  10.413  1.9925  0.2968  3.2391
   87SAPS   C24 8319   3.855  -0.281  10.276  0.0216 -0.3076  0.8383
   87SAPS   H4R 8320   3.930  -0.205  10.304 -2.2953  2.5380 -0.3607
   87SAPS   H4S 8321   3.789  -0.230  10.202  0.5290  0.6001  1.0041
   87SAPS   C25 8322   3.914  -0.397  10.206 -0.0984  0.0186  0.2605
   87SAPS   H5R 8323   3.990  -0.456  10.259  1.2274  0.6746 -0.8789
   87SAPS   C26 8324   3.866  -0.449  10.085 -0.6750  0.9242 -0.5100
   87SAPS   H6R 8325   3.920  -0.536  10.046 -0.0805  1.5370 -1.0581
   87SAPS   C27 8326   3.752  -0.396  10.001  0.0868  0.2247  0.3192
   87SAPS   H7R 8327   3.783  -0.297   9.961 -0.1254  0.2859  0.3029
   87SAPS   H7S 8328   3.657  -0.385  10.058 -2.3185 -1.6080 -3.1456
   87SAPS   C28 8329   3.738  -0.492   9.883 -0.7983  0.4156  0.6508
   87SAPS   H8R 8330   3.685  -0.584   9.913  1.0596 -0.5910  0.9201
   87SAPS   C29 8331   3.767  -0.471   9.753 -0.6611  0.1173 -0.5489
   87SAPS   H9R 8332   3.766  -0.564   9.693  0.8293 -0.8793  0.9262
   87SAPS  C210 8333   3.836  -0.341   9.700  1.0642  0.0214 -0.1484
   87SAPS  H10R 8334   3.810  -0.254   9.763 -1.5992 -2.9749  3.1215
   87SAPS  H10S 8335   3.797  -0.317   9.599  0.1870 -1.0450 -0.0806
   87SAPS  C211 8336   3.988  -0.360   9.692  0.2666  0.1313 -0.2585
   87SAPS  H11R 8337   4.041  -0.396   9.781  1.0281 -0.8427 -1.0849
   87SAPS  C212 8338   4.063  -0.372   9.577  0.1707 -0.1925  0.6817
   87SAPS  H12R 8339   4.172  -0.392   9.579  0.1453 -1.0355 -3.0733
   87SAPS  C213 8340   4.010  -0.369   9.439 -0.4547 -0.8514  0.0961
   87SAPS  H13R 8341   4.095  -0.374   9.368 -1.8306 -1.4503 -1.5396
   87SAPS  H13S 8342   3.960  -0.274   9.414 -1.0100 -1.4727 -1.2032
   87SAPS  C214 8343   3.912  -0.485   9.413  0.5008  0.0331 -0.2075
   87SAPS  H14R 8344   3.869  -0.526   9.506  1.0831 -0.6992 -0.2518
   87SAPS  C215 8345   3.907  -0.548   9.293  0.2910 -0.4296 -0.1353
   87SAPS  H15R 8346   3.826  -0.622   9.283  1.4705 -1.9505  1.2898
   87SAPS  C216 8347   3.976  -0.515   9.161  0.9161  0.7341  0.0472
   87SAPS  H16R 8348   4.029  -0.606   9.126  0.9585  0.8924 -0.3019
   87SAPS  H16S 8349   4.054  -0.437   9.175  1.3390  0.3347 -0.0500
   87SAPS  C217 8350   3.866  -0.488   9.052  0.7041  0.2418  0.1663
   87SAPS  H17R 8351   3.794  -0.411   9.088 -1.4880 -0.0800 -3.2972
   87SAPS  H17S 8352   3.817  -0.587   9.041  1.8358 -0.1021 -1.9468
   87SAPS  C218 8353   3.914  -0.457   8.910 -0.0968 -0.1792 -1.1429
   87SAPS  H18R 8354   3.979  -0.543   8.884 -1.8689 -0.9412 -3.2329
   87SAPS  H18S 8355   3.969  -0.360   8.914  0.0122 -0.2864  0.2717
   87SAPS  C219 8356   3.803  -0.445   8.806  0.2567  0.2563  0.3893
   87SAPS  H19R 8357   3.843  -0.383   8.723  1.3077 -0.4326  0.3664
   87SAPS  H19S 8358   3.714  -0.405   8.858  1.1931 -0.1511  2.3741
   87SAPS  C220 8359   3.768  -0.579   8.749  0.1502 -0.1094  0.2988
   87SAPS  H20R 8360   3.858  -0.643   8.743  0.6660  0.6916 -0.5721
   87SAPS  H20S 8361   3.722  -0.561   8.649  2.1526 -0.3191 -0.6833
   87SAPS  H20T 8362   3.702  -0.627   8.824 -0.0352 -0.1207  0.1295
   87SAPS   C33 8363   4.014   0.581  10.484 -0.3881 -0.6472 -0.5137
   87SAPS   H3X 8364   4.083   0.529  10.414 -0.7091 -1.3432 -0.3159
   87SAPS   H3Y 8365   4.044   0.684  10.515 -0.2355 -0.3799 -1.5121
   87SAPS   C34 8366   3.877   0.600  10.421  0.4088 -0.1919  0.7648
   87SAPS   H4X 8367   3.820   0.660  10.495  2.3276  1.0299  1.2644
   87SAPS   H4Y 8368   3.825   0.503  10.402 -0.5896  0.8544 -2.0362
   87SAPS   C35 8369   3.887   0.680  10.288 -0.1561 -0.1305 -0.2915
   87SAPS   H5X 8370   3.953   0.769  10.293  2.7747 -2.3392  2.1062
   87SAPS   H5Y 8371   3.786   0.724  10.270 -0.0756 -1.1000 -3.4009
   87SAPS   C36 8372   3.915   0.588  10.176 -0.3640 -0.2640  0.0050
   87SAPS   H6X 8373   3.851   0.497  10.180  2.0235 -2.0074 -0.2074
   87SAPS   H6Y 8374   4.017   0.561  10.212 -1.0944  0.4365  2.6598
   87SAPS   C37 8375   3.891   0.659  10.042  0.2087 -0.6518  0.3372
   87SAPS   H7X 8376   3.987   0.714  10.027 -0.4819  0.1808 -1.2423
   87SAPS   H7Y 8377   3.805   0.730  10.042 -0.0333 -0.8584 -3.4224
   87SAPS   C38 8378   3.851   0.560   9.934 -0.4518 -0.1531 -0.6565
   87SAPS   H8X 8379   3.751   0.521   9.964  1.3916 -3.0029  2.0323
   87SAPS   H8Y 8380   3.916   0.470   9.926  0.5021  0.3609  1.0531
   87SAPS   C39 8381   3.815   0.612   9.791 -0.0639 -0.3330  0.6667
   87SAPS   H9X 8382   3.904   0.662   9.745 -1.9310  1.0264 -1.6046
   87SAPS   H9Y 8383   3.739   0.693   9.797  0.5497  0.4707 -1.6353
   87SAPS  C310 8384   3.761   0.506   9.694 -0.1842 -0.2074  0.4834
   87SAPS  H10X 8385   3.666   0.458   9.726 -1.5830  0.6364 -2.2877
   87SAPS  H10Y 8386   3.838   0.429   9.672 -0.1268 -0.0343  0.0750
   87SAPS  C311 8387   3.751   0.575   9.556 -0.1971 -0.3945  0.5603
   87SAPS  H11X 8388   3.851   0.610   9.524 -1.0489  0.1509 -1.6086
   87SAPS  H11Y 8389   3.681   0.661   9.563 -0.8421 -0.8280 -0.3513
   87SAPS  C312 8390   3.705   0.489   9.440 -0.2373  0.0801 -0.8646
   87SAPS  H12X 8391   3.594   0.482   9.443 -0.1452 -1.2028  1.1850
   87SAPS  H12Y 8392   3.748   0.387   9.446  2.1830  1.0832 -0.8108
   87SAPS  C313 8393   3.737   0.549   9.305  0.0391  0.0770 -0.3376
   87SAPS  H13X 8394   3.840   0.591   9.306 -0.0347  0.2534 -0.0104
   87SAPS  H13Y 8395   3.668   0.633   9.285 -0.8289 -0.4694  0.3088
   87SAPS  C314 8396   3.747   0.450   9.183 -0.2208  0.6643 -1.5374
   87SAPS  H14X 8397   3.782   0.350   9.214  0.7411  1.1523 -1.0336
   87SAPS  H14Y 8398   3.815   0.488   9.103 -0.3119  0.2622 -1.8066
   87SAPS  C315 8399   3.600   0.438   9.118  0.6962  0.0805  0.0299
   87SAPS  H15X 8400   3.523   0.431   9.197  0.4531 -1.5870 -0.3485
   87SAPS  H15Y 8401   3.601   0.341   9.065 -0.8649  0.0902 -0.0234
   87SAPS  C316 8402   3.561   0.565   9.026  0.1033 -0.1570 -0.0349
   87SAPS  H16X 8403   3.594   0.654   9.083 -0.7364 -0.8216  1.5437
   87SAPS  H16Y 8404   3.452   0.581   9.013 -0.2221 -2.0944  0.0870
   87SAPS  C317 8405   3.625   0.558   8.889 -0.1175 -0.5161 -0.1854
   87SAPS  H17X 8406   3.734   0.575   8.902 -0.6815  0.8363  3.4117
   87SAPS  H17Y 8407   3.588   0.637   8.820 -2.2665 -0.7838  0.6055
   87SAPS  C318 8408   3.610   0.426   8.814  0.4178  0.6197 -0.3013
   87SAPS  H18X 8409   3.510   0.380   8.831  0.7258  0.1014  0.0982
   87SAPS  H18Y 8410   3.692   0.363   8.854  0.0490  0.4002  0.1252
   87SAPS  H18Z 8411   3.620   0.431   8.704 -1.0947 -0.2576 -0.5072
   88SAPS     N 8412   5.614   5.676  10.853 -0.2046  0.4492  0.3456
   88SAPS   HN1 8413   5.533   5.691  10.917 -1.0656 -3.1785  0.2356
   88SAPS   HN2 8414   5.684   5.646  10.924 -2.2054 -0.7037  1.9139
   88SAPS   HN3 8415   5.626   5.765  10.802  1.4002 -0.7903 -1.4889
   88SAPS   C12 8416   5.601   5.554  10.767 -0.3070  0.4436  1.1908
   88SAPS  H12A 8417   5.590   5.473  10.838 -1.8972  1.2036  1.8322
   88SAPS   C13 8418   5.474   5.569  10.678  0.0300 -0.0463  0.3422
   88SAPS  O13A 8419   5.404   5.672  10.676 -0.2008  0.4841  0.1673
   88SAPS  O13B 8420   5.468   5.490  10.579  0.2808 -0.1099  0.0876
   88SAPS   C11 8421   5.723   5.547  10.661  0.4495 -0.0374  0.3551
   88SAPS  H11A 8422   5.715   5.635  10.593 -2.6646 -0.9660 -0.5690
   88SAPS  H11B 8423   5.705   5.456  10.600  0.0484  1.1997 -1.4067
   88SAPS     P 8424   5.907   5.394  10.769  0.0164 -0.0456  0.0192
   88SAPS   O13 8425   6.019   5.397  10.861  0.5200 -0.3058  0.2947
   88SAPS   O14 8426   5.794   5.315  10.816  0.7958  0.6706 -0.7942
   88SAPS   O12 8427   5.846   5.540  10.738  0.1212 -0.3046 -0.0314
   88SAPS   O11 8428   5.958   5.331  10.638  0.4840 -0.6553  0.6184
   88SAPS    C1 8429   6.065   5.374  10.561 -0.6091 -0.1735 -0.5218
   88SAPS    HA 8430   6.144   5.411  10.629 -2.1505 -0.3107  1.3695
   88SAPS    HB 8431   6.102   5.291  10.497  0.1831  0.6863 -1.2003
   88SAPS    C2 8432   6.025   5.485  10.458 -0.9292 -0.0018 -0.2991
   88SAPS    HS 8433   5.977   5.561  10.523 -0.5092  1.7108 -1.9410
   88SAPS   O21 8434   5.941   5.421  10.367  0.0507  0.6688 -0.1183
   88SAPS   C21 8435   5.851   5.506  10.316 -0.2006 -0.4669 -0.3232
   88SAPS   O22 8436   5.844   5.626  10.338 -0.2048 -0.4431 -0.0874
   88SAPS   C22 8437   5.739   5.429  10.242 -0.2680  0.2240 -0.8544
   88SAPS   H2R 8438   5.784   5.332  10.213  1.9030  0.8950  0.1934
   88SAPS   H2S 8439   5.657   5.412  10.316 -0.0537 -1.5486 -1.0053
   88SAPS    C3 8440   6.144   5.551  10.386  0.0145 -0.2306 -0.1325
   88SAPS    HX 8441   6.194   5.610  10.465  0.0714 -1.5550  0.8351
   88SAPS    HY 8442   6.111   5.630  10.315  1.9764  0.5073 -0.2549
   88SAPS   O31 8443   6.226   5.448  10.322 -0.3285 -0.1655 -0.3578
   88SAPS   C31 8444   6.362   5.452  10.343 -0.3699  0.1330  0.4007
   88SAPS   O32 8445   6.421   5.541  10.399  0.0603  0.9685 -0.2266
   88SAPS   C32 8446   6.421   5.337  10.264  0.0327 -0.3208  0.2344
   88SAPS   H2X 8447   6.343   5.258  10.264  1.3052 -1.6261 -1.8511
   88SAPS   H2Y 8448   6.510   5.301  10.319  0.3354 -0.9079 -0.6245
   88SAPS   C23 8449   5.670   5.494  10.127 -0.2195  0.6494 -0.0981
   88SAPS   H3R 8450   5.630   5.597  10.143 -1.1542  0.3988 -0.7752
   88SAPS   H3S 8451   5.583   5.434  10.094  1.3084 -1.6712 -0.0432
   88SAPS   C24 8452   5.770   5.531  10.010 -0.0714 -0.1627 -0.6547
   88SAPS   H4R 8453   5.857   5.584  10.054 -0.5860 -1.1489  1.6319
   88SAPS   H4S 8454   5.711   5.590   9.937 -1.0467 -1.1012 -0.6378
   88SAPS   C25 8455   5.823   5.400   9.953  0.3160 -0.3156  0.3649
   88SAPS   H5R 8456   5.871   5.334  10.027  3.3923  0.6639 -0.6991
   88SAPS   C26 8457   5.798   5.349   9.829  0.6661  0.0095  0.0201
   88SAPS   H6R 8458   5.840   5.253   9.795  0.2143 -0.6167  1.2137
   88SAPS   C27 8459   5.717   5.418   9.731  0.6959 -0.2888 -0.8042
   88SAPS   H7R 8460   5.637   5.477   9.780  0.2941 -2.0328  0.7254
   88SAPS   H7S 8461   5.665   5.345   9.665  0.0466 -1.8535  1.3978
   88SAPS   C28 8462   5.793   5.513   9.642 -0.1141 -0.3549 -0.2798
   88SAPS   H8R 8463   5.842   5.601   9.686 -0.2556 -0.6947  0.5788
   88SAPS   C29 8464   5.789   5.516   9.505  0.1405 -0.1743  0.2395
   88SAPS   H9R 8465   5.845   5.598   9.457  0.4448 -1.6163 -1.9547
   88SAPS  C210 8466   5.707   5.432   9.406 -0.6548  0.0391  0.9925
   88SAPS  H10R 8467   5.651   5.499   9.338  0.2973  2.2981  2.3753
   88SAPS  H10S 8468   5.629   5.380   9.467 -1.6150  0.2492 -0.0351
   88SAPS  C211 8469   5.805   5.334   9.347 -0.2164 -0.1395 -0.6466
   88SAPS  H11R 8470   5.830   5.253   9.416 -0.3988  2.6172  2.7939
   88SAPS  C212 8471   5.852   5.336   9.225  0.2736 -0.0341  0.1551
   88SAPS  H12R 8472   5.934   5.269   9.195  0.9058  0.8467 -0.1455
   88SAPS  C213 8473   5.825   5.440   9.117 -0.5576  0.9199 -0.4033
   88SAPS  H13R 8474   5.926   5.486   9.112 -0.2198  0.0569 -1.7822
   88SAPS  H13S 8475   5.749   5.510   9.157 -0.0465  0.4542  1.4726
   88SAPS  C214 8476   5.786   5.366   8.990 -0.3775 -0.9918  0.0278
   88SAPS  H14R 8477   5.853   5.285   8.958 -1.8901 -2.7629  1.3038
   88SAPS  C215 8478   5.671   5.387   8.920 -0.0322 -0.5499 -0.5467
   88SAPS  H15R 8479   5.669   5.329   8.826  1.4689  0.2771 -1.0975
   88SAPS  C216 8480   5.568   5.492   8.950  0.4308 -0.3308  0.0466
   88SAPS  H16R 8481   5.570   5.512   9.059 -1.6514 -0.8918  0.2137
   88SAPS  H16S 8482   5.467   5.450   8.931 -0.6044  0.7207  2.9201
   88SAPS  C217 8483   5.589   5.621   8.862 -0.1666  0.0872  0.4096
   88SAPS  H17R 8484   5.604   5.604   8.754 -0.5325 -2.0910  0.6869
   88SAPS  H17S 8485   5.682   5.672   8.895  0.3469 -0.7155  0.2079
   88SAPS  C218 8486   5.475   5.721   8.874  0.6881 -0.6031 -0.1638
   88SAPS  H18R 8487   5.471   5.768   8.975  1.0345  0.9007 -0.8295
   88SAPS  H18S 8488   5.380   5.671   8.846  0.6548 -1.4142  1.3659
   88SAPS  C219 8489   5.479   5.841   8.775  0.6767  0.0860 -0.6701
   88SAPS  H19R 8490   5.466   5.796   8.674  0.4212 -1.8755  0.2217
   88SAPS  H19S 8491   5.576   5.895   8.775 -0.1041  1.5821 -2.9142
   88SAPS  C220 8492   5.362   5.943   8.803 -0.0175 -0.2025 -0.3377
   88SAPS  H20R 8493   5.266   5.891   8.786  0.0219  0.6747 -3.4269
   88SAPS  H20S 8494   5.372   6.027   8.732  2.8186 -1.9316 -2.0832
   88SAPS  H20T 8495   5.368   5.977   8.909 -0.6945  1.7774 -0.9131
   88SAPS   C33 8496   6.451   5.368  10.114 -0.4666 -0.4917  0.4815
   88SAPS   H3X 8497   6.540   5.433  10.124 -1.5982  1.3216 -0.9638
   88SAPS   H3Y 8498   6.364   5.422  10.071  0.3281 -0.5707 -1.2598
   88SAPS   C34 8499   6.459   5.235  10.024 -0.1655 -0.4084  0.1814
   88SAPS   H4X 8500   6.362   5.181  10.021  0.0633 -0.7728 -0.7173
   88SAPS   H4Y 8501   6.530   5.170  10.080  1.3292  0.1084 -1.0687
   88SAPS   C35 8502   6.506   5.251   9.881 -0.1059 -0.5073 -0.4313
   88SAPS   H5X 8503   6.611   5.288   9.884  0.1363 -1.2797  1.1521
   88SAPS   H5Y 8504   6.454   5.332   9.827  3.0242  0.9559 -1.3160
   88SAPS   C36 8505   6.507   5.124   9.795  0.7151  0.1841 -0.1975
   88SAPS   H6X 8506   6.406   5.078   9.787 -0.2683  1.4672  3.5896
   88SAPS   H6Y 8507   6.571   5.046   9.841  0.6858 -0.6336 -1.5450
   88SAPS   C37 8508   6.548   5.154   9.653  0.2953 -0.0030  0.1678
   88SAPS   H7X 8509   6.647   5.203   9.664 -0.5970  2.1763 -1.0195
   88SAPS   H7Y 8510   6.467   5.214   9.606  0.8602  1.4247  0.9783
   88SAPS   C38 8511   6.569   5.028   9.576 -0.3384 -0.2617  0.1788
   88SAPS   H8X 8512   6.612   4.949   9.640  0.4912 -0.8371 -1.0663
   88SAPS   H8Y 8513   6.645   5.040   9.495 -1.6718  1.8787 -0.8145
   88SAPS   C39 8514   6.433   4.983   9.514 -0.3076  0.1010 -0.0143
   88SAPS   H9X 8515   6.404   5.072   9.454  0.3719 -0.5281 -1.2930
   88SAPS   H9Y 8516   6.360   4.970   9.597 -1.3333 -0.3848 -0.9803
   88SAPS  C310 8517   6.457   4.864   9.415 -0.0077  0.4508 -0.5748
   88SAPS  H10X 8518   6.362   4.822   9.376 -0.4146  3.5446 -3.0540
   88SAPS  H10Y 8519   6.527   4.786   9.453  0.3220  0.0151 -2.0549
   88SAPS  C311 8520   6.516   4.916   9.289 -0.6835 -0.2051  0.2563
   88SAPS  H11X 8521   6.618   4.951   9.316 -0.5198 -0.7220  0.3218
   88SAPS  H11Y 8522   6.456   4.999   9.247  1.0384  1.2072  0.5373
   88SAPS  C312 8523   6.529   4.803   9.176 -0.6047  0.4273 -0.4416
   88SAPS  H12X 8524   6.424   4.789   9.143 -0.4079  2.8071 -2.2575
   88SAPS  H12Y 8525   6.564   4.708   9.222 -5.3513 -0.5857  1.4449
   88SAPS  C313 8526   6.617   4.829   9.060  0.0421  0.0120  0.3793
   88SAPS  H13X 8527   6.589   4.925   9.012  0.0019 -1.1161 -1.9149
   88SAPS  H13Y 8528   6.597   4.751   8.984  1.2954 -0.6361  0.7063
   88SAPS  C314 8529   6.771   4.831   9.090  0.5866  0.0456  0.7283
   88SAPS  H14X 8530   6.796   4.728   9.126  2.0042  0.6696  1.6026
   88SAPS  H14Y 8531   6.800   4.893   9.178 -0.2545  0.6649  0.5678
   88SAPS  C315 8532   6.862   4.849   8.964 -0.6356 -0.8005  0.0807
   88SAPS  H15X 8533   6.818   4.794   8.879 -1.2934 -0.5406  0.2544
   88SAPS  H15Y 8534   6.967   4.814   8.979 -1.4975 -3.3764  0.2935
   88SAPS  C316 8535   6.895   4.998   8.941  0.0248  0.4462 -0.1387
   88SAPS  H16X 8536   6.910   5.049   9.038 -0.3200 -0.8749  0.6358
   88SAPS  H16Y 8537   6.804   5.040   8.893  0.6081  1.7317 -0.1246
   88SAPS  C317 8538   7.016   5.025   8.852 -0.6923  0.0788  0.2950
   88SAPS  H17X 8539   6.998   4.979   8.752 -1.7847  2.1728 -0.5030
   88SAPS  H17Y 8540   7.102   4.978   8.904  0.5260  0.6188 -1.2196
   88SAPS  C318 8541   7.044   5.172   8.827 -0.3692 -0.5509 -0.0522
   88SAPS  H18X 8542   7.138   5.184   8.769 -0.2857  0.5354  0.2788
   88SAPS  H18Y 8543   7.054   5.217   8.929  1.8775  0.6995 -0.7999
   88SAPS  H18Z 8544   6.964   5.233   8.781 -0.8560 -0.0840  1.3815
   89SAPS     N 8545   5.505   0.859  10.638 -0.3769  0.1358 -0.4961
   89SAPS   HN1 8546   5.468   0.800  10.716  0.9849 -0.6061 -0.3913
   89SAPS   HN2 8547   5.439   0.938  10.652 -0.4947 -0.4917  3.0855
   89SAPS   HN3 8548   5.481   0.814  10.547 -0.0132  0.9317 -0.9882
   89SAPS   C12 8549   5.650   0.892  10.656  0.3954  0.0320  0.2422
   89SAPS  H12A 8550   5.660   0.959  10.740  1.2415 -1.5444  1.4356
   89SAPS   C13 8551   5.758   0.774  10.680 -0.5343  0.3963  0.5287
   89SAPS  O13A 8552   5.705   0.662  10.697 -0.7628 -0.0311  0.0757
   89SAPS  O13B 8553   5.874   0.806  10.714 -0.2544 -0.0420  0.1669
   89SAPS   C11 8554   5.698   0.972  10.531  0.6346 -0.4467 -0.5745
   89SAPS  H11A 8555   5.681   0.909  10.441  2.5965 -1.0409 -0.5576
   89SAPS  H11B 8556   5.807   0.994  10.531  0.6294 -0.3098  1.4424
   89SAPS     P 8557   5.687   1.234  10.543 -0.0083 -0.1612  0.0192
   89SAPS   O13 8558   5.607   1.335  10.470 -0.0075  0.2213 -0.2086
   89SAPS   O14 8559   5.690   1.259  10.692 -0.3077 -0.5181  0.6268
   89SAPS   O12 8560   5.623   1.093  10.509 -0.1224 -0.1277 -0.2256
   89SAPS   O11 8561   5.834   1.232  10.487  0.4011 -0.0558 -0.5179
   89SAPS    C1 8562   5.859   1.217  10.346 -0.1553  0.7422 -0.8954
   89SAPS    HA 8563   5.956   1.162  10.338 -0.6018 -0.3575  1.0130
   89SAPS    HB 8564   5.783   1.151  10.301  0.0743  0.2683 -0.5853
   89SAPS    C2 8565   5.868   1.348  10.268 -0.5377 -0.2420  0.5682
   89SAPS    HS 8566   5.771   1.402  10.275 -0.4829 -0.0271 -0.2690
   89SAPS   O21 8567   5.908   1.317  10.134 -0.5844  0.4231 -0.2990
   89SAPS   C21 8568   5.808   1.280  10.060  0.1219  0.5546  0.5225
   89SAPS   O22 8569   5.692   1.277  10.093 -0.6016 -0.0945 -0.2411
   89SAPS   C22 8570   5.866   1.229   9.927 -0.0311 -0.4371  0.8019
   89SAPS   H2R 8571   5.790   1.209   9.849  1.1435 -0.4397 -0.3425
   89SAPS   H2S 8572   5.939   1.302   9.885  0.7920 -1.4817  0.4208
   89SAPS    C3 8573   5.966   1.444  10.324 -0.1277 -0.1404 -0.6529
   89SAPS    HX 8574   6.066   1.396  10.325 -0.6953 -1.3266  0.2104
   89SAPS    HY 8575   5.948   1.461  10.432  0.0667 -0.3290 -0.5916
   89SAPS   O31 8576   5.973   1.562  10.247  0.7463 -0.1896  0.2770
   89SAPS   C31 8577   6.082   1.637  10.265 -1.0219 -0.3280 -0.3092
   89SAPS   O32 8578   6.180   1.608  10.328 -0.0573  0.4167 -0.6080
   89SAPS   C32 8579   6.062   1.773  10.190  0.0057  0.5587 -0.0311
   89SAPS   H2X 8580   6.110   1.851  10.253  1.7553 -1.0696  0.6836
   89SAPS   H2Y 8581   5.954   1.795  10.178 -0.0955  0.8184  1.2887
   89SAPS   C23 8582   5.943   1.095   9.950 -0.4245  0.3600 -0.2761
   89SAPS   H3R 8583   5.884   1.040  10.027 -0.3646  0.3052 -0.2709
   89SAPS   H3S 8584   6.042   1.119   9.995 -1.5127 -0.2701  2.5827
   89SAPS   C24 8585   5.953   1.013   9.824 -0.6048  0.1258  0.0119
   89SAPS   H4R 8586   5.849   1.005   9.786 -0.3767  0.9910 -0.7976
   89SAPS   H4S 8587   5.970   0.906   9.850 -2.3402 -0.8809 -2.7888
   89SAPS   C25 8588   6.042   1.054   9.712 -0.0592 -0.2611 -0.1466
   89SAPS   H5R 8589   6.151   1.042   9.724 -0.2497 -0.8866  1.0068
   89SAPS   C26 8590   5.997   1.117   9.600  0.7699  0.5203  0.3715
   89SAPS   H6R 8591   6.080   1.148   9.534  1.8106 -0.7205  1.0759
   89SAPS   C27 8592   5.855   1.160   9.550  0.0657  0.9820 -0.1201
   89SAPS   H7R 8593   5.832   1.268   9.560 -0.5119  1.0315 -1.8126
   89SAPS   H7S 8594   5.782   1.133   9.629 -0.4861  1.2326 -0.5460
   89SAPS   C28 8595   5.804   1.107   9.425 -0.0442  0.2229 -0.7731
   89SAPS   H8R 8596   5.843   1.006   9.406 -0.5231  0.0730 -0.9618
   89SAPS   C29 8597   5.709   1.163   9.343 -0.0492  0.1704 -0.1372
   89SAPS   H9R 8598   5.676   1.108   9.254 -2.5122 -0.4626  1.1337
   89SAPS  C210 8599   5.650   1.301   9.360 -0.5427 -0.6882  1.0090
   89SAPS  H10R 8600   5.647   1.329   9.468 -2.0042  1.4816  0.4280
   89SAPS  H10S 8601   5.542   1.299   9.337 -0.5375  1.2784  0.7393
   89SAPS  C211 8602   5.714   1.424   9.301 -0.0780 -0.4306 -0.7804
   89SAPS  H11R 8603   5.802   1.457   9.357 -1.6317  2.2293  0.1708
   89SAPS  C212 8604   5.675   1.489   9.193 -0.2418  0.6832 -0.2395
   89SAPS  H12R 8605   5.746   1.563   9.152 -0.5736 -0.1936 -2.4968
   89SAPS  C213 8606   5.564   1.465   9.095 -0.4169  0.6537 -0.5423
   89SAPS  H13R 8607   5.579   1.530   9.007 -2.0955 -0.3020 -1.5722
   89SAPS  H13S 8608   5.466   1.494   9.140 -1.9879 -1.2895 -2.5315
   89SAPS  C214 8609   5.536   1.318   9.062 -0.8362  0.0749 -1.1526
   89SAPS  H14R 8610   5.507   1.255   9.147 -2.5873  1.1973 -0.9109
   89SAPS  C215 8611   5.525   1.264   8.938  0.0602  0.2222  0.0990
   89SAPS  H15R 8612   5.508   1.156   8.930  1.3948 -0.1528  1.9601
   89SAPS  C216 8613   5.545   1.325   8.804 -0.1084  0.8202 -0.0675
   89SAPS  H16R 8614   5.571   1.432   8.819 -0.7424  0.8321  1.0576
   89SAPS  H16S 8615   5.460   1.338   8.735 -0.2423 -1.0206 -0.2737
   89SAPS  C217 8616   5.671   1.246   8.743 -0.0297  0.6688 -0.2750
   89SAPS  H17R 8617   5.675   1.138   8.770 -0.6444  0.6475 -0.2592
   89SAPS  H17S 8618   5.771   1.277   8.781  0.0544  0.8295 -0.6277
   89SAPS  C218 8619   5.672   1.268   8.590 -0.2695 -0.1287  0.0564
   89SAPS  H18R 8620   5.774   1.252   8.550 -0.5867  0.1723 -0.8903
   89SAPS  H18S 8621   5.640   1.372   8.569  1.0854 -0.0956 -1.9884
   89SAPS  C219 8622   5.578   1.178   8.509  0.4237  0.2796 -1.0048
   89SAPS  H19R 8623   5.480   1.194   8.558  0.9530  0.9242 -0.1368
   89SAPS  H19S 8624   5.602   1.071   8.526  1.6832  0.7147  0.1191
   89SAPS  C220 8625   5.582   1.227   8.360 -0.4055  0.2039 -0.3747
   89SAPS  H20R 8626   5.500   1.171   8.310 -0.6966 -0.1656  0.5119
   89SAPS  H20S 8627   5.685   1.205   8.324 -0.2344 -1.7759  1.2476
   89SAPS  H20T 8628   5.556   1.335   8.352  0.8082  0.6146  1.0281
   89SAPS   C33 8629   6.139   1.783  10.059 -0.4302  0.3401  0.1173
   89SAPS   H3X 8630   6.116   1.701   9.987 -0.7444 -0.5559  1.2273
   89SAPS   H3Y 8631   6.249   1.772  10.074  0.0268  1.1994 -2.4612
   89SAPS   C34 8632   6.118   1.915   9.978  1.3698 -0.4470 -0.6392
   89SAPS   H4X 8633   6.168   2.000  10.029  0.8471  0.5056 -1.7185
   89SAPS   H4Y 8634   6.008   1.929   9.977  1.2516 -1.2819 -0.2697
   89SAPS   C35 8635   6.164   1.911   9.830 -1.1474  0.4060 -0.1430
   89SAPS   H5X 8636   6.144   1.814   9.779  0.3343  0.2549 -0.4372
   89SAPS   H5Y 8637   6.273   1.928   9.819 -1.2312  1.1411  0.1508
   89SAPS   C36 8638   6.090   2.026   9.752  0.0863 -1.0662  0.1185
   89SAPS   H6X 8639   6.092   2.114   9.819 -1.7290 -1.4854  0.7500
   89SAPS   H6Y 8640   5.985   1.994   9.736  0.5219 -2.8553  0.6204
   89SAPS   C37 8641   6.161   2.053   9.618  0.5035 -0.0144  0.5189
   89SAPS   H7X 8642   6.147   1.970   9.545  2.5231 -1.0814  1.2939
   89SAPS   H7Y 8643   6.270   2.069   9.633  0.1815  0.4332  2.5348
   89SAPS   C38 8644   6.107   2.175   9.551  0.1683  0.2557  0.3455
   89SAPS   H8X 8645   6.148   2.263   9.604  2.1008  1.1247 -2.4775
   89SAPS   H8Y 8646   5.996   2.177   9.543  0.1912  4.1096 -0.1130
   89SAPS   C39 8647   6.146   2.174   9.399 -0.7427 -0.3068  0.2732
   89SAPS   H9X 8648   6.073   2.108   9.347 -2.1128 -0.3599  2.1731
   89SAPS   H9Y 8649   6.235   2.111   9.383 -1.1717 -0.7414 -0.4162
   89SAPS  C310 8650   6.155   2.312   9.324  0.1461 -0.4622  0.4712
   89SAPS  H10X 8651   6.244   2.362   9.367  0.7540 -0.2952 -0.9488
   89SAPS  H10Y 8652   6.063   2.368   9.350 -0.2653  0.6300 -3.0977
   89SAPS  C311 8653   6.168   2.292   9.167 -0.2919 -0.3089  0.1156
   89SAPS  H11X 8654   6.110   2.211   9.116  0.1840 -1.3036  1.1270
   89SAPS  H11Y 8655   6.272   2.261   9.144 -1.3286 -3.3440 -0.7825
   89SAPS  C312 8656   6.142   2.417   9.093  0.3248  0.2843 -0.0018
   89SAPS  H12X 8657   6.202   2.499   9.137 -1.9237  1.0181  1.7848
   89SAPS  H12Y 8658   6.036   2.437   9.119  0.5788  1.1550  0.3582
   89SAPS  C313 8659   6.151   2.412   8.939 -0.1027  0.4100  0.3767
   89SAPS  H13X 8660   6.241   2.354   8.913  1.0938  1.8072  1.3156
   89SAPS  H13Y 8661   6.170   2.514   8.899  0.0426  0.5726  0.8498
   89SAPS  C314 8662   6.028   2.341   8.876 -0.4110  0.6192 -0.2723
   89SAPS  H14X 8663   5.945   2.393   8.928 -0.1094  2.0541 -1.1988
   89SAPS  H14Y 8664   6.034   2.234   8.902  0.2770  0.6350 -0.3511
   89SAPS  C315 8665   6.024   2.342   8.720  0.7979  0.0920  0.0037
   89SAPS  H15X 8666   5.926   2.299   8.688  1.1055 -0.4998 -0.1517
   89SAPS  H15Y 8667   6.110   2.280   8.687 -0.0753 -1.8411  1.2222
   89SAPS  C316 8668   6.051   2.478   8.660 -0.5060 -0.0299 -0.8040
   89SAPS  H16X 8669   6.156   2.506   8.682 -0.2201  0.0047 -2.1537
   89SAPS  H16Y 8670   5.981   2.560   8.689  0.4081  1.0090 -1.4699
   89SAPS  C317 8671   6.030   2.482   8.509 -0.3257  0.0253  0.4809
   89SAPS  H17X 8672   5.923   2.464   8.485 -0.3574 -0.5508  1.0532
   89SAPS  H17Y 8673   6.103   2.409   8.467 -0.2187  1.1923 -1.4312
   89SAPS  C318 8674   6.062   2.622   8.457 -0.8341  0.1980  0.6452
   89SAPS  H18X 8675   6.165   2.645   8.492 -1.2658  2.0569  0.7329
   89SAPS  H18Y 8676   5.989   2.698   8.491 -2.1333 -0.1509 -1.2685
   89SAPS  H18Z 8677   6.072   2.625   8.347 -1.0544 -1.4924  0.5767
   90SAPS     N 8678   0.838   1.159  10.696 -0.0535  1.0188 -0.0672
   90SAPS   HN1 8679   0.747   1.200  10.725 -0.6382 -0.2045 -0.1275
   90SAPS   HN2 8680   0.852   1.187  10.597 -1.0467  0.9069 -0.2439
   90SAPS   HN3 8681   0.837   1.055  10.706  0.4614  0.9394 -0.8300
   90SAPS   C12 8682   0.960   1.205  10.761  1.1399 -0.0944  0.1069
   90SAPS  H12A 8683   0.992   1.304  10.729  0.3570  0.3405  0.6415
   90SAPS   C13 8684   0.946   1.217  10.916 -0.0354 -0.5148  0.7705
   90SAPS  O13A 8685   0.831   1.221  10.964  0.4278  0.1590 -0.0671
   90SAPS  O13B 8686   1.049   1.246  10.983  1.0008 -0.7206 -0.0311
   90SAPS   C11 8687   1.059   1.091  10.725 -0.4859 -0.7737 -0.5035
   90SAPS  H11A 8688   1.153   1.126  10.774 -1.4475  1.1349  0.0117
   90SAPS  H11B 8689   1.077   1.092  10.615 -0.0559  2.0114 -0.4549
   90SAPS     P 8690   1.125   0.843  10.764  0.0776  0.1874 -0.3378
   90SAPS   O13 8691   1.239   0.879  10.679 -0.2558 -0.1075  0.3908
   90SAPS   O14 8692   1.154   0.799  10.901  0.1902 -0.1558  0.2210
   90SAPS   O12 8693   1.020   0.965  10.775  0.7292  0.3536 -0.7850
   90SAPS   O11 8694   1.050   0.729  10.686 -0.6163 -0.5328 -0.3184
   90SAPS    C1 8695   0.927   0.763  10.631 -0.2427 -0.3787 -0.4599
   90SAPS    HA 8696   0.850   0.770  10.710 -0.8138  0.8547 -1.1222
   90SAPS    HB 8697   0.927   0.850  10.563  1.7990 -0.2401 -0.3164
   90SAPS    C2 8698   0.870   0.645  10.548  0.4582  0.4026  0.1287
   90SAPS    HS 8699   0.869   0.553  10.609 -0.7459 -0.3034 -0.9138
   90SAPS   O21 8700   0.943   0.648  10.427  0.0979 -0.9037 -0.3959
   90SAPS   C21 8701   0.925   0.536  10.358  0.2308 -0.6051  0.4141
   90SAPS   O22 8702   0.867   0.435  10.398  0.3275 -0.0613 -0.2254
   90SAPS   C22 8703   1.017   0.551  10.234 -0.1334  0.0879  0.4171
   90SAPS   H2R 8704   0.967   0.626  10.169 -0.7797  0.6274  1.5302
   90SAPS   H2S 8705   1.114   0.585  10.276  0.8654 -1.6057 -0.4556
   90SAPS    C3 8706   0.712   0.671  10.531  0.4708  0.0069  0.1890
   90SAPS    HX 8707   0.666   0.669  10.632 -1.6138 -0.5224 -0.7337
   90SAPS    HY 8708   0.657   0.587  10.484  1.9512 -0.4557 -0.7448
   90SAPS   O31 8709   0.686   0.795  10.468 -0.4441 -0.2608  0.0776
   90SAPS   C31 8710   0.682   0.801  10.334  0.1363 -0.5735 -0.2391
   90SAPS   O32 8711   0.697   0.706  10.256 -0.8015  0.3791  0.3037
   90SAPS   C32 8712   0.612   0.932  10.303 -0.1444  0.6790 -0.1114
   90SAPS   H2X 8713   0.686   1.014  10.318  0.9459 -0.3470  0.2284
   90SAPS   H2Y 8714   0.528   0.951  10.373 -1.3199 -0.2830 -1.2405
   90SAPS   C23 8715   1.026   0.422  10.154  0.8726  0.4182 -0.2486
   90SAPS   H3R 8716   0.925   0.377  10.146  2.1178 -2.5111 -0.0719
   90SAPS   H3S 8717   1.081   0.350  10.217  0.3991  2.4581  2.6034
   90SAPS   C24 8718   1.097   0.444  10.018 -0.0528 -0.1031 -0.6386
   90SAPS   H4R 8719   1.088   0.350   9.959  0.2450 -0.9485  0.6540
   90SAPS   H4S 8720   1.204   0.450  10.048 -0.7408  2.5151  1.5141
   90SAPS   C25 8721   1.056   0.547   9.919  0.1665 -0.1633  0.0925
   90SAPS   H5R 8722   1.022   0.642   9.963 -0.1932  0.5064 -1.5595
   90SAPS   C26 8723   1.071   0.541   9.781 -0.5838 -0.1648  0.3951
   90SAPS   H6R 8724   1.046   0.629   9.719  1.5141  0.3318  0.1949
   90SAPS   C27 8725   1.132   0.419   9.709 -0.2918 -0.3213  0.3292
   90SAPS   H7R 8726   1.185   0.349   9.777  0.0827 -1.4901 -1.1517
   90SAPS   H7S 8727   1.211   0.459   9.642 -0.7237  0.7241  0.4360
   90SAPS   C28 8728   1.026   0.333   9.642  0.1366 -0.1509  0.1423
   90SAPS   H8R 8729   0.953   0.286   9.710 -0.2341  0.3983  0.1257
   90SAPS   C29 8730   1.020   0.304   9.514 -0.4440 -0.0564 -0.0206
   90SAPS   H9R 8731   0.944   0.229   9.486 -3.3072  1.7432  2.6056
   90SAPS  C210 8732   1.117   0.351   9.408 -0.0980 -0.0263  0.5849
   90SAPS  H10R 8733   1.124   0.263   9.340  0.6751  0.6641 -0.2505
   90SAPS  H10S 8734   1.215   0.368   9.458  0.6216  0.4085 -0.9352
   90SAPS  C211 8735   1.069   0.463   9.325 -0.1455  0.3040  0.2700
   90SAPS  H11R 8736   1.061   0.558   9.380  0.2865  0.4045  0.1602
   90SAPS  C212 8737   1.061   0.457   9.189 -0.1810 -0.2237  0.8087
   90SAPS  H12R 8738   1.009   0.541   9.139  1.4802 -1.4437 -3.1683
   90SAPS  C213 8739   1.093   0.345   9.095 -0.6499  0.2594 -0.1444
   90SAPS  H13R 8740   1.191   0.301   9.123 -1.7690 -1.4548  1.1677
   90SAPS  H13S 8741   1.105   0.388   8.993 -0.6589 -0.6996 -0.5584
   90SAPS  C214 8742   0.987   0.238   9.095 -0.5426 -0.0180 -0.0926
   90SAPS  H14R 8743   0.908   0.238   9.171 -0.8413  0.1221 -0.4013
   90SAPS  C215 8744   0.993   0.139   9.009 -0.1226  0.0063  0.3895
   90SAPS  H15R 8745   0.924   0.054   9.012  0.8021 -0.8697 -1.7307
   90SAPS  C216 8746   1.103   0.117   8.898  0.6249 -0.5153 -0.0579
   90SAPS  H16R 8747   1.101   0.009   8.871  0.4047 -0.0888 -1.8045
   90SAPS  H16S 8748   1.205   0.136   8.938  0.2528  0.2987  0.5231
   90SAPS  C217 8749   1.080   0.179   8.759 -0.7156  0.6255  0.1439
   90SAPS  H17R 8750   1.164   0.160   8.689 -0.8023  0.8597 -0.0273
   90SAPS  H17S 8751   1.068   0.289   8.770 -0.1761  0.7140 -0.1764
   90SAPS  C218 8752   0.946   0.124   8.696  0.1898 -0.5947  0.4643
   90SAPS  H18R 8753   0.855   0.150   8.755 -0.3255 -0.4168 -0.3988
   90SAPS  H18S 8754   0.955   0.014   8.682 -0.3058 -0.6056  0.2100
   90SAPS  C219 8755   0.923   0.181   8.559  0.4360  0.4264  0.7441
   90SAPS  H19R 8756   0.998   0.144   8.485  0.3508 -0.8143  1.2677
   90SAPS  H19S 8757   0.918   0.292   8.560 -0.3877  0.3944  0.3694
   90SAPS  C220 8758   0.788   0.136   8.516  0.6376  0.0017 -0.2579
   90SAPS  H20R 8759   0.789   0.026   8.502 -1.3541 -0.3064  1.8310
   90SAPS  H20S 8760   0.758   0.186   8.421 -0.9482  0.5129  0.5036
   90SAPS  H20T 8761   0.709   0.156   8.591  1.0703  2.4408 -0.4011
   90SAPS   C33 8762   0.560   0.940  10.154 -0.0445  0.0170  0.1051
   90SAPS   H3X 8763   0.509   0.842  10.138  0.3424 -0.6352  2.6182
   90SAPS   H3Y 8764   0.652   0.941  10.091  0.2968  1.4666  0.6181
   90SAPS   C34 8765   0.457   1.054  10.133  0.0777 -0.4919 -0.6926
   90SAPS   H4X 8766   0.511   1.145  10.167 -0.4406 -0.1942 -0.6608
   90SAPS   H4Y 8767   0.364   1.043  10.192 -0.6676 -0.0415 -1.7693
   90SAPS   C35 8768   0.410   1.060   9.987  0.1271  0.2063  0.0562
   90SAPS   H5X 8769   0.315   1.117   9.979  0.3944  0.5925 -0.4498
   90SAPS   H5Y 8770   0.382   0.954   9.971  1.9172 -0.2182 -0.4330
   90SAPS   C36 8771   0.520   1.112   9.895 -0.2118  0.3530  0.6625
   90SAPS   H6X 8772   0.606   1.043   9.897  0.0439  0.5920 -1.2316
   90SAPS   H6Y 8773   0.558   1.202   9.949 -3.7038  1.8410  0.8443
   90SAPS   C37 8774   0.482   1.152   9.753 -0.2440  0.3758 -1.0999
   90SAPS   H7X 8775   0.576   1.180   9.700  0.7242  0.0892  0.4388
   90SAPS   H7Y 8776   0.425   1.247   9.760 -0.4555  0.0900  1.5959
   90SAPS   C38 8777   0.410   1.038   9.671  0.6215 -0.4511  0.2378
   90SAPS   H8X 8778   0.300   1.047   9.686  0.4115 -2.8404  0.3259
   90SAPS   H8Y 8779   0.456   0.940   9.697  0.7844 -0.9398 -1.7647
   90SAPS   C39 8780   0.425   1.069   9.518 -0.6365  0.7741 -0.2445
   90SAPS   H9X 8781   0.527   1.032   9.497 -1.5267 -1.2765 -1.0992
   90SAPS   H9Y 8782   0.430   1.178   9.500  0.3073  0.8916  0.6688
   90SAPS  C310 8783   0.317   1.005   9.435 -0.7988 -0.2134  0.3165
   90SAPS  H10X 8784   0.218   1.054   9.433  0.1691  1.8636  1.5574
   90SAPS  H10Y 8785   0.298   0.896   9.451  1.3697 -0.3620  2.1867
   90SAPS  C311 8786   0.359   1.020   9.284 -0.0140 -0.4433 -0.5788
   90SAPS  H11X 8787   0.460   0.977   9.267  1.0825  1.3721  1.1934
   90SAPS  H11Y 8788   0.379   1.128   9.266 -0.0449 -0.5401 -1.2146
   90SAPS  C312 8789   0.255   0.978   9.186 -0.0777 -0.3096  0.4139
   90SAPS  H12X 8790   0.162   1.027   9.222  1.0799  1.4249  1.1003
   90SAPS  H12Y 8791   0.242   0.868   9.190  1.4025 -0.4528  1.6691
   90SAPS  C313 8792   0.282   1.023   9.040 -0.2343 -0.0744 -0.1852
   90SAPS  H13X 8793   0.372   0.982   8.990  0.3548  1.1213 -0.1070
   90SAPS  H13Y 8794   0.295   1.133   9.047  0.5504 -0.1150 -0.9776
   90SAPS  C314 8795   0.159   0.989   8.945  0.9775  0.1529 -0.6227
   90SAPS  H14X 8796   0.059   1.011   8.990  0.1482 -0.7249 -1.9858
   90SAPS  H14Y 8797   0.150   0.881   8.919  0.3566 -1.0987  4.3020
   90SAPS  C315 8798   0.150   1.063   8.810  1.0353 -0.1639 -0.0944
   90SAPS  H15X 8799   0.243   1.032   8.758 -0.1528 -0.8401 -1.8427
   90SAPS  H15Y 8800   0.145   1.174   8.819 -0.3391 -0.1937 -0.3171
   90SAPS  C316 8801   0.022   1.013   8.735 -0.0203 -0.0411  0.3394
   90SAPS  H16X 8802  -0.064   1.014   8.805  0.7387 -0.2091  1.2751
   90SAPS  H16Y 8803   0.037   0.909   8.701 -0.3191 -0.5418  1.7221
   90SAPS  C317 8804  -0.021   1.092   8.610  0.5956  0.3142  0.1689
   90SAPS  H17X 8805   0.068   1.084   8.544  0.2466  3.2498 -0.7283
   90SAPS  H17Y 8806  -0.034   1.198   8.640 -3.8274  0.0591 -0.5419
   90SAPS  C318 8807  -0.146   1.041   8.544  0.3887  0.3445 -0.2637
   90SAPS  H18X 8808  -0.232   1.018   8.611  2.1776 -0.3834  1.8500
   90SAPS  H18Y 8809  -0.140   0.952   8.479 -1.8686 -0.9891  1.2786
   90SAPS  H18Z 8810  -0.176   1.115   8.467 -0.7020  0.2457  0.0553
   91SAPS     N 8811   5.503   6.082   5.946 -0.5696  0.4023 -0.1082
   91SAPS   HN1 8812   5.561   6.144   5.887  0.7479 -1.7702 -1.1374
   91SAPS   HN2 8813   5.403   6.109   5.936 -1.0367 -1.8767 -1.8835
   91SAPS   HN3 8814   5.530   6.090   6.046 -2.4243  0.8591  0.3809
   91SAPS   C12 8815   5.528   5.946   5.891 -0.3939 -0.2130  0.5452
   91SAPS  H12A 8816   5.464   5.885   5.953  1.8820 -2.6962  0.5711
   91SAPS   C13 8817   5.491   5.936   5.745 -0.1009 -0.0603  0.7237
   91SAPS  O13A 8818   5.471   6.033   5.666  0.4434 -0.0009 -0.0256
   91SAPS  O13B 8819   5.515   5.818   5.698  0.0022 -0.1098 -0.2174
   91SAPS   C11 8820   5.677   5.909   5.923 -0.1523  0.3247  0.2991
   91SAPS  H11A 8821   5.750   5.984   5.886  1.8980 -0.9128  1.6852
   91SAPS  H11B 8822   5.694   5.814   5.867 -0.1657 -0.3617  1.4482
   91SAPS     P 8823   5.673   5.752   6.131 -0.0718  0.3880  0.5961
   91SAPS   O13 8824   5.540   5.699   6.086 -0.0373 -0.7878 -0.1511
   91SAPS   O14 8825   5.783   5.658   6.105 -0.3805  0.2148  0.8883
   91SAPS   O12 8826   5.703   5.894   6.068  1.3699  0.8493  0.4475
   91SAPS   O11 8827   5.642   5.771   6.286 -0.1968  0.1479  1.0273
   91SAPS    C1 8828   5.748   5.839   6.357  0.1184 -0.1902  0.2963
   91SAPS    HA 8829   5.785   5.932   6.308  0.4014  0.2404  1.3103
   91SAPS    HB 8830   5.703   5.873   6.453  1.9159 -1.1109  1.5063
   91SAPS    C2 8831   5.869   5.746   6.391  0.3989  0.1572 -0.1120
   91SAPS    HS 8832   5.916   5.711   6.297  2.4949  0.5155  0.7724
   91SAPS   O21 8833   5.824   5.635   6.465 -0.2269  0.1054  0.2407
   91SAPS   C21 8834   5.915   5.534   6.463  0.3105  0.3476  0.3167
   91SAPS   O22 8835   5.999   5.517   6.376  0.4368  0.7603 -0.2255
   91SAPS   C22 8836   5.904   5.455   6.587 -0.5533  0.1625 -0.5199
   91SAPS   H2R 8837   5.859   5.516   6.668  0.9808  0.8177 -0.1439
   91SAPS   H2S 8838   5.831   5.372   6.574 -0.5828 -0.1253  1.4156
   91SAPS    C3 8839   5.981   5.828   6.469 -0.0076 -0.2524  0.5361
   91SAPS    HX 8840   5.996   5.922   6.411  2.7515 -0.7514  0.3818
   91SAPS    HY 8841   6.078   5.777   6.487 -0.3111 -0.7177  0.8678
   91SAPS   O31 8842   5.915   5.871   6.589 -0.7555  0.1548  0.2501
   91SAPS   C31 8843   5.981   5.838   6.698 -0.2317  0.5031 -0.0598
   91SAPS   O32 8844   6.074   5.761   6.710 -0.4694 -0.3630  0.2430
   91SAPS   C32 8845   5.929   5.933   6.807  0.3680  0.1891  0.3850
   91SAPS   H2X 8846   5.820   5.915   6.813  0.4542 -0.5460 -0.1620
   91SAPS   H2Y 8847   5.949   6.036   6.771  0.3768 -0.2012 -0.7340
   91SAPS   C23 8848   6.039   5.409   6.640 -0.4081  0.2722  0.5537
   91SAPS   H3R 8849   6.103   5.490   6.681 -1.6894  3.3600 -3.2176
   91SAPS   H3S 8850   6.103   5.369   6.558 -1.1333 -1.5070  0.8290
   91SAPS   C24 8851   6.031   5.301   6.746  0.0892  0.4722 -0.3074
   91SAPS   H4R 8852   6.129   5.255   6.771 -0.2536  0.1375  0.4566
   91SAPS   H4S 8853   5.976   5.224   6.689  0.5499 -0.1031  0.0210
   91SAPS   C25 8854   5.947   5.331   6.872  0.0781 -0.1992  1.0105
   91SAPS   H5R 8855   5.842   5.347   6.847 -0.1267 -0.5933  1.5943
   91SAPS   C26 8856   5.986   5.340   6.998 -0.0973 -0.1680 -0.3455
   91SAPS   H6R 8857   5.906   5.354   7.072  1.1467 -0.2750  1.0353
   91SAPS   C27 8858   6.119   5.318   7.065 -0.2470  0.4641 -0.9739
   91SAPS   H7R 8859   6.136   5.404   7.133  0.0676 -0.1085 -0.3311
   91SAPS   H7S 8860   6.206   5.321   6.995 -0.7487 -2.4202 -1.7591
   91SAPS   C28 8861   6.128   5.178   7.122  0.1300  0.5061  0.3610
   91SAPS   H8R 8862   6.146   5.096   7.051 -0.4201 -0.5614  1.4444
   91SAPS   C29 8863   6.112   5.149   7.250  0.1331  0.0543 -0.1592
   91SAPS   H9R 8864   6.128   5.041   7.269 -0.7124  0.0965  0.8240
   91SAPS  C210 8865   6.096   5.242   7.369 -0.5005 -0.0314 -0.1795
   91SAPS  H10R 8866   6.066   5.343   7.335 -2.0782 -0.9057 -1.4066
   91SAPS  H10S 8867   6.189   5.263   7.426  0.8103  0.2664 -2.3741
   91SAPS  C211 8868   5.991   5.180   7.455  0.1031  0.2831  0.2982
   91SAPS  H11R 8869   5.886   5.176   7.422  0.3668 -1.9846 -0.3579
   91SAPS  C212 8870   6.014   5.105   7.565 -0.1738  0.1956 -0.5168
   91SAPS  H12R 8871   5.930   5.055   7.615 -0.3003 -0.9875 -1.8835
   91SAPS  C213 8872   6.140   5.094   7.645  0.0074 -0.8826 -0.1433
   91SAPS  H13R 8873   6.217   5.160   7.602  1.3325 -0.2472  3.0545
   91SAPS  H13S 8874   6.184   4.992   7.646  0.7592 -0.5571  0.3674
   91SAPS  C214 8875   6.119   5.158   7.783 -1.4489 -0.1898  0.0125
   91SAPS  H14R 8876   6.087   5.263   7.785 -1.5795 -0.2303  0.0909
   91SAPS  C215 8877   6.146   5.092   7.903 -0.1178 -0.1607  0.2630
   91SAPS  H15R 8878   6.137   5.151   7.995  0.3593  2.2960 -1.2148
   91SAPS  C216 8879   6.185   4.948   7.922 -0.3466 -0.2657  0.4425
   91SAPS  H16R 8880   6.284   4.933   7.969  0.1404 -2.8327 -1.2794
   91SAPS  H16S 8881   6.189   4.887   7.829  2.7015  1.9862 -0.9661
   91SAPS  C217 8882   6.084   4.867   8.012  0.2539 -0.0620  0.0848
   91SAPS  H17R 8883   6.106   4.758   8.009  0.8099  0.0557 -0.1569
   91SAPS  H17S 8884   5.982   4.883   7.969 -0.9946 -1.8401  2.3053
   91SAPS  C218 8885   6.086   4.900   8.161 -0.4450 -0.4859  0.5192
   91SAPS  H18R 8886   6.041   5.001   8.164  2.0257  0.6110  1.0895
   91SAPS  H18S 8887   6.196   4.903   8.176 -0.3586 -0.6608 -0.0292
   91SAPS  C219 8888   6.016   4.790   8.248 -0.2337 -0.8386 -0.5109
   91SAPS  H19R 8889   5.988   4.832   8.348  1.4409  0.3027 -0.5096
   91SAPS  H19S 8890   6.075   4.699   8.269  0.4367 -0.7818 -2.1524
   91SAPS  C220 8891   5.875   4.744   8.203  0.1328 -0.3720 -0.6317
   91SAPS  H20R 8892   5.812   4.835   8.203 -0.5831 -0.8377 -3.2930
   91SAPS  H20S 8893   5.825   4.674   8.273 -0.5837  0.3373 -0.4225
   91SAPS  H20T 8894   5.884   4.696   8.103  2.8684  1.0366 -1.1037
   91SAPS   C33 8895   5.992   5.906   6.944 -0.7730 -0.2398 -0.3502
   91SAPS   H3X 8896   5.960   5.986   7.014 -0.2917  0.5839 -1.0563
   91SAPS   H3Y 8897   6.103   5.916   6.954 -0.7076  0.2870 -1.4932
   91SAPS   C34 8898   5.936   5.779   7.007 -0.5554 -0.3053 -0.6647
   91SAPS   H4X 8899   5.983   5.684   6.973 -1.2848 -1.2253  0.8588
   91SAPS   H4Y 8900   5.830   5.766   6.977 -1.0756 -0.0182  1.0192
   91SAPS   C35 8901   5.939   5.783   7.169  0.1844  0.1821 -0.0012
   91SAPS   H5X 8902   5.886   5.880   7.182 -0.0572  0.4682 -2.7496
   91SAPS   H5Y 8903   6.045   5.792   7.201  0.5842  1.0331 -1.5269
   91SAPS   C36 8904   5.879   5.655   7.211  0.0285 -0.6141  0.0429
   91SAPS   H6X 8905   5.946   5.571   7.185 -0.9794 -0.8280 -1.9025
   91SAPS   H6Y 8906   5.783   5.653   7.156 -0.5815 -2.8551  1.1484
   91SAPS   C37 8907   5.852   5.667   7.359 -0.0125  0.4657  0.1752
   91SAPS   H7X 8908   5.819   5.769   7.390  0.1890  0.1801  1.3414
   91SAPS   H7Y 8909   5.950   5.642   7.406  1.6291  0.6450 -3.0051
   91SAPS   C38 8910   5.753   5.561   7.413  0.5201 -0.7530  0.0469
   91SAPS   H8X 8911   5.787   5.468   7.364  1.0358 -0.9646  0.8025
   91SAPS   H8Y 8912   5.658   5.584   7.360  0.4068  0.5195  0.7850
   91SAPS   C39 8913   5.735   5.549   7.569 -0.4401 -0.0112 -0.3077
   91SAPS   H9X 8914   5.718   5.647   7.618  1.2325  0.2007 -0.1282
   91SAPS   H9Y 8915   5.828   5.503   7.610  1.1422  3.5114  0.2308
   91SAPS  C310 8916   5.620   5.454   7.607  0.8678  0.1679 -0.4809
   91SAPS  H10X 8917   5.630   5.360   7.547  1.8207 -0.6598  0.9569
   91SAPS  H10Y 8918   5.527   5.507   7.578  1.4243  0.5354 -1.6349
   91SAPS  C311 8919   5.607   5.409   7.755 -0.1268 -0.9061  0.7746
   91SAPS  H11X 8920   5.538   5.323   7.759 -1.1755 -0.2252 -1.5182
   91SAPS  H11Y 8921   5.570   5.496   7.813  1.1020  0.6464 -0.7145
   91SAPS  C312 8922   5.742   5.368   7.816  0.4468  0.4680  0.3285
   91SAPS  H12X 8923   5.808   5.458   7.814 -1.2552  1.7507 -0.9115
   91SAPS  H12Y 8924   5.761   5.275   7.758  0.5531 -0.0702  1.2295
   91SAPS  C313 8925   5.720   5.321   7.961 -0.0525 -0.3637  0.5737
   91SAPS  H13X 8926   5.646   5.238   7.966 -0.1288 -0.2637  1.2250
   91SAPS  H13Y 8927   5.678   5.411   8.010  0.0951  0.3053 -0.5238
   91SAPS  C314 8928   5.849   5.285   8.041 -0.1796  0.2003  0.4005
   91SAPS  H14X 8929   5.920   5.368   8.059 -2.4667  2.3333 -0.1045
   91SAPS  H14Y 8930   5.903   5.204   7.987 -2.4440 -1.0176 -0.1004
   91SAPS  C315 8931   5.820   5.238   8.187 -0.6007 -0.6633 -0.4765
   91SAPS  H15X 8932   5.807   5.128   8.191 -0.1645 -0.6696  4.0408
   91SAPS  H15Y 8933   5.729   5.291   8.223 -0.1410  1.1877 -1.9811
   91SAPS  C316 8934   5.931   5.290   8.285 -0.6154  0.6470  0.6764
   91SAPS  H16X 8935   5.924   5.399   8.266 -1.5465 -0.0277 -3.1893
   91SAPS  H16Y 8936   6.027   5.253   8.243 -2.8776 -4.9379  0.0082
   91SAPS  C317 8937   5.917   5.252   8.433 -0.3349 -0.2273 -0.8870
   91SAPS  H17X 8938   5.813   5.263   8.468 -0.0198 -0.7458  0.2223
   91SAPS  H17Y 8939   5.982   5.315   8.498 -0.9992  1.3647 -1.7246
   91SAPS  C318 8940   5.939   5.099   8.478 -0.1697 -0.5073  0.2040
   91SAPS  H18X 8941   6.049   5.081   8.474  0.1962  1.3299  1.3373
   91SAPS  H18Y 8942   5.865   5.045   8.415 -2.4515  1.8349  0.7942
   91SAPS  H18Z 8943   5.911   5.105   8.585  0.1882  0.9493  0.2315
   92SAPS     N 8944   5.228   3.867   6.210 -0.7971  0.2019  0.2488
   92SAPS   HN1 8945   5.170   3.781   6.220 -1.1419  0.1958 -1.7125
   92SAPS   HN2 8946   5.198   3.936   6.282  0.4201  1.1589 -0.1399
   92SAPS   HN3 8947   5.217   3.912   6.117 -0.8371  0.0174  0.1653
   92SAPS   C12 8948   5.375   3.843   6.220  0.0043  0.4646  0.3058
   92SAPS  H12A 8949   5.402   3.793   6.129  0.4764  1.5290 -0.1387
   92SAPS   C13 8950   5.460   3.962   6.233  0.3057 -0.1962 -0.3096
   92SAPS  O13A 8951   5.418   4.079   6.205 -0.4066  0.2758 -0.1314
   92SAPS  O13B 8952   5.588   3.931   6.231  0.3145 -0.3979 -0.1953
   92SAPS   C11 8953   5.407   3.761   6.345 -0.0410  0.5930  0.0799
   92SAPS  H11A 8954   5.385   3.819   6.437  0.1080  1.1112 -0.2098
   92SAPS  H11B 8955   5.515   3.735   6.342 -0.3638 -0.7428 -0.5092
   92SAPS     P 8956   5.378   3.498   6.353  0.1958 -0.0093 -0.3190
   92SAPS   O13 8957   5.261   3.411   6.375 -0.7455 -0.0601 -0.5965
   92SAPS   O14 8958   5.460   3.460   6.235 -0.0903 -0.0687 -0.1752
   92SAPS   O12 8959   5.331   3.644   6.342 -0.5308  0.1696  0.4988
   92SAPS   O11 8960   5.478   3.506   6.482 -0.2367 -0.3776  0.3766
   92SAPS    C1 8961   5.429   3.561   6.603  0.5256  0.1751  0.4280
   92SAPS    HA 8962   5.495   3.640   6.644 -0.7879  0.6849  1.5923
   92SAPS    HB 8963   5.332   3.615   6.598 -0.1151 -0.8580  1.5203
   92SAPS    C2 8964   5.419   3.453   6.723  0.0010 -0.3647 -0.1073
   92SAPS    HS 8965   5.499   3.377   6.707  0.8065  0.5105 -0.2386
   92SAPS   O21 8966   5.290   3.400   6.713  0.5512 -0.1410 -0.4140
   92SAPS   C21 8967   5.281   3.271   6.764 -0.6420  0.1352  0.1394
   92SAPS   O22 8968   5.377   3.221   6.819  0.3339  0.1395  0.3116
   92SAPS   C22 8969   5.151   3.199   6.737 -0.1672 -0.3860 -0.0010
   92SAPS   H2R 8970   5.080   3.267   6.685 -1.4260 -1.3934  0.3505
   92SAPS   H2S 8971   5.178   3.114   6.670  2.4840 -0.1937  0.7717
   92SAPS    C3 8972   5.437   3.508   6.870 -0.5754  0.4674  0.5587
   92SAPS    HX 8973   5.421   3.421   6.938  1.6936  0.3665  0.9909
   92SAPS    HY 8974   5.361   3.588   6.886  0.3145  1.6566 -1.0616
   92SAPS   O31 8975   5.571   3.546   6.889  0.0727 -0.3219 -0.0895
   92SAPS   C31 8976   5.579   3.644   6.976  0.3828 -0.2486  0.2361
   92SAPS   O32 8977   5.488   3.694   7.039  0.2286 -0.3168 -0.1819
   92SAPS   C32 8978   5.718   3.698   6.977 -0.1605 -0.7840 -0.2229
   92SAPS   H2X 8979   5.718   3.783   6.906 -0.7022 -1.4267 -1.0050
   92SAPS   H2Y 8980   5.785   3.625   6.926  0.0008  0.1959 -1.4356
   92SAPS   C23 8981   5.079   3.143   6.860  0.0915  0.1817 -0.7478
   92SAPS   H3R 8982   5.153   3.124   6.941 -1.0015 -0.7072  0.0592
   92SAPS   H3S 8983   5.040   3.042   6.835 -1.4377  0.5133  0.1767
   92SAPS   C24 8984   4.958   3.221   6.918  0.6164  0.8095 -0.4642
   92SAPS   H4R 8985   4.915   3.159   6.999  3.6458  1.9040  2.0921
   92SAPS   H4S 8986   4.875   3.225   6.844 -0.5516 -0.8879  0.7289
   92SAPS   C25 8987   4.992   3.355   6.970  0.4375 -0.2362 -0.1667
   92SAPS   H5R 8988   4.985   3.439   6.899 -0.2005  1.3595  1.7391
   92SAPS   C26 8989   5.042   3.375   7.091  0.1439 -0.0265  0.1886
   92SAPS   H6R 8990   5.060   3.480   7.120  0.6357 -0.1931  0.4945
   92SAPS   C27 8991   5.062   3.265   7.190  0.1964 -0.0379  0.6106
   92SAPS   H7R 8992   5.151   3.205   7.160 -0.2643 -0.4446  0.0292
   92SAPS   H7S 8993   4.974   3.197   7.187  0.9696 -1.0806  1.2401
   92SAPS   C28 8994   5.066   3.325   7.329 -0.1297 -0.4937  0.3433
   92SAPS   H8R 8995   4.966   3.324   7.375 -0.2891 -1.1856  0.0027
   92SAPS   C29 8996   5.178   3.354   7.401  0.4643  0.1996  0.7767
   92SAPS   H9R 8997   5.161   3.385   7.505  2.8197  0.9278  0.9646
   92SAPS  C210 8998   5.319   3.340   7.357  0.0888  0.8878 -0.0877
   92SAPS  H10R 8999   5.344   3.263   7.281  0.6284 -0.5661  1.5352
   92SAPS  H10S 9000   5.372   3.294   7.443  0.9294 -0.9692 -1.5811
   92SAPS  C211 9001   5.371   3.475   7.317  0.4683  0.4616 -0.0711
   92SAPS  H11R 9002   5.371   3.500   7.210 -2.4440  0.0501 -0.2266
   92SAPS  C212 9003   5.438   3.556   7.400 -0.6376 -0.0512 -0.6141
   92SAPS  H12R 9004   5.477   3.652   7.364 -2.4913  1.4694  1.3212
   92SAPS  C213 9005   5.473   3.537   7.543 -1.1154 -0.7420  0.8559
   92SAPS  H13R 9006   5.509   3.436   7.574  0.1119 -0.0097  1.8843
   92SAPS  H13S 9007   5.384   3.570   7.601  1.3673  3.7059  2.3859
   92SAPS  C214 9008   5.586   3.627   7.589  0.5159 -0.2411  0.6995
   92SAPS  H14R 9009   5.624   3.696   7.512 -0.7218  2.1931  2.2096
   92SAPS  C215 9010   5.649   3.625   7.706 -0.0763  0.0939  0.4810
   92SAPS  H15R 9011   5.737   3.686   7.731  3.2365 -2.8485 -3.3265
   92SAPS  C216 9012   5.620   3.528   7.817 -0.1705  0.1047 -0.3597
   92SAPS  H16R 9013   5.702   3.455   7.834 -0.0831  0.8030  2.3256
   92SAPS  H16S 9014   5.536   3.455   7.805  1.9666 -2.5539  0.2901
   92SAPS  C217 9015   5.593   3.592   7.950  0.2489 -0.5477 -0.0805
   92SAPS  H17R 9016   5.491   3.635   7.946 -0.3109 -2.0404 -2.8006
   92SAPS  H17S 9017   5.664   3.677   7.959 -0.2553  0.0139 -1.3389
   92SAPS  C218 9018   5.584   3.496   8.066  0.1668  0.0713  0.0055
   92SAPS  H18R 9019   5.685   3.450   8.077  0.1389 -0.1309 -0.5589
   92SAPS  H18S 9020   5.529   3.408   8.026 -1.0886 -0.0959  2.0338
   92SAPS  C219 9021   5.521   3.542   8.201  0.5575 -0.2022  0.4929
   92SAPS  H19R 9022   5.520   3.454   8.268  0.9356  0.2467  1.0854
   92SAPS  H19S 9023   5.417   3.572   8.174  0.7801 -1.5342 -2.1157
   92SAPS  C220 9024   5.587   3.663   8.257 -0.3202  0.1209 -0.6333
   92SAPS  H20R 9025   5.521   3.725   8.321  0.2826  0.3416 -0.2167
   92SAPS  H20S 9026   5.614   3.730   8.172 -1.0940  0.0027 -0.9741
   92SAPS  H20T 9027   5.683   3.629   8.302 -2.1603 -1.2920  2.4287
   92SAPS   C33 9028   5.764   3.741   7.119  0.5463  0.6540  0.2096
   92SAPS   H3X 9029   5.686   3.806   7.164 -0.0026  1.2197 -1.5034
   92SAPS   H3Y 9030   5.855   3.803   7.104  0.4601  1.0870  1.4027
   92SAPS   C34 9031   5.798   3.621   7.200  0.5624  0.2986  0.0050
   92SAPS   H4X 9032   5.866   3.559   7.138 -1.0333 -1.1484 -0.3602
   92SAPS   H4Y 9033   5.706   3.562   7.225  0.1247  0.3883 -1.3004
   92SAPS   C35 9034   5.861   3.663   7.335  0.5565 -0.2364 -0.3973
   92SAPS   H5X 9035   5.788   3.719   7.396 -0.0589 -1.3330 -0.1164
   92SAPS   H5Y 9036   5.942   3.736   7.318  1.1891 -0.7220  0.5033
   92SAPS   C36 9037   5.900   3.542   7.412  0.0161 -0.3440 -1.0692
   92SAPS   H6X 9038   5.958   3.464   7.357  1.2722  0.4845 -0.9367
   92SAPS   H6Y 9039   5.815   3.485   7.454 -0.1225  1.3384  1.0103
   92SAPS   C37 9040   5.988   3.579   7.532  0.6213 -0.5530 -0.1873
   92SAPS   H7X 9041   5.939   3.655   7.597  0.7149 -0.3860 -0.3099
   92SAPS   H7Y 9042   6.086   3.620   7.502  0.2746 -1.1653 -2.2469
   92SAPS   C38 9043   6.029   3.455   7.620 -0.0630 -0.3665  0.8964
   92SAPS   H8X 9044   6.123   3.407   7.587 -0.0847  1.6932 -2.2974
   92SAPS   H8Y 9045   5.953   3.374   7.629 -0.9255  0.0761 -1.9908
   92SAPS   C39 9046   6.042   3.515   7.760  0.4014 -0.8856  0.5889
   92SAPS   H9X 9047   5.956   3.584   7.772 -0.3651 -1.1612 -2.8292
   92SAPS   H9Y 9048   6.138   3.571   7.764  1.4655 -2.6892  0.9919
   92SAPS  C310 9049   6.048   3.432   7.886 -0.2623  0.5614 -0.6899
   92SAPS  H10X 9050   6.144   3.376   7.895 -0.6895 -0.0837 -0.0701
   92SAPS  H10Y 9051   5.972   3.353   7.870  0.6678 -0.9768  2.0870
   92SAPS  C311 9052   6.014   3.510   8.016 -0.5485 -0.3228  0.0070
   92SAPS  H11X 9053   5.917   3.562   8.006 -0.0094  0.5547 -0.6994
   92SAPS  H11Y 9054   6.087   3.591   8.036  0.5071 -1.0654 -0.7185
   92SAPS  C312 9055   6.012   3.409   8.135  0.1640 -0.4090 -0.0098
   92SAPS  H12X 9056   6.117   3.375   8.152  1.1123  2.5460  0.3407
   92SAPS  H12Y 9057   5.953   3.320   8.103 -1.1473  1.0088 -1.6353
   92SAPS  C313 9058   5.952   3.475   8.261  0.5426 -0.3749 -0.4860
   92SAPS  H13X 9059   5.856   3.528   8.243  0.2904 -0.8746 -0.6178
   92SAPS  H13Y 9060   6.022   3.553   8.298  1.0539 -1.3938  0.7058
   92SAPS  C314 9061   5.933   3.383   8.385  0.4149  0.1665  0.6488
   92SAPS  H14X 9062   5.932   3.446   8.476 -0.3399 -0.6330  1.2021
   92SAPS  H14Y 9063   6.018   3.312   8.394 -0.5916 -0.8956  1.9929
   92SAPS  C315 9064   5.802   3.308   8.361  0.1507 -0.0401 -0.7333
   92SAPS  H15X 9065   5.801   3.230   8.283  1.5920 -2.2592  1.3911
   92SAPS  H15Y 9066   5.727   3.385   8.334  1.6871  2.3914  1.6568
   92SAPS  C316 9067   5.743   3.248   8.490  0.4969 -0.7855 -0.4692
   92SAPS  H16X 9068   5.756   3.323   8.570 -2.1436 -0.4536 -0.3195
   92SAPS  H16Y 9069   5.802   3.160   8.524  0.4379 -0.5552  0.2176
   92SAPS  C317 9070   5.591   3.219   8.477 -0.0164 -0.2752  0.6786
   92SAPS  H17X 9071   5.591   3.170   8.377 -4.1655  1.1039 -0.1456
   92SAPS  H17Y 9072   5.533   3.312   8.456 -1.8383 -1.3841  0.7036
   92SAPS  C318 9073   5.525   3.138   8.583 -0.1937  0.7610 -0.1161
   92SAPS  H18X 9074   5.416   3.123   8.568 -0.8855  3.3386  1.9966
   92SAPS  H18Y 9075   5.537   3.193   8.678  2.3027 -1.2342  0.7681
   92SAPS  H18Z 9076   5.557   3.032   8.589 -2.7904  0.0966  2.8543
   93SAPS     N 9077   5.611   4.216   6.371  0.1960  0.2019  0.2794
   93SAPS   HN1 9078   5.674   4.173   6.441  0.9729  1.4780  0.3759
   93SAPS   HN2 9079   5.572   4.301   6.415  2.5832  0.4794  1.9241
   93SAPS   HN3 9080   5.542   4.143   6.343 -0.1979  0.6845 -0.0294
   93SAPS   C12 9081   5.693   4.246   6.244  0.5751  0.0949  0.5123
   93SAPS  H12A 9082   5.691   4.150   6.193  1.1983  0.5609 -0.4005
   93SAPS   C13 9083   5.620   4.343   6.139 -1.0977 -0.6629  0.7933
   93SAPS  O13A 9084   5.521   4.410   6.180  0.5559 -0.3216 -0.3700
   93SAPS  O13B 9085   5.667   4.352   6.022 -0.1488  0.4147  0.1979
   93SAPS   C11 9086   5.847   4.296   6.274  0.7042 -0.5962  0.0154
   93SAPS  H11A 9087   5.901   4.311   6.178  0.0608 -2.6624 -0.6808
   93SAPS  H11B 9088   5.899   4.210   6.320 -0.3277 -0.9084  0.5940
   93SAPS     P 9089   6.013   4.462   6.388  0.3869  0.2892  0.3319
   93SAPS   O13 9090   6.063   4.514   6.262  0.2316 -0.0369 -0.0805
   93SAPS   O14 9091   6.013   4.563   6.495  0.7061  0.4116 -0.1224
   93SAPS   O12 9092   5.862   4.415   6.356  0.7555 -0.0445  0.1364
   93SAPS   O11 9093   6.083   4.328   6.418  0.1826 -0.1856 -0.0833
   93SAPS    C1 9094   6.174   4.313   6.529  0.5093  0.2351 -0.1197
   93SAPS    HA 9095   6.272   4.299   6.479 -0.1631  0.0763 -1.4397
   93SAPS    HB 9096   6.180   4.402   6.595  1.2089 -0.0725  0.2345
   93SAPS    C2 9097   6.137   4.184   6.612 -0.1376  0.4678 -0.6741
   93SAPS    HS 9098   6.046   4.138   6.566  0.0519  1.2240 -1.8233
   93SAPS   O21 9099   6.110   4.225   6.749  0.1207  0.5197  0.3196
   93SAPS   C21 9100   5.981   4.240   6.782 -0.2923 -0.1905 -0.3168
   93SAPS   O22 9101   5.888   4.229   6.707  0.3562  0.3053  0.3005
   93SAPS   C22 9102   5.972   4.279   6.935  0.2176  0.6907 -1.3791
   93SAPS   H2R 9103   6.073   4.264   6.980  0.2013 -0.5235 -1.7219
   93SAPS   H2S 9104   5.947   4.387   6.931  0.0351  0.8071  1.7760
   93SAPS    C3 9105   6.245   4.066   6.610 -0.0057  0.3724 -0.3561
   93SAPS    HX 9106   6.341   4.116   6.635  0.2080 -0.5645  0.7869
   93SAPS    HY 9107   6.260   4.012   6.514 -0.5814  0.1479 -0.3261
   93SAPS   O31 9108   6.229   3.972   6.719 -0.1006  0.1972 -0.1985
   93SAPS   C31 9109   6.120   3.904   6.716 -0.0832 -0.8499 -0.8964
   93SAPS   O32 9110   6.035   3.915   6.629 -0.0385  0.2372 -0.2664
   93SAPS   C32 9111   6.111   3.812   6.837 -0.5090  0.1422 -0.8641
   93SAPS   H2X 9112   6.178   3.725   6.822  0.7403  0.3846  2.9107
   93SAPS   H2Y 9113   6.003   3.785   6.842 -0.6943  0.7519 -1.4141
   93SAPS   C23 9114   5.867   4.196   7.026  0.2952 -0.2755  0.2266
   93SAPS   H3R 9115   5.879   4.088   7.004 -0.6547  0.1351 -2.5565
   93SAPS   H3S 9116   5.764   4.222   6.993  0.5666  1.6143  0.8166
   93SAPS   C24 9117   5.877   4.226   7.172  0.1961  0.0549 -1.0512
   93SAPS   H4R 9118   5.788   4.180   7.220  2.9738 -3.2615  1.1123
   93SAPS   H4S 9119   5.862   4.331   7.203 -0.0164 -0.3652  0.3244
   93SAPS   C25 9120   6.004   4.175   7.230  0.3472  0.0758  0.3445
   93SAPS   H5R 9121   6.093   4.203   7.173 -0.2936 -0.1390 -0.7860
   93SAPS   C26 9122   6.021   4.092   7.336 -0.4753 -0.4962 -0.7409
   93SAPS   H6R 9123   6.124   4.063   7.363 -1.0829 -0.7277  1.3973
   93SAPS   C27 9124   5.911   4.040   7.421 -0.2659 -0.1350 -0.6476
   93SAPS   H7R 9125   5.940   3.933   7.431 -0.1582 -0.0659 -0.2375
   93SAPS   H7S 9126   5.815   4.030   7.365 -0.3112  2.0442 -0.9776
   93SAPS   C28 9127   5.891   4.100   7.556 -0.2011  0.9835  0.1277
   93SAPS   H8R 9128   5.841   4.196   7.536  1.9934  1.5726 -2.9175
   93SAPS   C29 9129   5.913   4.057   7.677 -0.0667  0.3372 -0.2949
   93SAPS   H9R 9130   5.919   4.129   7.759 -2.2136 -1.5759  1.6482
   93SAPS  C210 9131   5.977   3.923   7.706  0.6035  0.7579  0.1287
   93SAPS  H10R 9132   6.047   3.895   7.624  0.1385 -0.3500  0.0861
   93SAPS  H10S 9133   5.900   3.843   7.707  0.7682  0.5905 -0.3110
   93SAPS  C211 9134   6.067   3.900   7.830 -0.2410  0.2651 -0.4387
   93SAPS  H11R 9135   6.176   3.911   7.824 -0.4892  2.9525 -0.2561
   93SAPS  C212 9136   6.025   3.879   7.955 -0.1996 -0.7817  0.3033
   93SAPS  H12R 9137   6.091   3.870   8.043 -1.7353 -1.5264  1.4028
   93SAPS  C213 9138   5.881   3.902   7.998 -0.0629  0.3644 -0.2166
   93SAPS  H13R 9139   5.838   3.814   8.051  0.5886 -0.1390 -0.5089
   93SAPS  H13S 9140   5.814   3.904   7.910 -0.7589  0.1480  0.3109
   93SAPS  C214 9141   5.868   4.029   8.083 -1.0160 -0.7935 -0.3120
   93SAPS  H14R 9142   5.876   4.117   8.017  0.1602  0.4245  1.3948
   93SAPS  C215 9143   5.862   4.052   8.218 -0.1216 -0.1365  0.1060
   93SAPS  H15R 9144   5.851   4.159   8.236  2.3906  0.2656 -0.6035
   93SAPS  C216 9145   5.852   3.944   8.326  0.9433 -0.1049 -0.4721
   93SAPS  H16R 9146   5.813   3.850   8.283 -2.7081  1.2153 -0.1676
   93SAPS  H16S 9147   5.779   3.976   8.404  3.0600  0.4581  1.3666
   93SAPS  C217 9148   5.974   3.913   8.410  0.1619  0.4561 -0.0903
   93SAPS  H17R 9149   6.012   4.007   8.455  0.4936 -0.1337  0.8766
   93SAPS  H17S 9150   6.049   3.873   8.339  0.5035  1.9782 -0.5981
   93SAPS  C218 9151   5.957   3.800   8.518  0.1599 -1.0418  0.2177
   93SAPS  H18R 9152   5.919   3.713   8.460 -1.9377  0.7127 -1.1270
   93SAPS  H18S 9153   5.881   3.829   8.594  1.5549  1.1311  0.8494
   93SAPS  C219 9154   6.095   3.780   8.571 -0.3769 -0.5787  0.9935
   93SAPS  H19R 9155   6.135   3.879   8.600 -0.5997  0.0225 -0.6879
   93SAPS  H19S 9156   6.158   3.748   8.485  1.4146  1.5372  1.5095
   93SAPS  C220 9157   6.104   3.696   8.698 -0.1041  0.2109 -0.2763
   93SAPS  H20R 9158   6.202   3.643   8.702 -0.2479 -0.0965 -0.8249
   93SAPS  H20S 9159   6.025   3.618   8.699 -0.6443  0.6739 -2.7532
   93SAPS  H20T 9160   6.100   3.761   8.788 -0.4999 -0.0585 -0.0946
   93SAPS   C33 9161   6.147   3.875   6.973  0.1412  0.2736 -0.1470
   93SAPS   H3X 9162   6.082   3.960   7.003  1.7747  1.0034  1.4231
   93SAPS   H3Y 9163   6.253   3.903   6.954  0.6589 -1.9404 -0.6940
   93SAPS   C34 9164   6.149   3.785   7.097 -0.0482  1.4941 -0.7774
   93SAPS   H4X 9165   6.062   3.719   7.081  1.0349 -0.3211  0.5993
   93SAPS   H4Y 9166   6.130   3.846   7.189 -0.0312 -0.2120  0.3800
   93SAPS   C35 9167   6.274   3.698   7.121  0.4477 -0.5511  0.5544
   93SAPS   H5X 9168   6.363   3.751   7.081 -0.4722  0.9429  0.4446
   93SAPS   H5Y 9169   6.263   3.602   7.066 -0.9914  0.4577 -0.9419
   93SAPS   C36 9170   6.298   3.651   7.263  0.3107  0.0770 -0.6665
   93SAPS   H6X 9171   6.202   3.608   7.301 -0.4215  1.7077 -0.6142
   93SAPS   H6Y 9172   6.341   3.730   7.329 -0.7807 -0.3986  0.6370
   93SAPS   C37 9173   6.393   3.533   7.266  0.0614 -0.3082  0.4796
   93SAPS   H7X 9174   6.491   3.564   7.225  0.8166 -3.4872 -0.2670
   93SAPS   H7Y 9175   6.349   3.462   7.193  1.6024 -0.6402 -0.1499
   93SAPS   C38 9176   6.412   3.466   7.401  0.8468  0.1828 -0.2536
   93SAPS   H8X 9177   6.337   3.397   7.445 -0.6128  1.8551 -0.0865
   93SAPS   H8Y 9178   6.416   3.553   7.470  1.1047 -0.7629  0.9495
   93SAPS   C39 9179   6.546   3.393   7.413 -0.6526 -0.1923  0.2278
   93SAPS   H9X 9180   6.623   3.472   7.398 -0.5086 -0.4392 -0.3110
   93SAPS   H9Y 9181   6.550   3.332   7.321  2.7320  0.7818 -0.3482
   93SAPS  C310 9182   6.564   3.315   7.540 -0.2579  0.1732  0.1483
   93SAPS  H10X 9183   6.671   3.286   7.550  0.0975  0.8795 -1.4670
   93SAPS  H10Y 9184   6.512   3.219   7.521  1.9323 -1.0720  0.2641
   93SAPS  C311 9185   6.519   3.383   7.662 -0.0064 -0.5481 -0.0337
   93SAPS  H11X 9186   6.408   3.393   7.666  0.2147  1.5829  1.1012
   93SAPS  H11Y 9187   6.566   3.483   7.670 -0.0955 -0.3514 -1.7446
   93SAPS  C312 9188   6.552   3.297   7.789  0.9077  0.0799 -0.5177
   93SAPS  H12X 9189   6.662   3.278   7.784  1.0301  0.2964  1.1685
   93SAPS  H12Y 9190   6.500   3.200   7.778 -2.1770  1.2078  3.1110
   93SAPS  C313 9191   6.504   3.353   7.922 -0.4301  0.4568 -0.2021
   93SAPS  H13X 9192   6.394   3.363   7.912 -0.5815 -2.1483 -1.5117
   93SAPS  H13Y 9193   6.538   3.458   7.932 -0.5715  0.6559 -1.6613
   93SAPS  C314 9194   6.545   3.263   8.044  0.4992 -1.1064 -0.1539
   93SAPS  H14X 9195   6.655   3.261   8.060  0.5877  1.0172 -0.3990
   93SAPS  H14Y 9196   6.531   3.157   8.015  0.3456 -0.8144 -1.1833
   93SAPS  C315 9197   6.469   3.290   8.172 -0.9479  0.4869  0.4395
   93SAPS  H15X 9198   6.523   3.234   8.251  0.6044  3.0520  1.2505
   93SAPS  H15Y 9199   6.363   3.255   8.178 -0.6063 -1.4096 -3.1271
   93SAPS  C316 9200   6.478   3.439   8.216  0.2649  0.4037  0.2166
   93SAPS  H16X 9201   6.425   3.441   8.313  0.3486  0.3376  0.2628
   93SAPS  H16Y 9202   6.422   3.503   8.143  0.1830  1.6018  1.3151
   93SAPS  C317 9203   6.617   3.494   8.245  0.1711 -0.3644 -0.5757
   93SAPS  H17X 9204   6.641   3.576   8.173 -0.0841 -1.4929 -1.9693
   93SAPS  H17Y 9205   6.688   3.411   8.226  2.3550  0.9724  1.4825
   93SAPS  C318 9206   6.635   3.544   8.390  0.5562 -0.2028  0.5064
   93SAPS  H18X 9207   6.557   3.621   8.409  0.7174  0.7982 -2.6564
   93SAPS  H18Y 9208   6.734   3.588   8.413  0.8480 -0.6159  0.0526
   93SAPS  H18Z 9209   6.609   3.472   8.470 -2.5296 -0.3681 -0.5765
   94SAPS     N 9210   6.147   6.509   5.730  0.2700  0.3811  0.4733
   94SAPS   HN1 9211   6.198   6.454   5.658  0.1338  0.5439  0.2527
   94SAPS   HN2 9212   6.206   6.593   5.749  1.4127 -0.4741  0.7282
   94SAPS   HN3 9213   6.138   6.451   5.816  0.1746  0.4759  0.5286
   94SAPS   C12 9214   6.021   6.542   5.673 -0.2248  0.5303  0.0482
   94SAPS  H12A 9215   5.973   6.621   5.729 -0.8820  1.2750 -1.5642
   94SAPS   C13 9216   6.033   6.586   5.522 -0.6041 -0.0355 -0.1621
   94SAPS  O13A 9217   6.122   6.662   5.487 -0.0450 -0.4411  0.5466
   94SAPS  O13B 9218   5.924   6.586   5.458 -0.4420  0.1601 -0.0185
   94SAPS   C11 9219   5.927   6.415   5.695  0.4135 -0.4515  0.5855
   94SAPS  H11A 9220   5.973   6.332   5.639  1.2739  0.3412  0.1021
   94SAPS  H11B 9221   5.832   6.453   5.649  0.0474 -1.1036  0.8036
   94SAPS     P 9222   5.771   6.348   5.902 -0.1129 -0.1565  0.3995
   94SAPS   O13 9223   5.679   6.465   5.888  0.6217  0.0305  0.2322
   94SAPS   O14 9224   5.719   6.225   5.839  0.7123  0.2892  0.1236
   94SAPS   O12 9225   5.916   6.381   5.834  0.1633  0.3431  0.6917
   94SAPS   O11 9226   5.811   6.327   6.060 -0.3989  0.0175 -0.0694
   94SAPS    C1 9227   5.886   6.426   6.134  0.1109  0.0762  1.0034
   94SAPS    HA 9228   5.976   6.380   6.182  0.8389 -1.0321 -1.3294
   94SAPS    HB 9229   5.918   6.515   6.076  1.4520 -0.6709  0.5692
   94SAPS    C2 9230   5.797   6.477   6.252  0.4847  0.7467 -0.3138
   94SAPS    HS 9231   5.855   6.562   6.292  0.4670  0.2052  0.8696
   94SAPS   O21 9232   5.760   6.377   6.350  0.5458 -0.4660  0.6605
   94SAPS   C21 9233   5.848   6.372   6.451  0.6520  0.1498  0.5360
   94SAPS   O22 9234   5.931   6.456   6.477 -0.2646  0.0975  0.0314
   94SAPS   C22 9235   5.839   6.236   6.527  0.0901  0.3525  0.3833
   94SAPS   H2R 9236   5.788   6.153   6.473 -0.1894  0.5843  0.2897
   94SAPS   H2S 9237   5.939   6.199   6.561 -0.0097 -0.6865 -0.4193
   94SAPS    C3 9238   5.664   6.546   6.195  0.8511  0.5165 -0.0756
   94SAPS    HX 9239   5.605   6.467   6.143 -0.2165  1.2675 -0.0259
   94SAPS    HY 9240   5.697   6.625   6.124 -0.6180  2.4703  1.3431
   94SAPS   O31 9241   5.581   6.611   6.298  0.1100  0.0194  0.0202
   94SAPS   C31 9242   5.598   6.742   6.320 -0.5142 -0.3567  0.8707
   94SAPS   O32 9243   5.662   6.823   6.246 -0.4657  0.2672  0.3552
   94SAPS   C32 9244   5.507   6.782   6.442  0.6535  0.3873  0.1915
   94SAPS   H2X 9245   5.408   6.798   6.394 -0.5813 -0.0151  2.4856
   94SAPS   H2Y 9246   5.531   6.887   6.472  3.1705  0.6632 -2.5546
   94SAPS   C23 9247   5.750   6.264   6.655 -0.1022  0.0105 -0.4563
   94SAPS   H3R 9248   5.788   6.352   6.711 -2.2230  1.9741 -1.9746
   94SAPS   H3S 9249   5.755   6.180   6.727 -1.6864  1.1933  1.0699
   94SAPS   C24 9250   5.603   6.294   6.634  0.1965  0.0570 -0.2282
   94SAPS   H4R 9251   5.587   6.390   6.581  1.2298  1.8891  2.6698
   94SAPS   H4S 9252   5.563   6.315   6.735 -2.7932  1.6543 -1.6752
   94SAPS   C25 9253   5.514   6.179   6.585  0.1376  0.5458  0.2614
   94SAPS   H5R 9254   5.516   6.143   6.480 -0.4869 -0.2893  0.5312
   94SAPS   C26 9255   5.433   6.103   6.662 -0.1242 -0.0808  0.2321
   94SAPS   H6R 9256   5.363   6.033   6.615 -1.5896 -0.0188  2.2058
   94SAPS   C27 9257   5.413   6.111   6.816  0.3221  0.3712  0.0114
   94SAPS   H7R 9258   5.309   6.081   6.842  0.2875 -0.4590 -1.0092
   94SAPS   H7S 9259   5.418   6.218   6.844 -1.8987  0.7347 -0.8834
   94SAPS   C28 9260   5.515   6.023   6.885  0.7738 -0.0573 -0.5898
   94SAPS   H8R 9261   5.528   5.919   6.851  4.6168  0.9993 -2.6555
   94SAPS   C29 9262   5.591   6.055   6.987 -0.1059 -0.0044  0.0416
   94SAPS   H9R 9263   5.641   5.975   7.042  0.0312 -1.2182 -1.8178
   94SAPS  C210 9264   5.597   6.190   7.064  0.2459  0.4670 -0.1858
   94SAPS  H10R 9265   5.550   6.167   7.162  1.5824 -4.1550 -0.5195
   94SAPS  H10S 9266   5.540   6.274   7.018 -0.4950 -0.7390 -1.5220
   94SAPS  C211 9267   5.738   6.239   7.075  0.0910  0.4001 -0.7518
   94SAPS  H11R 9268   5.769   6.309   6.996  0.0400 -0.0407 -1.1632
   94SAPS  C212 9269   5.814   6.211   7.181  0.5910  0.1773 -0.1777
   94SAPS  H12R 9270   5.919   6.242   7.176  1.0130 -1.2692 -0.4963
   94SAPS  C213 9271   5.778   6.125   7.302  0.2382  0.4508 -0.4883
   94SAPS  H13R 9272   5.870   6.072   7.336 -0.6946 -0.8154  0.1195
   94SAPS  H13S 9273   5.709   6.043   7.272 -1.0139  1.6288 -0.8753
   94SAPS  C214 9274   5.713   6.197   7.415 -0.1271  0.5911 -0.4990
   94SAPS  H14R 9275   5.683   6.303   7.410 -1.3820  0.1429 -3.4890
   94SAPS  C215 9276   5.709   6.139   7.538  0.3959 -0.5891  0.5005
   94SAPS  H15R 9277   5.647   6.186   7.615 -0.3200 -1.8255  0.6915
   94SAPS  C216 9278   5.760   6.007   7.585 -0.7594  0.1728  0.2881
   94SAPS  H16R 9279   5.749   5.923   7.513 -0.9385 -0.2404  0.7971
   94SAPS  H16S 9280   5.712   5.963   7.675  0.7574 -2.1479  0.0035
   94SAPS  C217 9281   5.908   6.004   7.623  0.6178  0.7918  0.1525
   94SAPS  H17R 9282   5.923   6.080   7.703  2.0270  1.7581 -1.0152
   94SAPS  H17S 9283   5.972   6.019   7.534 -0.9033 -1.0872 -1.2943
   94SAPS  C218 9284   5.950   5.862   7.668  0.6536  0.1143 -0.2101
   94SAPS  H18R 9285   6.061   5.857   7.671  0.7109  1.5048  2.2718
   94SAPS  H18S 9286   5.906   5.788   7.599 -0.7742  0.0479  0.7596
   94SAPS  C219 9287   5.894   5.828   7.814  0.2222 -0.4028  0.2741
   94SAPS  H19R 9288   5.784   5.822   7.803  0.1042 -0.8399  1.6435
   94SAPS  H19S 9289   5.930   5.904   7.887  1.2247  0.3034 -0.9384
   94SAPS  C220 9290   5.945   5.694   7.852 -0.0719 -0.2357 -0.1740
   94SAPS  H20R 9291   5.933   5.629   7.762 -0.3929  1.1797 -1.1724
   94SAPS  H20S 9292   5.890   5.642   7.933  0.1118  0.8387  0.6475
   94SAPS  H20T 9293   6.051   5.697   7.883  0.0350  0.5195 -0.6109
   94SAPS   C33 9294   5.520   6.699   6.571 -0.0316  0.1575 -0.5947
   94SAPS   H3X 9295   5.491   6.593   6.553  2.7409 -1.2160  2.4836
   94SAPS   H3Y 9296   5.450   6.733   6.650 -0.7008  0.6371 -1.3795
   94SAPS   C34 9297   5.662   6.715   6.636 -0.1144 -1.1906  0.4273
   94SAPS   H4X 9298   5.691   6.822   6.638  1.4266 -1.5875  0.2286
   94SAPS   H4Y 9299   5.719   6.653   6.563 -0.5246 -1.4040  0.2819
   94SAPS   C35 9300   5.693   6.668   6.781  0.6111  0.1546 -0.2613
   94SAPS   H5X 9301   5.656   6.564   6.794  2.0751 -0.2510  0.9090
   94SAPS   H5Y 9302   5.650   6.727   6.865 -0.2961 -0.7312 -0.0947
   94SAPS   C36 9303   5.844   6.672   6.818 -0.3899  0.4124 -0.1483
   94SAPS   H6X 9304   5.871   6.780   6.817  0.5001  0.1930 -1.1044
   94SAPS   H6Y 9305   5.889   6.617   6.732  0.2988 -1.3698  1.3250
   94SAPS   C37 9306   5.886   6.619   6.955 -1.0721  0.4620  1.0290
   94SAPS   H7X 9307   5.859   6.511   6.948  0.6528  0.0137  0.7898
   94SAPS   H7Y 9308   5.829   6.666   7.038 -2.7626  1.2123 -0.5371
   94SAPS   C38 9309   6.028   6.633   6.985  0.0883 -0.9337 -0.9723
   94SAPS   H8X 9310   6.042   6.739   7.014 -1.8602 -1.2872  1.4900
   94SAPS   H8Y 9311   6.082   6.601   6.893  0.0469 -0.2006 -1.2536
   94SAPS   C39 9312   6.073   6.543   7.107  0.6983 -0.1531  0.5221
   94SAPS   H9X 9313   6.177   6.572   7.131  0.4150  1.5087 -0.1762
   94SAPS   H9Y 9314   6.067   6.436   7.081  1.2079 -0.4964  1.7783
   94SAPS  C310 9315   5.988   6.565   7.232 -0.4152  0.4939  0.3093
   94SAPS  H10X 9316   5.883   6.532   7.216 -0.2776  1.1290 -1.9994
   94SAPS  H10Y 9317   5.998   6.670   7.265  0.4822  0.2904  0.6867
   94SAPS  C311 9318   6.042   6.482   7.359 -0.1598  0.2608 -0.1223
   94SAPS  H11X 9319   6.152   6.499   7.370 -0.2327  0.1654  0.7664
   94SAPS  H11Y 9320   6.023   6.374   7.341 -2.5218  0.4898  0.8678
   94SAPS  C312 9321   5.980   6.525   7.486 -0.5591  0.3849 -0.4017
   94SAPS  H12X 9322   5.869   6.528   7.481 -0.4461  3.4492 -3.7143
   94SAPS  H12Y 9323   6.012   6.626   7.520 -0.9986  0.3110  0.2345
   94SAPS  C313 9324   6.033   6.439   7.612 -0.1736  0.6592 -0.6746
   94SAPS  H13X 9325   6.135   6.473   7.640 -1.2579  1.3853  2.5983
   94SAPS  H13Y 9326   6.036   6.339   7.563  2.0480  0.3172  0.0928
   94SAPS  C314 9327   5.940   6.442   7.731 -0.7351 -0.7636 -0.0277
   94SAPS  H14X 9328   5.983   6.386   7.817  0.2499  1.1536  0.7696
   94SAPS  H14Y 9329   5.852   6.379   7.709  0.0197 -1.3618 -1.4039
   94SAPS  C315 9330   5.880   6.579   7.767  0.0284 -0.0373 -0.2777
   94SAPS  H15X 9331   5.785   6.591   7.711 -0.1072 -1.0988 -0.3034
   94SAPS  H15Y 9332   5.949   6.659   7.734 -0.8736  1.1873  0.7590
   94SAPS  C316 9333   5.853   6.592   7.922 -0.1673  0.1809  0.1408
   94SAPS  H16X 9334   5.943   6.634   7.972  0.4297  0.0519 -0.8106
   94SAPS  H16Y 9335   5.829   6.491   7.962  0.5951 -0.3668 -0.7484
   94SAPS  C317 9336   5.734   6.683   7.957  1.0983 -0.3503  0.2963
   94SAPS  H17X 9337   5.642   6.638   7.913  0.3779  0.9679  0.4224
   94SAPS  H17Y 9338   5.753   6.775   7.898  0.6598 -0.2256  0.3448
   94SAPS  C318 9339   5.714   6.704   8.105 -0.0318  0.0563 -0.6229
   94SAPS  H18X 9340   5.624   6.768   8.119 -1.0275 -1.1951 -1.2081
   94SAPS  H18Y 9341   5.808   6.749   8.142 -1.3082  2.4077 -0.1384
   94SAPS  H18Z 9342   5.700   6.610   8.162  0.0577 -1.0183 -2.3531
   95SAPS     N 9343   1.897   3.905   6.130 -0.2259  0.4593  0.4373
   95SAPS   HN1 9344   1.899   3.996   6.080 -0.4045 -0.2034 -0.8167
   95SAPS   HN2 9345   1.802   3.869   6.154  0.1125 -0.9605 -0.3020
   95SAPS   HN3 9346   1.968   3.902   6.205 -0.1544  0.5576  0.3740
   95SAPS   C12 9347   1.955   3.814   6.034  0.1455  0.0395 -0.3842
   95SAPS  H12A 9348   1.923   3.716   6.067  0.7098 -0.4312 -1.1981
   95SAPS   C13 9349   1.908   3.839   5.891 -0.4961  0.6020  0.2359
   95SAPS  O13A 9350   1.854   3.951   5.860 -0.4913  0.0088 -0.2453
   95SAPS  O13B 9351   1.945   3.765   5.794  0.4311 -0.1824 -0.4987
   95SAPS   C11 9352   2.102   3.817   6.041  0.7302  0.4816  1.3699
   95SAPS  H11A 9353   2.151   3.915   6.022 -0.8683  0.9072 -0.6367
   95SAPS  H11B 9354   2.134   3.742   5.965  1.3584 -0.5192  2.6041
   95SAPS     P 9355   2.291   3.739   6.216 -0.2581 -0.3917 -0.0609
   95SAPS   O13 9356   2.336   3.606   6.162 -0.0137 -0.0287  0.0225
   95SAPS   O14 9357   2.380   3.854   6.184  0.5083  0.4547  0.0162
   95SAPS   O12 9358   2.143   3.776   6.172 -0.0991 -0.4843 -0.3921
   95SAPS   O11 9359   2.292   3.736   6.372  0.2980 -0.4098 -0.8955
   95SAPS    C1 9360   2.189   3.666   6.444  0.2616 -0.0736  0.5130
   95SAPS    HA 9361   2.104   3.738   6.441  1.2075  1.0238 -0.7789
   95SAPS    HB 9362   2.152   3.572   6.396  1.9180 -0.8003  0.6135
   95SAPS    C2 9363   2.231   3.629   6.591 -0.3322 -0.4274  0.0624
   95SAPS    HS 9364   2.135   3.624   6.647 -1.0031  1.2464 -0.9019
   95SAPS   O21 9365   2.314   3.728   6.646 -0.6738  0.1459  0.3551
   95SAPS   C21 9366   2.272   3.848   6.649 -0.5939 -0.0838  0.0486
   95SAPS   O22 9367   2.162   3.895   6.614 -0.0586  0.0093  0.2065
   95SAPS   C22 9368   2.384   3.918   6.728 -0.3236  0.0311  0.3485
   95SAPS   H2R 9369   2.428   3.861   6.813  0.2653  0.9122  0.6479
   95SAPS   H2S 9370   2.468   3.951   6.663  0.0127  2.4906  1.9651
   95SAPS    C3 9371   2.296   3.487   6.600 -0.3280 -0.1438  0.6554
   95SAPS    HX 9372   2.392   3.479   6.544  0.0341 -1.8784  1.4683
   95SAPS    HY 9373   2.221   3.415   6.560  0.3976 -2.2377  2.9438
   95SAPS   O31 9374   2.299   3.438   6.739  0.3985 -0.4118 -0.3226
   95SAPS   C31 9375   2.402   3.465   6.809 -0.5973  0.1413 -0.3540
   95SAPS   O32 9376   2.504   3.528   6.776  0.0727  0.0469  0.2232
   95SAPS   C32 9377   2.401   3.404   6.947 -0.0339  0.8806 -0.3081
   95SAPS   H2X 9378   2.401   3.489   7.019  1.6640 -0.9738  1.9567
   95SAPS   H2Y 9379   2.500   3.357   6.966 -0.3050  0.8623  1.1415
   95SAPS   C23 9380   2.326   4.048   6.797  0.3257  0.6017 -0.2466
   95SAPS   H3R 9381   2.232   4.029   6.854 -0.0963 -0.8379 -1.3996
   95SAPS   H3S 9382   2.304   4.123   6.718 -1.6133 -0.2683 -0.5524
   95SAPS   C24 9383   2.433   4.113   6.901  0.2525  0.3323  0.4030
   95SAPS   H4R 9384   2.427   4.224   6.904 -0.3670  0.2962  0.5598
   95SAPS   H4S 9385   2.529   4.075   6.860 -1.1054 -2.3999 -0.3469
   95SAPS   C25 9386   2.419   4.061   7.044  0.1127  0.3735  0.0799
   95SAPS   H5R 9387   2.317   4.077   7.079 -0.3060 -0.2892 -0.7996
   95SAPS   C26 9388   2.513   4.009   7.124 -0.0739  0.3735 -0.0313
   95SAPS   H6R 9389   2.487   3.975   7.226  0.5785  0.7975  0.2752
   95SAPS   C27 9390   2.659   3.987   7.089 -0.2516 -0.2333 -0.0534
   95SAPS   H7R 9391   2.714   4.045   7.166 -2.3447  0.6154  0.8602
   95SAPS   H7S 9392   2.684   4.054   7.004  1.6188 -0.1107  0.5631
   95SAPS   C28 9393   2.702   3.845   7.079 -0.1949  0.6043 -0.1363
   95SAPS   H8R 9394   2.633   3.784   7.019  2.0988 -0.4193 -1.7800
   95SAPS   C29 9395   2.824   3.788   7.110  0.1668 -0.5009  0.0329
   95SAPS   H9R 9396   2.851   3.687   7.076  1.2224 -0.6201  1.2108
   95SAPS  C210 9397   2.941   3.873   7.163  0.0156 -0.1188 -0.1706
   95SAPS  H10R 9398   2.932   3.872   7.273 -3.2822  1.4197 -0.3482
   95SAPS  H10S 9399   2.929   3.976   7.122 -2.4246 -0.0288  0.6869
   95SAPS  C211 9400   3.071   3.815   7.114  0.0059  0.6084  1.0909
   95SAPS  H11R 9401   3.077   3.819   7.004  1.0082  0.0861  1.1232
   95SAPS  C212 9402   3.166   3.762   7.191  0.6058 -0.2677 -0.2491
   95SAPS  H12R 9403   3.249   3.716   7.135  1.3650  2.1919 -1.1752
   95SAPS  C213 9404   3.163   3.751   7.345 -0.6465  0.3779  0.6387
   95SAPS  H13R 9405   3.250   3.694   7.385 -0.2878  1.5915  1.5795
   95SAPS  H13S 9406   3.078   3.698   7.391 -1.2135 -0.6448 -1.5003
   95SAPS  C214 9407   3.173   3.886   7.410  0.0746 -0.3260  0.0632
   95SAPS  H14R 9408   3.229   3.962   7.354 -1.6252  1.7948  1.1265
   95SAPS  C215 9409   3.125   3.923   7.530  0.6163  0.5352 -0.1790
   95SAPS  H15R 9410   3.129   4.030   7.559  2.2224  0.4877 -0.2031
   95SAPS  C216 9411   3.054   3.827   7.624 -1.1737  1.2912 -0.3545
   95SAPS  H16R 9412   3.117   3.799   7.711 -0.7485 -0.2663 -1.1378
   95SAPS  H16S 9413   3.030   3.730   7.574  0.5246  0.2181  0.8865
   95SAPS  C217 9414   2.918   3.902   7.670 -0.1583 -0.3646 -0.1902
   95SAPS  H17R 9415   2.947   3.992   7.728  0.2621 -0.2608 -0.5563
   95SAPS  H17S 9416   2.861   3.842   7.744  1.1686  0.2844  1.3956
   95SAPS  C218 9417   2.826   3.940   7.559  0.4491  0.1875  0.2409
   95SAPS  H18R 9418   2.776   3.856   7.505 -2.1702  2.1756 -0.5162
   95SAPS  H18S 9419   2.881   4.006   7.490  1.8622  0.4931  1.6362
   95SAPS  C219 9420   2.709   4.027   7.600  0.0850  0.1606  0.0435
   95SAPS  H19R 9421   2.753   4.120   7.641  2.0599 -1.5511  1.9646
   95SAPS  H19S 9422   2.647   3.978   7.678 -0.3920  2.9467  1.4717
   95SAPS  C220 9423   2.616   4.063   7.485 -0.0626  0.0637  0.7768
   95SAPS  H20R 9424   2.672   4.119   7.407 -0.5469  1.0348  1.1212
   95SAPS  H20S 9425   2.527   4.119   7.521 -0.3807  1.5069 -2.1163
   95SAPS  H20T 9426   2.582   3.973   7.430  1.7540 -0.3866  0.3771
   95SAPS   C33 9427   2.277   3.318   6.987 -0.2348 -0.1839 -0.3509
   95SAPS   H3X 9428   2.286   3.220   6.935  1.6831 -0.0570 -0.3171
   95SAPS   H3Y 9429   2.182   3.367   6.961  0.5141  1.9646  0.8570
   95SAPS   C34 9430   2.265   3.297   7.142  0.8179 -0.2241  0.1739
   95SAPS   H4X 9431   2.192   3.216   7.159 -1.5508  1.4321 -1.7270
   95SAPS   H4Y 9432   2.224   3.385   7.196  1.8905 -0.7226  1.8303
   95SAPS   C35 9433   2.391   3.253   7.220  0.2589 -0.4242  0.8850
   95SAPS   H5X 9434   2.463   3.337   7.217  1.0923 -1.1378 -4.6518
   95SAPS   H5Y 9435   2.445   3.180   7.156 -0.2473  1.0206 -1.2387
   95SAPS   C36 9436   2.359   3.198   7.355 -0.1935 -0.4800  0.2459
   95SAPS   H6X 9437   2.272   3.129   7.350 -1.1525  0.5898  1.7629
   95SAPS   H6Y 9438   2.318   3.282   7.414 -1.3124 -1.5027  0.9581
   95SAPS   C37 9439   2.481   3.128   7.417 -0.6083  0.3495  0.1229
   95SAPS   H7X 9440   2.554   3.212   7.418  2.0259 -1.8761 -0.4619
   95SAPS   H7Y 9441   2.517   3.047   7.351 -2.0294  0.1806 -0.4590
   95SAPS   C38 9442   2.466   3.076   7.558 -0.2181 -0.1933  0.4067
   95SAPS   H8X 9443   2.562   3.026   7.585  0.5737  1.2090  0.2317
   95SAPS   H8Y 9444   2.388   2.997   7.565 -1.5265  1.2130  2.0030
   95SAPS   C39 9445   2.432   3.183   7.663 -0.3108 -0.0277 -0.3603
   95SAPS   H9X 9446   2.338   3.233   7.632  1.1074  3.1780  0.2845
   95SAPS   H9Y 9447   2.510   3.261   7.674  0.6383 -1.1858  1.4080
   95SAPS  C310 9448   2.399   3.117   7.801  0.4677  0.8417  0.9863
   95SAPS  H10X 9449   2.500   3.101   7.846  1.4455  0.7009 -1.1709
   95SAPS  H10Y 9450   2.340   3.023   7.791 -0.2473  1.3728  0.2055
   95SAPS  C311 9451   2.310   3.218   7.881 -0.7643 -0.0667 -0.5029
   95SAPS  H11X 9452   2.212   3.219   7.829 -1.9314 -0.8187  1.6090
   95SAPS  H11Y 9453   2.364   3.315   7.869  0.5444 -0.7268 -0.0442
   95SAPS  C312 9454   2.296   3.177   8.021  0.3217  0.0110 -0.3339
   95SAPS  H12X 9455   2.390   3.121   8.044  0.8871  0.8792 -0.5226
   95SAPS  H12Y 9456   2.208   3.111   8.034 -0.8037  1.0202 -2.5763
   95SAPS  C313 9457   2.277   3.300   8.112  0.5975 -1.4343  0.6531
   95SAPS  H13X 9458   2.185   3.354   8.080  1.8754  1.3346  1.5446
   95SAPS  H13Y 9459   2.354   3.379   8.103 -0.1479 -0.5110  2.1711
   95SAPS  C314 9460   2.259   3.259   8.259  0.2906 -0.2386 -0.6114
   95SAPS  H14X 9461   2.221   3.154   8.262  1.8054 -0.8076 -1.1772
   95SAPS  H14Y 9462   2.191   3.322   8.321 -0.2212 -1.7579  0.3874
   95SAPS  C315 9463   2.395   3.253   8.322 -0.0798 -0.5042  0.9134
   95SAPS  H15X 9464   2.448   3.350   8.317 -0.1015 -0.6049 -2.1642
   95SAPS  H15Y 9465   2.457   3.191   8.254  0.4410  1.9482 -0.9103
   95SAPS  C316 9466   2.404   3.194   8.467  0.4731 -0.8679  0.6502
   95SAPS  H16X 9467   2.337   3.109   8.494 -0.6633  0.2992  1.5956
   95SAPS  H16Y 9468   2.374   3.277   8.535  0.3015 -0.2834 -0.1277
   95SAPS  C317 9469   2.546   3.140   8.495  0.0938  0.2748  0.0001
   95SAPS  H17X 9470   2.621   3.221   8.479  0.6824 -0.4507 -0.9712
   95SAPS  H17Y 9471   2.568   3.062   8.420 -0.2082 -1.0255  1.2510
   95SAPS  C318 9472   2.565   3.090   8.640 -0.2538  0.6348 -0.4820
   95SAPS  H18X 9473   2.481   3.019   8.653 -1.1737  1.4360 -1.8716
   95SAPS  H18Y 9474   2.560   3.171   8.716  0.2794  0.5157 -0.3200
   95SAPS  H18Z 9475   2.662   3.036   8.645  0.1978  1.1916 -2.6300
   96SAPS     N 9476   3.763   5.571   6.160  0.1583  0.1115 -0.3544
   96SAPS   HN1 9477   3.847   5.544   6.105  0.9544  0.8227  0.4870
   96SAPS   HN2 9478   3.789   5.630   6.241  0.9063 -0.5221 -0.1241
   96SAPS   HN3 9479   3.724   5.483   6.200 -3.4061  0.6958 -2.3919
   96SAPS   C12 9480   3.657   5.651   6.101 -0.3013  0.1049 -0.3479
   96SAPS  H12A 9481   3.697   5.736   6.048 -1.4198  0.3965 -0.7299
   96SAPS   C13 9482   3.565   5.580   5.995 -0.0977 -0.0186 -0.2040
   96SAPS  O13A 9483   3.585   5.460   5.965 -0.4550  0.2596  0.6596
   96SAPS  O13B 9484   3.499   5.655   5.923 -0.1373 -0.1533  0.2309
   96SAPS   C11 9485   3.564   5.702   6.214  0.1074 -0.7004 -0.4103
   96SAPS  H11A 9486   3.529   5.615   6.274 -1.2594 -0.7813 -1.2924
   96SAPS  H11B 9487   3.479   5.760   6.171  1.2085  1.1538 -0.1077
   96SAPS     P 9488   3.628   5.931   6.314  0.2706  0.1088 -0.0365
   96SAPS   O13 9489   3.733   5.982   6.408 -0.4890  0.1328  0.6353
   96SAPS   O14 9490   3.630   5.984   6.178  0.3845  0.2125  0.0189
   96SAPS   O12 9491   3.645   5.773   6.308  0.1716  0.3664 -0.3647
   96SAPS   O11 9492   3.486   5.949   6.377  0.7308  0.2058 -0.4908
   96SAPS    C1 9493   3.450   6.053   6.467  0.2038 -0.1409  0.2003
   96SAPS    HA 9494   3.524   6.134   6.451  0.1709 -0.2662 -0.6012
   96SAPS    HB 9495   3.361   6.096   6.417 -1.3785 -1.8690  1.4562
   96SAPS    C2 9496   3.432   6.011   6.607  1.1462 -0.8994 -0.7015
   96SAPS    HS 9497   3.529   6.030   6.657  1.6197 -0.5122 -1.7501
   96SAPS   O21 9498   3.396   5.873   6.618 -1.1252  0.0815 -0.5219
   96SAPS   C21 9499   3.473   5.799   6.696 -0.3283 -0.8361  0.3388
   96SAPS   O22 9500   3.555   5.834   6.777 -0.2533 -0.2478  0.1150
   96SAPS   C22 9501   3.449   5.653   6.672  0.6042  0.1764  0.4221
   96SAPS   H2R 9502   3.341   5.634   6.650  0.6325  0.8094 -0.2643
   96SAPS   H2S 9503   3.506   5.633   6.579 -0.1788  1.0107 -0.2538
   96SAPS    C3 9504   3.333   6.109   6.682  0.4163  0.1735  0.4352
   96SAPS    HX 9505   3.232   6.088   6.639  1.3925 -2.7006 -0.5427
   96SAPS    HY 9506   3.351   6.217   6.663  0.9482  0.2105  1.1414
   96SAPS   O31 9507   3.342   6.096   6.824  0.2164  0.0185 -0.2360
   96SAPS   C31 9508   3.267   6.002   6.880 -0.5567  0.3081 -0.1631
   96SAPS   O32 9509   3.184   5.929   6.823 -0.3453  0.3337  0.2114
   96SAPS   C32 9510   3.310   5.987   7.027 -0.7856  0.2086 -0.7469
   96SAPS   H2X 9511   3.336   6.092   7.052 -1.0516 -0.1412  1.0894
   96SAPS   H2Y 9512   3.408   5.936   7.022 -0.2443  1.3483 -1.9353
   96SAPS   C23 9513   3.491   5.548   6.787  1.1288 -0.2397 -0.0644
   96SAPS   H3R 9514   3.600   5.550   6.812  1.5135  1.5306 -1.6835
   96SAPS   H3S 9515   3.462   5.446   6.754  1.4375 -0.2968 -0.1657
   96SAPS   C24 9516   3.405   5.591   6.912  0.0075  0.4235  0.2640
   96SAPS   H4R 9517   3.407   5.699   6.940  2.0781  0.4292  0.1650
   96SAPS   H4S 9518   3.461   5.544   6.996  1.1408 -2.6862 -2.1334
   96SAPS   C25 9519   3.269   5.537   6.915  0.4751 -0.5281  0.5626
   96SAPS   H5R 9520   3.227   5.531   6.814  0.6788 -0.9129  0.4962
   96SAPS   C26 9521   3.206   5.485   7.025 -0.2487  0.4013  1.0037
   96SAPS   H6R 9522   3.110   5.435   7.007  0.2867 -0.3480  0.1545
   96SAPS   C27 9523   3.249   5.485   7.175 -0.3945 -0.3448  0.8428
   96SAPS   H7R 9524   3.216   5.582   7.217 -0.0436  0.6200 -1.0689
   96SAPS   H7S 9525   3.358   5.498   7.192  0.1438 -2.2035 -0.9197
   96SAPS   C28 9526   3.199   5.362   7.254 -0.4012 -0.8127 -0.1890
   96SAPS   H8R 9527   3.177   5.275   7.190 -1.3222 -0.4677 -0.3560
   96SAPS   C29 9528   3.178   5.362   7.384  0.2349  0.6722 -0.2195
   96SAPS   H9R 9529   3.149   5.263   7.424  0.9794  0.1104 -1.0613
   96SAPS  C210 9530   3.205   5.473   7.479 -1.1465 -0.2399 -0.4406
   96SAPS  H10R 9531   3.154   5.452   7.576 -0.1152  1.8593  0.5918
   96SAPS  H10S 9532   3.162   5.567   7.437 -0.7082  0.1001 -0.1320
   96SAPS  C211 9533   3.347   5.501   7.524  0.0725 -0.1407  0.0205
   96SAPS  H11R 9534   3.425   5.491   7.447  0.0893 -0.0984  0.0325
   96SAPS  C212 9535   3.378   5.538   7.649  0.3821  0.1798  0.1671
   96SAPS  H12R 9536   3.485   5.541   7.678  0.5562 -0.3900 -0.4141
   96SAPS  C213 9537   3.283   5.566   7.765  0.1450  1.0972 -0.6224
   96SAPS  H13R 9538   3.219   5.477   7.784  2.6074 -0.3601  1.1288
   96SAPS  H13S 9539   3.220   5.654   7.738  1.5119  2.1101 -0.5588
   96SAPS  C214 9540   3.370   5.613   7.881 -0.1742  0.3329  0.5652
   96SAPS  H14R 9541   3.445   5.690   7.859  1.0583 -0.8554  0.5338
   96SAPS  C215 9542   3.365   5.562   8.007  0.0092  0.5235  0.0470
   96SAPS  H15R 9543   3.438   5.598   8.081  1.3760 -0.8899 -0.5877
   96SAPS  C216 9544   3.264   5.461   8.052 -0.1376  0.8908 -0.5270
   96SAPS  H16R 9545   3.170   5.471   7.993 -0.4428  3.0000  0.2497
   96SAPS  H16S 9546   3.236   5.488   8.156  0.2308 -0.9509  0.0634
   96SAPS  C217 9547   3.289   5.305   8.039 -0.0746 -0.5312  0.2489
   96SAPS  H17R 9548   3.393   5.284   8.071  0.1775  0.1944 -0.0633
   96SAPS  H17S 9549   3.275   5.279   7.932 -0.6397  1.5936 -0.2231
   96SAPS  C218 9550   3.193   5.226   8.131  0.5438  0.0610 -0.2460
   96SAPS  H18R 9551   3.210   5.121   8.098  0.5679 -0.4097  1.2488
   96SAPS  H18S 9552   3.088   5.254   8.110  0.5534  2.2374  2.4244
   96SAPS  C219 9553   3.227   5.236   8.277  0.1603  0.4861  0.0643
   96SAPS  H19R 9554   3.234   5.342   8.310 -0.9547  0.9722 -1.2400
   96SAPS  H19S 9555   3.327   5.188   8.289 -0.7618 -1.0331  2.1245
   96SAPS  C220 9556   3.120   5.171   8.363 -0.2364  0.1696  0.4320
   96SAPS  H20R 9557   3.021   5.219   8.348 -0.5939 -0.5966  0.3293
   96SAPS  H20S 9558   3.147   5.189   8.470 -0.5177  0.8670  0.3895
   96SAPS  H20T 9559   3.111   5.061   8.353  0.6282  0.3125 -2.3083
   96SAPS   C33 9560   3.202   5.916   7.120 -0.6457  0.5164  0.2542
   96SAPS   H3X 9561   3.164   5.824   7.071  2.0871  0.6920 -2.3761
   96SAPS   H3Y 9562   3.114   5.979   7.146 -0.9562 -0.5020  1.7445
   96SAPS   C34 9563   3.252   5.879   7.252 -0.1234 -0.1029  0.1133
   96SAPS   H4X 9564   3.346   5.820   7.239  0.0450 -0.4026  2.4282
   96SAPS   H4Y 9565   3.174   5.823   7.309  0.3127 -0.7580  0.0766
   96SAPS   C35 9566   3.284   5.994   7.343  0.1004 -0.0668 -0.1125
   96SAPS   H5X 9567   3.207   6.074   7.351  0.2958 -0.1071  2.4256
   96SAPS   H5Y 9568   3.368   6.054   7.302  0.6449 -1.5001 -1.1338
   96SAPS   C36 9569   3.318   5.940   7.481 -0.6623 -0.3614 -0.6649
   96SAPS   H6X 9570   3.411   5.880   7.472 -1.6345 -1.6534 -2.2206
   96SAPS   H6Y 9571   3.240   5.871   7.521 -0.1293 -0.2851  0.5374
   96SAPS   C37 9572   3.337   6.051   7.579 -0.1146 -0.6919  0.1166
   96SAPS   H7X 9573   3.241   6.105   7.595  0.5193  1.3538 -2.5555
   96SAPS   H7Y 9574   3.426   6.109   7.548  1.3692 -3.7351 -1.5040
   96SAPS   C38 9575   3.373   6.001   7.718  0.2703  0.4409 -0.2741
   96SAPS   H8X 9576   3.448   5.923   7.695  0.1607 -0.2942  1.7223
   96SAPS   H8Y 9577   3.283   5.950   7.760 -0.0899  0.5062 -0.9565
   96SAPS   C39 9578   3.427   6.114   7.810  0.3676  0.7215 -0.8159
   96SAPS   H9X 9579   3.348   6.192   7.808 -1.7881 -1.2574  1.6283
   96SAPS   H9Y 9580   3.520   6.149   7.762 -0.3521  1.5851 -1.6015
   96SAPS  C310 9581   3.441   6.073   7.957  0.2210  0.1160  0.5737
   96SAPS  H10X 9582   3.461   5.964   7.957  0.3737  0.1390  1.4333
   96SAPS  H10Y 9583   3.344   6.081   8.010  1.4467  0.6872  2.8037
   96SAPS  C311 9584   3.551   6.155   8.027 -0.3450  0.2373  0.1549
   96SAPS  H11X 9585   3.509   6.258   8.031  1.2886  0.9311 -0.2839
   96SAPS  H11Y 9586   3.648   6.136   7.976  0.2024 -0.6970  1.4933
   96SAPS  C312 9587   3.575   6.108   8.174 -0.0611  0.8454 -0.6897
   96SAPS  H12X 9588   3.659   6.162   8.222  0.0859  1.1188 -1.2539
   96SAPS  H12Y 9589   3.608   6.002   8.177 -1.7758  0.3306  1.5058
   96SAPS  C313 9590   3.454   6.111   8.267  0.1691 -0.7602  0.1521
   96SAPS  H13X 9591   3.378   6.037   8.231  1.1835 -1.3327 -0.8517
   96SAPS  H13Y 9592   3.410   6.212   8.261  1.3162 -0.3431 -1.4643
   96SAPS  C314 9593   3.510   6.078   8.403  0.7562 -0.1640  0.5060
   96SAPS  H14X 9594   3.587   6.152   8.433  1.6237 -0.9051  0.1449
   96SAPS  H14Y 9595   3.555   5.979   8.422 -0.1939 -1.0121 -1.5438
   96SAPS  C315 9596   3.395   6.075   8.508 -0.4912  0.1189 -0.4938
   96SAPS  H15X 9597   3.427   6.026   8.602 -1.3558  3.0554  1.4018
   96SAPS  H15Y 9598   3.322   6.001   8.467  1.1886 -1.0512 -1.4547
   96SAPS  C316 9599   3.336   6.208   8.551 -0.8262  0.1584  0.3806
   96SAPS  H16X 9600   3.248   6.185   8.614 -0.2766  0.7419  1.3593
   96SAPS  H16Y 9601   3.311   6.276   8.466 -0.4504  1.5627  1.3760
   96SAPS  C317 9602   3.427   6.295   8.641 -0.1495 -0.6211  0.3298
   96SAPS  H17X 9603   3.507   6.345   8.582 -1.5212  2.8863  1.3514
   96SAPS  H17Y 9604   3.476   6.231   8.718 -1.2125 -1.7828  0.0646
   96SAPS  C318 9605   3.350   6.408   8.711  0.0195 -0.5889 -0.3156
   96SAPS  H18X 9606   3.309   6.475   8.633 -2.9529 -0.1379  1.5539
   96SAPS  H18Y 9607   3.428   6.469   8.761 -0.7116  0.4026 -0.3848
   96SAPS  H18Z 9608   3.281   6.355   8.781  0.1855 -0.5204 -0.0998
   97SAPS     N 9609   4.987   3.474   6.362 -0.3133 -0.3297  0.2843
   97SAPS   HN1 9610   4.933   3.402   6.414  1.3101 -1.6482  0.1612
   97SAPS   HN2 9611   4.984   3.427   6.269 -1.5951 -0.2949  0.2887
   97SAPS   HN3 9612   5.087   3.481   6.390 -0.3100 -1.5742  0.6267
   97SAPS   C12 9613   4.914   3.601   6.343  0.1133 -0.2065  0.3471
   97SAPS  H12A 9614   4.915   3.669   6.427  2.4170 -0.4100  0.5208
   97SAPS   C13 9615   4.970   3.685   6.224 -0.2705  0.5440 -0.0221
   97SAPS  O13A 9616   5.083   3.654   6.180 -0.0579 -0.4649 -0.5237
   97SAPS  O13B 9617   4.915   3.793   6.194 -0.0008  0.5283  0.0316
   97SAPS   C11 9618   4.767   3.551   6.303 -0.8091  0.6534  0.4006
   97SAPS  H11A 9619   4.773   3.493   6.209 -0.8062  1.3050 -0.0079
   97SAPS  H11B 9620   4.703   3.636   6.271  0.3125  1.5106  0.4136
   97SAPS     P 9621   4.607   3.354   6.393 -0.5585 -0.2133  0.1204
   97SAPS   O13 9622   4.523   3.381   6.274  0.4183  0.2614  0.1885
   97SAPS   O14 9623   4.698   3.237   6.376 -0.8812 -1.3422 -0.1825
   97SAPS   O12 9624   4.709   3.484   6.415  0.5281 -0.2629 -0.0910
   97SAPS   O11 9625   4.525   3.345   6.521  0.1486 -0.7132  0.1232
   97SAPS    C1 9626   4.441   3.462   6.548  0.3063  0.3501  0.2514
   97SAPS    HA 9627   4.512   3.544   6.570  0.2548  0.0443  1.6395
   97SAPS    HB 9628   4.376   3.492   6.463  2.3033  1.3793 -0.9647
   97SAPS    C2 9629   4.366   3.457   6.687 -0.1204 -0.0892  0.0476
   97SAPS    HS 9630   4.358   3.564   6.715 -0.1792  0.3703 -1.6373
   97SAPS   O21 9631   4.440   3.379   6.787  0.0881  0.0719 -0.0539
   97SAPS   C21 9632   4.542   3.442   6.833 -0.3997  0.6289  0.6337
   97SAPS   O22 9633   4.564   3.561   6.820  0.8088  0.0752  0.1499
   97SAPS   C22 9634   4.621   3.342   6.915 -0.3964  0.4819 -0.2438
   97SAPS   H2R 9635   4.653   3.252   6.858 -1.0109  0.1478 -0.0695
   97SAPS   H2S 9636   4.706   3.393   6.965 -0.0904 -0.3929  0.1258
   97SAPS    C3 9637   4.219   3.407   6.679 -0.2081  0.7132 -0.1000
   97SAPS    HX 9638   4.219   3.306   6.633 -0.5578  1.1940 -1.1607
   97SAPS    HY 9639   4.178   3.481   6.608 -0.2885 -0.3287 -1.1545
   97SAPS   O31 9640   4.162   3.419   6.815  0.2689  0.3423  0.5074
   97SAPS   C31 9641   4.141   3.302   6.871 -0.2311 -0.1676  0.1547
   97SAPS   O32 9642   4.164   3.192   6.819  0.3410  0.1958 -0.6298
   97SAPS   C32 9643   4.095   3.324   7.016 -0.1709  0.6329  0.7887
   97SAPS   H2X 9644   3.987   3.347   7.024 -0.6721 -1.7159  1.3027
   97SAPS   H2Y 9645   4.148   3.414   7.052  0.8763  1.4021 -2.5254
   97SAPS   C23 9646   4.537   3.292   7.035  1.3039 -0.0641  0.8209
   97SAPS   H3R 9647   4.451   3.240   6.988  0.5709  0.1476  1.8941
   97SAPS   H3S 9648   4.487   3.368   7.100 -0.0141 -0.6235  0.4839
   97SAPS   C24 9649   4.610   3.189   7.118  0.0296  0.2290  0.0601
   97SAPS   H4R 9650   4.711   3.221   7.150  0.1867 -1.2486  1.1010
   97SAPS   H4S 9651   4.634   3.103   7.051  0.8598 -1.3084  2.2851
   97SAPS   C25 9652   4.519   3.157   7.233  0.8700 -0.4231  0.7289
   97SAPS   H5R 9653   4.418   3.133   7.196  1.1564  0.0623 -0.3788
   97SAPS   C26 9654   4.553   3.169   7.363 -0.1537 -0.0986  0.5663
   97SAPS   H6R 9655   4.473   3.156   7.437 -1.0785  0.6613 -0.2882
   97SAPS   C27 9656   4.689   3.205   7.416  0.3125  0.3089  0.2085
   97SAPS   H7R 9657   4.672   3.253   7.515 -1.0583 -2.5861  1.4272
   97SAPS   H7S 9658   4.742   3.283   7.357  1.9675 -1.3600 -0.5523
   97SAPS   C28 9659   4.781   3.087   7.430 -0.4583 -0.2436 -0.4403
   97SAPS   H8R 9660   4.761   3.007   7.358  2.2028 -1.5401  0.1935
   97SAPS   C29 9661   4.855   3.053   7.537 -0.0785  0.9142 -1.4350
   97SAPS   H9R 9662   4.920   2.965   7.527 -1.0264  0.2163 -1.4755
   97SAPS  C210 9663   4.879   3.121   7.672  0.2264 -0.6324  0.2415
   97SAPS  H10R 9664   4.810   3.207   7.688 -0.8925 -1.3726 -0.5209
   97SAPS  H10S 9665   4.983   3.159   7.674  0.4295 -1.1184 -0.6237
   97SAPS  C211 9666   4.870   3.016   7.785 -0.2977  0.2348  0.1203
   97SAPS  H11R 9667   4.945   2.936   7.772  0.3849  0.9067 -0.1230
   97SAPS  C212 9668   4.782   3.007   7.884 -0.8814 -0.3613 -0.1745
   97SAPS  H12R 9669   4.788   2.923   7.955  0.5930  1.9260  2.5330
   97SAPS  C213 9670   4.660   3.095   7.906 -0.4120  0.1623 -0.5704
   97SAPS  H13R 9671   4.651   3.169   7.823 -0.9827  1.6365  0.7664
   97SAPS  H13S 9672   4.663   3.152   8.002  0.4610 -3.0981  1.4023
   97SAPS  C214 9673   4.539   2.999   7.917 -0.4211  0.5783 -0.3693
   97SAPS  H14R 9674   4.495   2.954   7.827  0.8352 -0.9388 -0.2422
   97SAPS  C215 9675   4.482   2.962   8.031 -0.0521  0.2316  0.9952
   97SAPS  H15R 9676   4.396   2.894   8.028 -1.1287  1.6523 -0.7815
   97SAPS  C216 9677   4.523   3.003   8.171 -0.2542 -0.2434  0.7004
   97SAPS  H16R 9678   4.432   3.013   8.234 -0.7538  0.1500 -0.0718
   97SAPS  H16S 9679   4.579   3.099   8.181  2.4057 -1.3246 -2.7161
   97SAPS  C217 9680   4.615   2.914   8.251  0.1657  0.6689 -0.1690
   97SAPS  H17R 9681   4.689   2.862   8.186 -0.4686 -1.1968  0.5728
   97SAPS  H17S 9682   4.558   2.835   8.303  0.9490  0.8830  1.0648
   97SAPS  C218 9683   4.677   2.999   8.368 -0.0649  0.3647  1.0521
   97SAPS  H18R 9684   4.594   3.051   8.421 -0.4919  0.7306  0.0329
   97SAPS  H18S 9685   4.743   3.076   8.322 -1.0945 -0.9418 -2.8080
   97SAPS  C219 9686   4.765   2.923   8.465 -0.3615  0.2668 -0.1279
   97SAPS  H19R 9687   4.862   2.900   8.415  1.2676  3.9245  1.1737
   97SAPS  H19S 9688   4.725   2.824   8.496  0.7872  0.4510  2.1039
   97SAPS  C220 9689   4.800   3.001   8.594 -0.2730  0.4574 -0.2896
   97SAPS  H20R 9690   4.858   3.090   8.561 -1.0577  0.8686 -0.5553
   97SAPS  H20S 9691   4.869   2.934   8.651 -0.0506 -2.5847 -3.9247
   97SAPS  H20T 9692   4.711   3.024   8.655 -0.7382  2.9363 -1.8682
   97SAPS   C33 9693   4.136   3.215   7.114 -0.0891 -0.0456  0.2052
   97SAPS   H3X 9694   4.242   3.183   7.105 -0.3525 -0.7240 -0.4945
   97SAPS   H3Y 9695   4.084   3.118   7.098  2.2572 -1.3279  0.2226
   97SAPS   C34 9696   4.109   3.253   7.259 -0.3735 -0.2310 -0.4363
   97SAPS   H4X 9697   4.033   3.334   7.258 -2.3851 -2.0314  2.0509
   97SAPS   H4Y 9698   4.200   3.304   7.298 -1.7735  1.4906  0.6302
   97SAPS   C35 9699   4.071   3.131   7.338 -0.5823  0.2754  0.0034
   97SAPS   H5X 9700   4.132   3.040   7.325  1.4501  1.2701  2.0732
   97SAPS   H5Y 9701   3.966   3.104   7.317 -0.7045  1.5047 -1.0135
   97SAPS   C36 9702   4.080   3.164   7.491  0.1331 -0.5223  0.4063
   97SAPS   H6X 9703   4.011   3.241   7.532 -1.9725 -2.2332  0.1162
   97SAPS   H6Y 9704   4.181   3.206   7.514  0.1672 -0.7629  0.6916
   97SAPS   C37 9705   4.061   3.032   7.564 -0.8893  0.5196  0.0692
   97SAPS   H7X 9706   4.134   2.968   7.510 -1.4965 -0.0363 -0.1123
   97SAPS   H7Y 9707   3.952   3.008   7.563 -0.9122  0.5870  0.7530
   97SAPS   C38 9708   4.094   3.031   7.718  0.5380 -0.3435  0.8612
   97SAPS   H8X 9709   4.198   3.069   7.711  0.6417 -0.2332  2.8709
   97SAPS   H8Y 9710   4.083   2.928   7.757  1.3185 -1.5491 -1.9477
   97SAPS   C39 9711   4.006   3.132   7.794  0.1677 -0.3054 -0.0048
   97SAPS   H9X 9712   3.900   3.125   7.762  0.2800  1.7742 -0.8642
   97SAPS   H9Y 9713   4.052   3.228   7.763  1.2479 -1.5022 -2.1832
   97SAPS  C310 9714   4.029   3.114   7.945 -0.1546  0.2125 -0.9685
   97SAPS  H10X 9715   4.137   3.108   7.970 -0.7388  0.4996  1.7962
   97SAPS  H10Y 9716   3.972   3.023   7.974 -1.2815  0.0522 -3.5189
   97SAPS  C311 9717   3.986   3.242   8.022  0.2707 -0.3051  0.0036
   97SAPS  H11X 9718   3.880   3.248   7.988  0.6748  2.0508 -0.9349
   97SAPS  H11Y 9719   4.050   3.323   7.980  0.9754 -1.5987 -1.4518
   97SAPS  C312 9720   4.012   3.219   8.170  0.0536  0.5674  0.2538
   97SAPS  H12X 9721   4.112   3.171   8.179 -0.2039 -0.3074 -1.2097
   97SAPS  H12Y 9722   3.931   3.156   8.212  0.3589 -0.6515 -0.9422
   97SAPS  C313 9723   4.014   3.351   8.242  0.4153  0.3311  0.0683
   97SAPS  H13X 9724   3.921   3.402   8.208  0.2603  0.7707  1.1311
   97SAPS  H13Y 9725   4.099   3.414   8.208  1.7421 -0.8088  1.2373
   97SAPS  C314 9726   4.021   3.339   8.394 -0.2336  0.2647  0.2743
   97SAPS  H14X 9727   3.933   3.273   8.413  0.2406 -0.2388  0.7750
   97SAPS  H14Y 9728   3.997   3.435   8.444 -0.3829 -0.3455  1.4008
   97SAPS  C315 9729   4.146   3.277   8.450 -0.1810 -0.1237  0.4098
   97SAPS  H15X 9730   4.227   3.351   8.435 -0.6150  0.1962 -0.3613
   97SAPS  H15Y 9731   4.170   3.190   8.384 -1.0853 -0.9515  1.1475
   97SAPS  C316 9732   4.138   3.214   8.593  0.1661 -0.5956  0.3228
   97SAPS  H16X 9733   4.061   3.136   8.610  0.4128 -0.3361  2.7896
   97SAPS  H16Y 9734   4.102   3.298   8.657 -2.0349 -1.1232 -0.2045
   97SAPS  C317 9735   4.269   3.158   8.639 -0.5982  0.3919  0.3192
   97SAPS  H17X 9736   4.339   3.243   8.620  1.0162 -1.2747 -1.4517
   97SAPS  H17Y 9737   4.321   3.088   8.570 -1.2269  1.6478 -1.4990
   97SAPS  C318 9738   4.259   3.116   8.787  0.2386  0.3810 -0.7155
   97SAPS  H18X 9739   4.356   3.079   8.828  0.6409  0.4911 -1.5612
   97SAPS  H18Y 9740   4.177   3.044   8.807  1.8745 -1.9914 -2.3359
   97SAPS  H18Z 9741   4.223   3.199   8.852  3.0716  0.7503  0.4661
   98SAPS     N 9742   1.692   3.223   5.838  0.5576 -0.7376 -0.2454
   98SAPS   HN1 9743   1.704   3.292   5.761 -0.7066 -0.6243 -0.3532
   98SAPS   HN2 9744   1.768   3.225   5.908  0.0042 -1.7497  0.3938
   98SAPS   HN3 9745   1.685   3.129   5.794  1.5491 -1.4311  1.0549
   98SAPS   C12 9746   1.558   3.248   5.914  0.7032  1.0502 -0.6610
   98SAPS  H12A 9747   1.472   3.245   5.849  0.1878 -0.4134  0.0666
   98SAPS   C13 9748   1.527   3.143   6.027  0.2190  0.0068  0.6180
   98SAPS  O13A 9749   1.614   3.053   6.052 -0.1041  0.4151 -0.1728
   98SAPS  O13B 9750   1.436   3.164   6.111 -0.3123 -0.1161 -0.3589
   98SAPS   C11 9751   1.557   3.394   5.957 -0.1925  1.2753  0.2934
   98SAPS  H11A 9752   1.454   3.409   5.998  0.5184  0.9975  2.2302
   98SAPS  H11B 9753   1.562   3.459   5.868 -0.7202  1.7506  0.6056
   98SAPS     P 9754   1.635   3.561   6.132  0.0015 -0.2312  0.1745
   98SAPS   O13 9755   1.611   3.676   6.049 -0.6803  0.1822 -0.2725
   98SAPS   O14 9756   1.528   3.529   6.227  1.1394 -0.0414 -0.6009
   98SAPS   O12 9757   1.659   3.430   6.054 -0.4839  0.0867  0.3136
   98SAPS   O11 9758   1.770   3.574   6.206  0.2556  0.1616  0.0953
   98SAPS    C1 9759   1.863   3.473   6.240  0.7713 -0.4803 -0.2738
   98SAPS    HA 9760   1.855   3.394   6.163 -2.5773 -0.3483 -0.1649
   98SAPS    HB 9761   1.960   3.527   6.239  1.9806 -2.5949  0.3278
   98SAPS    C2 9762   1.826   3.416   6.382  0.2919 -0.2423  0.4871
   98SAPS    HS 9763   1.730   3.363   6.363  0.5152 -0.4074 -0.1924
   98SAPS   O21 9764   1.812   3.522   6.481  0.4633  0.2437  0.5841
   98SAPS   C21 9765   1.706   3.545   6.537  0.6345  0.2260 -0.6506
   98SAPS   O22 9766   1.600   3.496   6.513  0.0904  0.0566  0.1477
   98SAPS   C22 9767   1.720   3.649   6.651  0.6440 -0.4855  0.1956
   98SAPS   H2R 9768   1.791   3.613   6.727 -0.6302 -0.0242  1.6327
   98SAPS   H2S 9769   1.746   3.750   6.613  2.7659 -0.8099  0.7529
   98SAPS    C3 9770   1.925   3.303   6.418  0.4077  0.0171 -0.1109
   98SAPS    HX 9771   2.020   3.357   6.438  0.6927  0.2064 -1.9029
   98SAPS    HY 9772   1.945   3.229   6.338  2.3587 -0.2828  0.6301
   98SAPS   O31 9773   1.879   3.226   6.532 -0.1808  0.2624  0.4714
   98SAPS   C31 9774   1.928   3.243   6.651 -0.5370 -0.7585  0.0389
   98SAPS   O32 9775   2.007   3.323   6.694  0.0356 -0.2033 -0.0066
   98SAPS   C32 9776   1.872   3.133   6.744  0.2001  0.2208  0.1676
   98SAPS   H2X 9777   1.945   3.050   6.751 -1.7870 -1.7963 -2.0816
   98SAPS   H2Y 9778   1.786   3.087   6.690 -0.2827 -1.8433  2.5944
   98SAPS   C23 9779   1.589   3.660   6.741  0.1301 -1.2323  0.8700
   98SAPS   H3R 9780   1.550   3.556   6.755  1.7965 -1.8970  0.6872
   98SAPS   H3S 9781   1.512   3.713   6.681  0.2080  0.7152  2.4493
   98SAPS   C24 9782   1.625   3.735   6.872  0.2928 -0.0055 -0.1562
   98SAPS   H4R 9783   1.657   3.834   6.834 -3.0841  1.2085 -0.0685
   98SAPS   H4S 9784   1.710   3.696   6.931  0.6845  0.7531 -0.2210
   98SAPS   C25 9785   1.504   3.736   6.962  0.6021 -0.4441 -0.3277
   98SAPS   H5R 9786   1.479   3.633   6.992  0.5993 -0.7893 -1.4928
   98SAPS   C26 9787   1.438   3.841   7.010 -0.0161 -0.3652  0.5046
   98SAPS   H6R 9788   1.368   3.825   7.094 -0.4578 -2.5035 -0.2458
   98SAPS   C27 9789   1.468   3.986   6.976 -0.0936  0.4667 -1.0679
   98SAPS   H7R 9790   1.454   4.001   6.867  0.0480 -1.5971 -1.3860
   98SAPS   H7S 9791   1.573   4.020   6.990  0.3303 -1.6417  1.0541
   98SAPS   C28 9792   1.380   4.091   7.034  1.0363  0.5877  0.5194
   98SAPS   H8R 9793   1.294   4.102   6.966  0.9528 -3.2723 -0.1047
   98SAPS   C29 9794   1.369   4.150   7.153  0.2333  0.0191  0.2235
   98SAPS   H9R 9795   1.286   4.220   7.168 -2.6725 -2.9567 -1.3025
   98SAPS  C210 9796   1.469   4.119   7.264  0.7978 -1.1135  0.8471
   98SAPS  H10R 9797   1.477   4.215   7.319 -0.6696 -1.9046  2.4910
   98SAPS  H10S 9798   1.568   4.114   7.213  0.1080  0.2194 -0.6980
   98SAPS  C211 9799   1.422   4.008   7.355  0.5673  0.5205 -1.0242
   98SAPS  H11R 9800   1.332   4.029   7.415  2.4026  1.9907  1.3705
   98SAPS  C212 9801   1.490   3.902   7.393 -0.2483 -0.3140  0.5091
   98SAPS  H12R 9802   1.443   3.820   7.448  0.1228 -3.0150 -3.0546
   98SAPS  C213 9803   1.628   3.862   7.343 -0.5381 -0.6082  0.3785
   98SAPS  H13R 9804   1.633   3.849   7.232  1.9764 -0.6859  0.4739
   98SAPS  H13S 9805   1.639   3.754   7.367  1.0153 -0.7134 -0.7296
   98SAPS  C214 9806   1.734   3.948   7.397 -0.0268 -0.3095  0.7364
   98SAPS  H14R 9807   1.724   4.057   7.403 -0.9456 -0.1995 -2.1441
   98SAPS  C215 9808   1.857   3.904   7.416 -0.7009 -0.0156 -0.4208
   98SAPS  H15R 9809   1.934   3.970   7.459 -2.3213  0.7963  1.3106
   98SAPS  C216 9810   1.902   3.759   7.387  0.2033 -0.0673 -0.0477
   98SAPS  H16R 9811   1.826   3.686   7.355 -0.7406  0.1503  1.6399
   98SAPS  H16S 9812   1.936   3.710   7.481  2.1159 -0.3102 -0.8428
   98SAPS  C217 9813   2.025   3.741   7.293 -0.0818 -0.0426 -0.6214
   98SAPS  H17R 9814   2.050   3.633   7.280  2.3912  0.6676 -1.9702
   98SAPS  H17S 9815   2.110   3.794   7.341 -1.7213  1.0273  1.1592
   98SAPS  C218 9816   2.007   3.794   7.155  0.7695  0.8052 -0.1737
   98SAPS  H18R 9817   1.978   3.901   7.147 -0.4875  0.3895 -1.3086
   98SAPS  H18S 9818   1.927   3.742   7.098  1.7355  0.4418 -1.1979
   98SAPS  C219 9819   2.142   3.757   7.088  0.6528  0.0654  0.5106
   98SAPS  H19R 9820   2.196   3.681   7.147  0.7644  0.2149  0.6009
   98SAPS  H19S 9821   2.200   3.852   7.086 -3.4438  2.6989  0.1418
   98SAPS  C220 9822   2.135   3.706   6.948  0.0336 -1.1250 -0.0796
   98SAPS  H20R 9823   2.228   3.677   6.894  0.0104  0.9872 -1.2992
   98SAPS  H20S 9824   2.075   3.781   6.892  2.0691  1.5349  1.1921
   98SAPS  H20T 9825   2.078   3.610   6.946  1.2881 -1.9248  1.1606
   98SAPS   C33 9826   1.846   3.186   6.882 -0.9598 -0.3837  0.5190
   98SAPS   H3X 9827   1.938   3.238   6.917 -0.4291 -1.5610  0.9259
   98SAPS   H3Y 9828   1.832   3.111   6.963 -0.9103  1.7589  2.5976
   98SAPS   C34 9829   1.723   3.281   6.890  0.4572  0.3267  0.5054
   98SAPS   H4X 9830   1.629   3.234   6.853 -0.5872  1.8861  1.1088
   98SAPS   H4Y 9831   1.745   3.369   6.826  0.7022 -1.5830 -2.1446
   98SAPS   C35 9832   1.696   3.333   7.034  0.0344  0.9597 -0.5095
   98SAPS   H5X 9833   1.654   3.244   7.087 -1.5368  1.8726 -0.2088
   98SAPS   H5Y 9834   1.623   3.415   7.024 -0.2135  0.8422  0.2776
   98SAPS   C36 9835   1.827   3.370   7.112 -0.2690  0.1388 -0.3502
   98SAPS   H6X 9836   1.889   3.451   7.067 -0.2251  2.4457  3.6797
   98SAPS   H6Y 9837   1.899   3.286   7.105 -0.2649  0.1764 -0.7991
   98SAPS   C37 9838   1.803   3.388   7.266 -0.5753  0.3725 -0.8137
   98SAPS   H7X 9839   1.732   3.308   7.296  0.9276 -0.9133 -0.5614
   98SAPS   H7Y 9840   1.749   3.482   7.292  3.3056  2.5444 -0.1713
   98SAPS   C38 9841   1.923   3.364   7.357 -0.3938  0.9207  0.2280
   98SAPS   H8X 9842   1.998   3.443   7.337 -1.4877  2.2053  1.1217
   98SAPS   H8Y 9843   1.972   3.266   7.341 -2.1769 -0.1811  1.3041
   98SAPS   C39 9844   1.888   3.378   7.507  0.1664  0.2813 -0.3325
   98SAPS   H9X 9845   1.832   3.472   7.523 -2.2099 -1.1752  0.2321
   98SAPS   H9Y 9846   1.984   3.380   7.563  0.4200  0.4242 -0.7736
   98SAPS  C310 9847   1.818   3.251   7.563 -0.5363 -0.1615 -0.0328
   98SAPS  H10X 9848   1.883   3.171   7.522  2.0623  0.9280  1.8589
   98SAPS  H10Y 9849   1.716   3.242   7.520 -0.6026  2.6531 -0.6130
   98SAPS  C311 9850   1.832   3.253   7.712  0.0278  0.1891 -0.9281
   98SAPS  H11X 9851   1.813   3.356   7.750  0.3562  0.1203 -0.5795
   98SAPS  H11Y 9852   1.934   3.223   7.742 -0.7131 -0.6737  0.8114
   98SAPS  C312 9853   1.749   3.143   7.785  0.0900 -0.2445 -0.2446
   98SAPS  H12X 9854   1.797   3.043   7.784  1.2026  0.2792 -0.3676
   98SAPS  H12Y 9855   1.657   3.143   7.723  0.7669  0.0019 -1.2709
   98SAPS  C313 9856   1.718   3.186   7.938 -0.9416  0.6047 -0.1230
   98SAPS  H13X 9857   1.629   3.129   7.971 -0.2938 -0.6907 -0.5759
   98SAPS  H13Y 9858   1.694   3.294   7.943  1.1612  1.0523  1.2111
   98SAPS  C314 9859   1.838   3.156   8.025 -0.6506  0.1315  0.5907
   98SAPS  H14X 9860   1.926   3.220   8.004  1.2046 -2.3835  0.4729
   98SAPS  H14Y 9861   1.863   3.049   8.010 -0.4289 -0.0042  1.9352
   98SAPS  C315 9862   1.792   3.170   8.166  0.2153  0.4898  0.4373
   98SAPS  H15X 9863   1.704   3.107   8.190 -0.0678  0.4923 -0.5984
   98SAPS  H15Y 9864   1.774   3.276   8.195  1.3596  0.1951  2.3399
   98SAPS  C316 9865   1.906   3.138   8.274  0.7461 -0.5520 -0.0120
   98SAPS  H16X 9866   1.993   3.201   8.246 -0.4459  1.6720  1.1450
   98SAPS  H16Y 9867   1.931   3.030   8.278  0.3851 -0.6443 -0.2461
   98SAPS  C317 9868   1.856   3.171   8.412  0.0715 -0.7315  0.5775
   98SAPS  H17X 9869   1.771   3.102   8.433 -1.2504  0.3588 -1.1097
   98SAPS  H17Y 9870   1.826   3.278   8.412  1.3748 -0.3622  0.5769
   98SAPS  C318 9871   1.963   3.141   8.515 -0.2440 -0.1040 -0.0657
   98SAPS  H18X 9872   2.048   3.209   8.496 -0.0499 -0.3323 -0.0182
   98SAPS  H18Y 9873   2.008   3.040   8.503  1.2165  0.0759  3.2848
   98SAPS  H18Z 9874   1.922   3.148   8.619  3.2444  0.1631  1.3496
   99SAPS     N 9875   0.230   6.684   5.990 -0.0791  0.2492 -0.4262
   99SAPS   HN1 9876   0.166   6.711   6.068 -0.7204  2.1236 -1.5702
   99SAPS   HN2 9877   0.195   6.598   5.943  0.1957 -0.7263  1.1105
   99SAPS   HN3 9878   0.320   6.655   6.034  0.3499  1.1604 -0.6861
   99SAPS   C12 9879   0.238   6.797   5.900  0.3512  0.3569 -0.0339
   99SAPS  H12A 9880   0.307   6.779   5.819  0.0590 -0.1031 -0.1823
   99SAPS   C13 9881   0.104   6.834   5.824  0.1772 -0.8356  0.5836
   99SAPS  O13A 9882  -0.001   6.766   5.846  1.3677  0.0640 -0.2538
   99SAPS  O13B 9883   0.102   6.933   5.748 -0.9000  0.1896 -0.0881
   99SAPS   C11 9884   0.288   6.924   5.976 -0.0317 -0.2326 -0.3149
   99SAPS  H11A 9885   0.217   6.968   6.050  0.7403 -1.1307  0.9829
   99SAPS  H11B 9886   0.314   6.997   5.896  0.1482  1.9463  1.6722
   99SAPS     P 9887   0.440   6.927   6.186 -0.2681 -0.2417  0.2130
   99SAPS   O13 9888   0.327   6.861   6.259 -0.4515 -0.3823 -0.3132
   99SAPS   O14 9889   0.577   6.883   6.228 -0.0898 -0.0265 -0.4451
   99SAPS   O12 9890   0.418   6.897   6.034  0.2072  0.1385  0.4481
   99SAPS   O11 9891   0.442   7.086   6.200 -0.1520  0.1832  0.7578
   99SAPS    C1 9892   0.396   7.145   6.320  0.4752 -1.0527 -0.2632
   99SAPS    HA 9893   0.377   7.251   6.295 -2.3803 -0.8205  2.5191
   99SAPS    HB 9894   0.305   7.092   6.357  1.3308 -0.3392  3.0142
   99SAPS    C2 9895   0.511   7.147   6.436 -0.4340 -0.6678  0.9238
   99SAPS    HS 9896   0.527   7.044   6.473  0.1938 -0.6979  0.5757
   99SAPS   O21 9897   0.475   7.235   6.542  0.1697 -0.5154  0.5002
   99SAPS   C21 9898   0.373   7.194   6.613 -0.6960 -0.8909 -0.5276
   99SAPS   O22 9899   0.322   7.085   6.611  0.2317 -0.5895 -0.5428
   99SAPS   C22 9900   0.346   7.313   6.703 -0.2231 -0.5734 -0.4651
   99SAPS   H2R 9901   0.441   7.345   6.751 -1.3849 -0.0698  1.5453
   99SAPS   H2S 9902   0.309   7.394   6.637  1.4089  0.2196 -0.4082
   99SAPS    C3 9903   0.646   7.203   6.381 -0.3136  0.0204  0.2649
   99SAPS    HX 9904   0.618   7.304   6.343  2.8312 -0.0348 -2.3695
   99SAPS    HY 9905   0.692   7.146   6.298 -1.7912 -0.7273 -0.0549
   99SAPS   O31 9906   0.743   7.228   6.487 -0.0199  0.2104  0.6166
   99SAPS   C31 9907   0.796   7.112   6.541  0.0925 -0.4113 -0.0608
   99SAPS   O32 9908   0.780   6.999   6.510  0.1082 -0.5796 -0.7063
   99SAPS   C32 9909   0.886   7.161   6.661  0.7263  0.6495  0.0519
   99SAPS   H2X 9910   0.947   7.241   6.614  1.1989 -0.7798 -1.8278
   99SAPS   H2Y 9911   0.949   7.071   6.678 -0.0154 -0.2875 -2.0078
   99SAPS   C23 9912   0.241   7.308   6.814  0.1890 -0.7905 -0.2218
   99SAPS   H3R 9913   0.151   7.252   6.781 -2.2131  1.1576  2.7412
   99SAPS   H3S 9914   0.220   7.411   6.851 -1.2233 -1.6869  1.6104
   99SAPS   C24 9915   0.294   7.228   6.931  0.0531  0.4124  0.5334
   99SAPS   H4R 9916   0.248   7.275   7.021 -0.5465 -0.1457  0.5226
   99SAPS   H4S 9917   0.403   7.241   6.946  0.1015  0.7506 -0.0865
   99SAPS   C25 9918   0.264   7.082   6.923  0.0564  0.6025 -0.1652
   99SAPS   H5R 9919   0.294   7.019   6.838 -3.9409 -1.6592 -0.0205
   99SAPS   C26 9920   0.204   7.004   7.019  0.2204  0.2019 -0.3367
   99SAPS   H6R 9921   0.173   6.902   6.994  0.4460 -0.6338  2.6399
   99SAPS   C27 9922   0.164   7.067   7.152 -0.9742 -0.6378  0.3218
   99SAPS   H7R 9923   0.117   7.168   7.146 -0.5022 -0.3292  1.5238
   99SAPS   H7S 9924   0.257   7.069   7.213  0.0356 -0.7140 -1.1881
   99SAPS   C28 9925   0.056   6.990   7.227 -0.7801  0.0814 -0.1089
   99SAPS   H8R 9926  -0.028   6.946   7.174 -0.2264 -1.3936  0.2163
   99SAPS   C29 9927   0.053   6.976   7.357  0.2062 -0.1953 -0.0323
   99SAPS   H9R 9928  -0.029   6.922   7.407  0.5619 -1.7991 -1.1377
   99SAPS  C210 9929   0.152   7.038   7.461  0.4223  1.2301 -0.1350
   99SAPS  H10R 9930   0.229   7.113   7.432  1.2708 -0.8966 -3.7428
   99SAPS  H10S 9931   0.203   6.950   7.508 -1.2213  0.9156  1.1017
   99SAPS  C211 9932   0.066   7.106   7.566  0.6467 -1.0167  0.4825
   99SAPS  H11R 9933   0.044   7.212   7.549  0.7352 -1.3436 -1.8006
   99SAPS  C212 9934   0.008   7.042   7.670  0.3997  0.0180  0.0811
   99SAPS  H12R 9935  -0.055   7.095   7.743 -2.2345 -0.8102 -1.5042
   99SAPS  C213 9936   0.026   6.893   7.713  0.6064 -0.0161 -0.2760
   99SAPS  H13R 9937   0.123   6.895   7.768  0.4179 -0.9942  0.0981
   99SAPS  H13S 9938   0.040   6.816   7.634 -1.8816 -0.2124 -0.5377
   99SAPS  C214 9939  -0.087   6.826   7.794 -0.3270  0.1380  0.7224
   99SAPS  H14R 9940  -0.136   6.751   7.731  1.5337  0.4825 -1.1742
   99SAPS  C215 9941  -0.121   6.842   7.924  0.2281  0.4608 -0.2649
   99SAPS  H15R 9942  -0.199   6.774   7.959  0.8123 -0.4958 -0.7783
   99SAPS  C216 9943  -0.059   6.927   8.024  0.5085 -0.6528 -0.3384
   99SAPS  H16R 9944  -0.137   6.962   8.096 -1.3822 -1.5947 -1.8891
   99SAPS  H16S 9945  -0.028   7.021   7.974 -2.4319  1.6269  1.9046
   99SAPS  C217 9946   0.065   6.874   8.097 -0.0763 -0.4827  0.6459
   99SAPS  H17R 9947   0.093   6.955   8.167  1.2851 -0.9887  0.6951
   99SAPS  H17S 9948   0.142   6.863   8.018  0.4142 -3.2529  1.4478
   99SAPS  C218 9949   0.054   6.744   8.182 -0.5225 -0.1463  0.0974
   99SAPS  H18R 9950   0.055   6.665   8.104 -0.1549 -1.3947  1.3554
   99SAPS  H18S 9951  -0.045   6.750   8.232 -1.4071 -0.1234 -1.6034
   99SAPS  C219 9952   0.164   6.715   8.285 -0.2786 -0.8296  0.5282
   99SAPS  H19R 9953   0.157   6.799   8.356 -0.6450  1.0721 -1.7031
   99SAPS  H19S 9954   0.260   6.726   8.230 -2.0845  1.0623 -2.3394
   99SAPS  C220 9955   0.152   6.571   8.335 -0.7963  0.0488 -0.0425
   99SAPS  H20R 9956   0.188   6.508   8.251 -3.2089  0.4893 -1.4443
   99SAPS  H20S 9957   0.046   6.544   8.353 -0.3381 -0.9818  1.2270
   99SAPS  H20T 9958   0.209   6.566   8.431 -0.2819 -0.8801 -0.3846
   99SAPS   C33 9959   0.814   7.202   6.792  0.5243  0.4426 -0.2317
   99SAPS   H3X 9960   0.737   7.281   6.778 -0.1535  0.0252  0.9665
   99SAPS   H3Y 9961   0.890   7.229   6.868 -0.0414 -0.5555  0.7134
   99SAPS   C34 9962   0.734   7.081   6.849 -0.8289  0.5046  0.1755
   99SAPS   H4X 9963   0.812   7.009   6.881  0.0492  1.8027  1.0183
   99SAPS   H4Y 9964   0.665   7.045   6.770 -0.1827 -1.8733  0.6572
   99SAPS   C35 9965   0.658   7.126   6.972  0.1139  0.0791  0.5681
   99SAPS   H5X 9966   0.559   7.078   6.988  0.9629 -1.5810  1.0249
   99SAPS   H5Y 9967   0.644   7.236   6.970 -0.5452  0.0117  1.1442
   99SAPS   C36 9968   0.731   7.098   7.107 -0.6049 -0.1311  0.0930
   99SAPS   H6X 9969   0.765   7.197   7.143  2.5795 -1.0208 -0.2884
   99SAPS   H6Y 9970   0.823   7.042   7.078 -0.6641  0.1318 -0.6121
   99SAPS   C37 9971   0.647   7.033   7.212  0.3043 -0.9830  0.3525
   99SAPS   H7X 9972   0.629   6.929   7.180 -2.7568  0.1674 -1.8448
   99SAPS   H7Y 9973   0.547   7.077   7.232 -0.0289 -1.6132  0.0638
   99SAPS   C38 9974   0.717   7.012   7.343 -0.5824 -0.1782  0.0919
   99SAPS   H8X 9975   0.812   6.958   7.320 -0.9215 -1.0399  0.6963
   99SAPS   H8Y 9976   0.653   6.939   7.397 -0.8789 -0.4272 -0.5909
   99SAPS   C39 9977   0.723   7.141   7.427  0.1527  0.2821  0.0992
   99SAPS   H9X 9978   0.623   7.188   7.422  0.4404  0.7155 -1.8856
   99SAPS   H9Y 9979   0.790   7.211   7.373 -1.2434  0.6342 -1.1990
   99SAPS  C310 9980   0.778   7.127   7.576 -0.5687  0.1551 -0.7290
   99SAPS  H10X 9981   0.806   7.226   7.618 -1.8914  0.6793 -1.0701
   99SAPS  H10Y 9982   0.876   7.075   7.570 -0.2347  0.3328  2.3721
   99SAPS  C311 9983   0.669   7.062   7.661  0.2156  0.3750 -0.5983
   99SAPS  H11X 9984   0.647   6.961   7.619  1.0426  0.3788 -1.0667
   99SAPS  H11Y 9985   0.575   7.120   7.651 -0.4460 -0.7283 -0.8729
   99SAPS  C312 9986   0.696   7.066   7.818  0.5264  0.8396 -0.0522
   99SAPS  H12X 9987   0.731   7.169   7.842  2.8215  0.2635 -0.8391
   99SAPS  H12Y 9988   0.763   6.983   7.847 -1.1244 -0.3423  0.4556
   99SAPS  C313 9989   0.566   7.037   7.891  0.3509 -0.5727 -0.2748
   99SAPS  H13X 9990   0.545   6.932   7.860  1.4717 -0.7302 -0.5448
   99SAPS  H13Y 9991   0.489   7.102   7.846  0.3266 -0.6093 -0.2864
   99SAPS  C314 9992   0.584   7.049   8.042  0.2426  0.6843  0.3370
   99SAPS  H14X 9993   0.617   7.149   8.077 -0.8387  0.8482  0.8785
   99SAPS  H14Y 9994   0.675   6.985   8.050 -1.5185 -1.9052  0.0776
   99SAPS  C315 9995   0.479   6.975   8.140 -0.4135  0.3790  0.1770
   99SAPS  H15X 9996   0.526   6.928   8.229  0.7915  1.0493 -0.0849
   99SAPS  H15Y 9997   0.429   6.899   8.077 -1.1233  0.6928  0.3568
   99SAPS  C316 9998   0.360   7.061   8.198 -0.4872  0.4191  0.3230
   99SAPS  H16X 9999   0.282   6.994   8.238  0.7136 -0.7013  0.8053
   99SAPS  H16Y10000   0.330   7.125   8.112 -0.9376  2.4377  1.9588
   99SAPS  C31710001   0.418   7.146   8.315 -0.0485 -0.2398  0.3704
   99SAPS  H17X10002   0.353   7.235   8.303  1.1191  0.3894 -1.5894
   99SAPS  H17Y10003   0.520   7.182   8.288 -0.7216  0.6590 -1.0464
   99SAPS  C31810004   0.401   7.087   8.458  0.6155 -0.5854  0.2742
   99SAPS  H18X10005   0.475   7.005   8.471  0.1255 -0.8847  1.2448
   99SAPS  H18Y10006   0.299   7.045   8.475  0.1031  0.7502  0.5139
   99SAPS  H18Z10007   0.424   7.154   8.544 -0.1142  0.8338 -0.6226
  100SAPS     N10008   4.061   2.950   6.696  0.1062  0.9455  0.2801
  100SAPS   HN110009   4.094   3.032   6.751 -0.1406  1.6172 -0.5651
  100SAPS   HN210010   3.979   2.901   6.737 -0.4560  2.3649  0.9165
  100SAPS   HN310011   4.143   2.887   6.692 -0.8872 -0.2645 -1.3823
  100SAPS   C1210012   4.019   2.985   6.555  0.1542 -0.3053 -0.3632
  100SAPS  H12A10013   3.965   2.904   6.509  2.5390 -2.4546  0.4714
  100SAPS   C1310014   3.928   3.104   6.539  0.6952  0.9658 -0.0622
  100SAPS  O13A10015   3.890   3.181   6.638 -0.3240 -0.1232  0.5017
  100SAPS  O13B10016   3.874   3.121   6.432 -0.2207 -0.5388 -0.3754
  100SAPS   C1110017   4.147   3.031   6.485  0.4109  0.6925 -0.4700
  100SAPS  H11A10018   4.190   3.120   6.536  1.2452 -0.0044  0.0593
  100SAPS  H11B10019   4.124   3.058   6.380  0.5191 -1.6702 -1.1161
  100SAPS     P10020   4.373   2.932   6.391  0.3552  0.2365 -0.2078
  100SAPS   O1310021   4.425   2.796   6.357  0.4172  0.3636 -0.5667
  100SAPS   O1410022   4.337   3.016   6.276  0.0226 -0.1522  1.2870
  100SAPS   O1210023   4.237   2.928   6.486  0.3653  0.0919  0.0207
  100SAPS   O1110024   4.487   3.005   6.468  0.0219 -0.6814  0.6061
  100SAPS    C110025   4.488   3.042   6.604  0.2569 -0.1732  0.2926
  100SAPS    HA10026   4.560   3.121   6.632  1.6154 -1.2670 -0.0657
  100SAPS    HB10027   4.389   3.082   6.633 -0.3180 -0.8067 -0.7602
  100SAPS    C210028   4.535   2.913   6.677  0.4125 -0.5646  0.8434
  100SAPS    HS10029   4.481   2.823   6.640 -1.6924  0.1835  2.0618
  100SAPS   O2110030   4.530   2.928   6.819  0.4990 -0.2539  0.0432
  100SAPS   C2110031   4.420   2.872   6.875 -0.3136 -0.6760 -0.6374
  100SAPS   O2210032   4.327   2.828   6.812 -0.4887  0.3062  0.5005
  100SAPS   C2210033   4.434   2.873   7.031 -0.4634 -0.4056 -0.5714
  100SAPS   H2R10034   4.533   2.827   7.056 -0.3728  1.2389  2.3070
  100SAPS   H2S10035   4.434   2.979   7.064  0.4775 -1.4461  2.9508
  100SAPS    C310036   4.684   2.885   6.640  0.1900 -0.2370 -0.8890
  100SAPS    HX10037   4.750   2.964   6.683 -2.4726  2.7651 -2.1440
  100SAPS    HY10038   4.690   2.896   6.529  2.4581  0.9349 -0.6867
  100SAPS   O3110039   4.741   2.762   6.682 -0.0671  0.1054  0.0480
  100SAPS   C3110040   4.719   2.646   6.629  0.2450 -0.0684  0.4984
  100SAPS   O3210041   4.670   2.627   6.517  0.2474  0.0617 -0.2539
  100SAPS   C3210042   4.750   2.530   6.725  0.3406  0.2802  0.2800
  100SAPS   H2X10043   4.850   2.484   6.710  0.5872  1.1839 -0.9794
  100SAPS   H2Y10044   4.671   2.454   6.708  0.2943  0.4139 -0.1169
  100SAPS   C2310045   4.315   2.801   7.083  0.0330 -0.3001 -0.9319
  100SAPS   H3R10046   4.294   2.713   7.019 -3.0673 -0.6164  0.4505
  100SAPS   H3S10047   4.222   2.861   7.073 -0.0530 -0.1406  0.6856
  100SAPS   C2410048   4.335   2.770   7.237 -0.0185  0.5143 -0.3767
  100SAPS   H4R10049   4.351   2.871   7.281 -0.1637 -0.1646  1.2838
  100SAPS   H4S10050   4.434   2.719   7.235  1.2757  2.7192  3.3456
  100SAPS   C2510051   4.227   2.692   7.301  0.2885  0.4142 -0.0309
  100SAPS   H5R10052   4.132   2.678   7.247 -2.0424  2.4207  3.3612
  100SAPS   C2610053   4.217   2.647   7.425 -0.3936 -0.7902 -0.1122
  100SAPS   H6R10054   4.134   2.578   7.446 -0.3629 -0.8614 -0.2230
  100SAPS   C2710055   4.298   2.665   7.547 -0.7047 -1.0219 -0.5736
  100SAPS   H7R10056   4.235   2.691   7.635  1.4842  0.5864  0.5770
  100SAPS   H7S10057   4.364   2.753   7.528 -0.3193 -1.2075 -0.0927
  100SAPS   C2810058   4.383   2.542   7.586  0.1321 -0.3040  0.1395
  100SAPS   H8R10059   4.399   2.460   7.516  0.8665 -0.8657  0.9547
  100SAPS   C2910060   4.454   2.529   7.702 -0.6088 -0.5879 -0.1135
  100SAPS   H9R10061   4.533   2.453   7.710  0.1067 -0.2134 -2.9695
  100SAPS  C21010062   4.463   2.641   7.807  0.1084 -0.2326 -0.0200
  100SAPS  H10R10063   4.384   2.718   7.799  2.2227  1.9218 -0.9909
  100SAPS  H10S10064   4.555   2.702   7.795  0.5931 -0.9012  0.2796
  100SAPS  C21110065   4.475   2.586   7.951 -0.1238 -0.1370  0.0455
  100SAPS  H11R10066   4.577   2.578   7.990  0.1632 -1.4360 -0.9376
  100SAPS  C21210067   4.366   2.564   8.031  0.2089 -0.4760 -0.5350
  100SAPS  H12R10068   4.393   2.523   8.129  0.8078 -2.7065 -1.5814
  100SAPS  C21310069   4.218   2.570   8.011 -0.0385 -1.2051  0.4532
  100SAPS  H13R10070   4.165   2.508   8.087 -0.5520  1.3369  2.1987
  100SAPS  H13S10071   4.185   2.527   7.914  1.3322 -4.5594  1.3686
  100SAPS  C21410072   4.165   2.711   8.001 -0.9534  0.0517 -0.1442
  100SAPS  H14R10073   4.143   2.757   7.903 -0.7703  0.8231  0.1731
  100SAPS  C21510074   4.120   2.781   8.107 -0.0740 -0.2816 -0.3280
  100SAPS  H15R10075   4.077   2.880   8.087 -1.2612 -0.4850  1.1449
  100SAPS  C21610076   4.120   2.746   8.259  0.1128 -0.0060 -0.4083
  100SAPS  H16R10077   4.173   2.651   8.284 -2.0323 -1.1999 -0.2926
  100SAPS  H16S10078   4.016   2.727   8.292 -0.4125  0.5730 -1.6896
  100SAPS  C21710079   4.180   2.852   8.351 -0.5104  0.1513 -0.0910
  100SAPS  H17R10080   4.118   2.944   8.343  0.1473  0.6208  0.1305
  100SAPS  H17S10081   4.280   2.889   8.320 -1.4386  0.7887 -2.4929
  100SAPS  C21810082   4.179   2.819   8.499 -0.3578  0.2678  0.2228
  100SAPS  H18R10083   4.217   2.895   8.569  1.9636 -2.5735  2.1647
  100SAPS  H18S10084   4.246   2.732   8.517 -0.0383  0.5520  0.4100
  100SAPS  C21910085   4.039   2.783   8.558  0.9583  0.1102 -0.5663
  100SAPS  H19R10086   3.989   2.699   8.504  1.6917 -0.8690  0.2505
  100SAPS  H19S10087   3.968   2.866   8.537  3.2467  2.2609 -0.0586
  100SAPS  C22010088   4.041   2.739   8.704  0.4866  0.6192 -0.8566
  100SAPS  H20R10089   3.939   2.745   8.748  0.9780  2.2482  0.0962
  100SAPS  H20S10090   4.095   2.810   8.769  0.5233 -1.5599  1.5811
  100SAPS  H20T10091   4.073   2.634   8.722 -0.3098  0.7379  1.4750
  100SAPS   C3310092   4.722   2.575   6.870 -0.1209  0.1134 -0.8688
  100SAPS   H3X10093   4.613   2.594   6.883  0.3578  1.9690  0.7026
  100SAPS   H3Y10094   4.772   2.672   6.893  0.8360 -0.2977 -1.1799
  100SAPS   C3410095   4.769   2.467   6.971 -0.0580  0.0089 -0.1980
  100SAPS   H4X10096   4.878   2.453   6.984 -0.4137 -1.5540  1.3179
  100SAPS   H4Y10097   4.714   2.374   6.947 -2.0513 -0.0553  4.0631
  100SAPS   C3510098   4.720   2.503   7.115  0.2295  0.1649  0.1421
  100SAPS   H5X10099   4.695   2.416   7.180 -2.0100  0.2417 -0.5754
  100SAPS   H5Y10100   4.624   2.559   7.110  0.4555  0.4395 -1.3883
  100SAPS   C3610101   4.809   2.594   7.196  0.6189 -0.0321 -0.1746
  100SAPS   H6X10102   4.844   2.681   7.137 -1.4162  1.3706  0.6639
  100SAPS   H6Y10103   4.899   2.530   7.210  1.3447  0.7401 -1.2430
  100SAPS   C3710104   4.766   2.638   7.336  0.1756  0.4912  0.8129
  100SAPS   H7X10105   4.728   2.549   7.390 -2.6320  1.0663 -0.0959
  100SAPS   H7Y10106   4.686   2.715   7.330 -0.9556 -0.5316  2.3952
  100SAPS   C3810107   4.883   2.682   7.426 -0.4638  0.4921 -1.1341
  100SAPS   H8X10108   4.918   2.780   7.389 -0.6522  0.3392 -1.7238
  100SAPS   H8Y10109   4.970   2.614   7.416 -2.3265 -2.3968  1.3769
  100SAPS   C3910110   4.865   2.689   7.573 -0.2882 -0.2701 -0.5884
  100SAPS   H9X10111   4.763   2.726   7.598 -0.5227 -1.9781  1.1031
  100SAPS   H9Y10112   4.945   2.756   7.612 -0.3651 -0.5165 -0.0029
  100SAPS  C31010113   4.877   2.546   7.637 -0.0745 -0.0839  0.3592
  100SAPS  H10X10114   4.986   2.526   7.634 -0.4725 -2.6003  1.5302
  100SAPS  H10Y10115   4.827   2.471   7.573 -2.1386  0.3090  1.4627
  100SAPS  C31110116   4.835   2.542   7.783 -0.3252 -0.2693 -0.6364
  100SAPS  H11X10117   4.840   2.438   7.821  0.0263 -0.5778 -1.5244
  100SAPS  H11Y10118   4.727   2.568   7.786 -0.2314 -0.0762  1.3582
  100SAPS  C31210119   4.916   2.624   7.883 -0.2645  0.3183  0.3200
  100SAPS  H12X10120   4.876   2.728   7.876 -0.6737  0.0963 -0.6659
  100SAPS  H12Y10121   5.025   2.628   7.864 -0.4219 -0.2143 -0.7352
  100SAPS  C31310122   4.898   2.579   8.035 -0.1370  0.1991 -0.5064
  100SAPS  H13X10123   4.959   2.487   8.038 -0.6713 -0.1170  2.0887
  100SAPS  H13Y10124   4.793   2.542   8.046  0.5125 -1.8825 -1.1677
  100SAPS  C31410125   4.953   2.678   8.144 -0.5523 -0.2237 -0.9540
  100SAPS  H14X10126   4.908   2.779   8.131  0.3044  0.2983  0.1010
  100SAPS  H14Y10127   5.061   2.703   8.145 -1.3852  3.9165  2.4272
  100SAPS  C31510128   4.917   2.627   8.288  0.1674  0.4312 -0.3814
  100SAPS  H15X10129   4.915   2.517   8.275  3.9573  0.1849  0.5690
  100SAPS  H15Y10130   4.817   2.660   8.323  0.7189 -0.7747  2.3754
  100SAPS  C31610131   5.026   2.663   8.388 -0.5407 -0.2812  0.0884
  100SAPS  H16X10132   5.033   2.774   8.390 -0.8787 -0.2735  1.5951
  100SAPS  H16Y10133   5.130   2.640   8.355 -0.0719  0.8435  0.7545
  100SAPS  C31710134   5.005   2.600   8.530  0.5903  0.7450 -0.4009
  100SAPS  H17X10135   4.912   2.627   8.585  1.2039  1.6255  0.2154
  100SAPS  H17Y10136   5.085   2.645   8.592 -0.2986 -0.8724  1.9777
  100SAPS  C31810137   5.026   2.446   8.535  0.5677 -0.8889  0.1608
  100SAPS  H18X10138   4.996   2.413   8.637 -2.4308 -0.9392 -0.6976
  100SAPS  H18Y10139   5.122   2.403   8.499  0.7450 -1.6923  1.5191
  100SAPS  H18Z10140   4.951   2.399   8.468  0.5634 -2.4047  1.1851
  101OSM      N10141   3.214   2.508  10.836  0.2540  0.1152 -0.0731
  101OSM    C1510142   3.357   2.563  10.848 -0.3274 -0.1896 -1.1500
  101OSM   H15A10143   3.401   2.537  10.943 -0.7450  0.7389 -0.6910
  101OSM   H15B10144   3.351   2.671  10.850 -0.7052 -0.2075 -1.2812
  101OSM   H15C10145   3.415   2.531  10.763  0.5240 -0.6203 -0.4030
  101OSM    C1410146   3.233   2.361  10.846 -0.2687  0.1870  0.0832
  101OSM   H14A10147   3.140   2.307  10.838  0.1255 -1.1757  3.6098
  101OSM   H14B10148   3.281   2.344  10.942 -2.1424  0.5465  1.1104
  101OSM   H14C10149   3.306   2.328  10.773 -1.7129  1.6597 -2.0626
  101OSM    C1310150   3.133   2.563  10.953 -0.8461 -0.0282  0.2413
  101OSM   H13A10151   3.166   2.522  11.047  0.7606  1.4291  0.3266
  101OSM   H13B10152   3.032   2.529  10.934 -0.0668 -0.7326 -2.8753
  101OSM   H13C10153   3.145   2.671  10.956  2.7123 -0.3771  0.1899
  101OSM    C1210154   3.158   2.545  10.700 -0.4935 -0.7603 -0.1322
  101OSM   H12A10155   3.055   2.513  10.691 -0.8606  0.4424 -0.2346
  101OSM   H12B10156   3.210   2.494  10.620  0.1940 -2.9504  1.6439
  101OSM    C1110157   3.154   2.692  10.661 -0.0125 -0.4405 -0.1022
  101OSM   H11A10158   3.093   2.696  10.569 -0.9744 -0.2742  0.5339
  101OSM   H11B10159   3.254   2.727  10.629  0.1142 -1.2692 -0.6323
  101OSM      P10160   3.114   2.935  10.748 -0.4963 -0.1546 -0.3247
  101OSM    O1310161   3.000   2.999  10.804  0.8543  0.2285  0.4337
  101OSM    O1410162   3.241   2.968  10.815  0.1206  0.1489 -0.1347
  101OSM    O1110163   3.125   2.960  10.592 -0.4242  0.2047  0.0773
  101OSM    O1210164   3.092   2.778  10.761 -0.0117  0.2718 -0.3026
  101OSM    C1S10165   3.020   3.002  10.513 -0.1846  0.3105 -0.3560
  101OSM    H1S10166   2.968   3.090  10.556  0.2828  1.4884 -2.1342
  101OSM    H1T10167   2.954   2.912  10.506 -1.4540  1.1192  0.9722
  101OSM     NF10168   2.930   3.063  10.294 -0.2722  0.1180 -0.3892
  101OSM    HNF10169   2.890   2.993  10.236 -2.0044 -0.1146  1.0526
  101OSM    C2S10170   3.059   3.032  10.363 -0.2254  0.1345 -0.2803
  101OSM    H2S10171   3.123   3.122  10.366 -0.2838  0.2234 -1.6799
  101OSM    C3S10172   3.147   2.917  10.291 -0.1022  0.0837  0.1780
  101OSM    H3S10173   3.094   2.819  10.295  1.7908 -1.0233 -0.8522
  101OSM     O310174   3.259   2.897  10.369  0.2993  0.3126 -0.1800
  101OSM    HO310175   3.239   2.937  10.454 -2.0225 -1.0665 -0.0477
  101OSM    C4S10176   3.189   2.953  10.154 -0.2739  0.4220 -0.2063
  101OSM    H4S10177   3.274   3.020  10.136 -1.3567  1.1792 -2.7438
  101OSM    C5S10178   3.140   2.880  10.051  0.7358 -0.4176  0.2879
  101OSM    H5S10179   3.070   2.798  10.072  0.2100  0.2660  1.2182
  101OSM    C6S10180   3.177   2.899   9.912 -0.1490  0.7903  0.7620
  101OSM    H6S10181   3.265   2.964   9.892 -0.1784  0.6697  0.2143
  101OSM    H6T10182   3.091   2.939   9.854 -0.6385 -1.2779 -0.0105
  101OSM    C7S10183   3.206   2.768   9.838 -0.2390 -0.3188 -0.5611
  101OSM    H7S10184   3.111   2.711   9.835 -0.2292 -0.3614 -0.0675
  101OSM    H7T10185   3.286   2.718   9.897 -0.4888 -1.4043 -1.1304
  101OSM    C8S10186   3.253   2.785   9.692 -0.0295 -0.5216 -0.6960
  101OSM    H8S10187   3.352   2.835   9.693 -1.1488  1.6993 -0.0548
  101OSM    H8T10188   3.180   2.855   9.648  0.8927 -0.0273 -1.4685
  101OSM    C9S10189   3.251   2.649   9.617 -0.3163  0.1838 -0.7994
  101OSM    H9S10190   3.146   2.620   9.598 -1.2764  1.9707  1.5446
  101OSM    H9T10191   3.307   2.575   9.678 -0.8258 -0.2252 -0.8259
  101OSM   C10S10192   3.310   2.661   9.475  0.0911 -0.0872 -0.0546
  101OSM   H10S10193   3.417   2.674   9.501  0.4114 -0.1402 -1.3334
  101OSM   H10T10194   3.265   2.749   9.425  0.4200 -0.0007 -0.1905
  101OSM   C11S10195   3.285   2.538   9.385  0.6508  0.0466  0.2925
  101OSM   H11S10196   3.176   2.518   9.373  0.5390  0.1039  1.1422
  101OSM   H11T10197   3.336   2.455   9.439  0.6570  0.3744  0.7977
  101OSM   C12S10198   3.346   2.541   9.251  1.2356 -0.4387 -0.9591
  101OSM   H12S10199   3.433   2.610   9.256  0.6388  0.2238  0.9209
  101OSM   H12T10200   3.283   2.588   9.173  0.5110 -0.4944 -0.4134
  101OSM   C13S10201   3.373   2.392   9.198  0.4173 -0.2569  0.0296
  101OSM   H13S10202   3.276   2.339   9.182  0.4325 -0.5439  0.8614
  101OSM   H13T10203   3.425   2.338   9.280  0.2689 -0.6301 -0.1187
  101OSM   C14S10204   3.440   2.380   9.061 -0.1253 -0.0087  0.5053
  101OSM   H14S10205   3.548   2.355   9.069 -0.2685 -0.6256  0.5172
  101OSM   H14T10206   3.442   2.488   9.037  0.7113 -0.5474 -2.0024
  101OSM   C15S10207   3.374   2.285   8.964  0.4126  0.2584  0.4194
  101OSM   H15S10208   3.438   2.279   8.873 -0.0564 -1.3156  0.1830
  101OSM   H15T10209   3.278   2.328   8.929  0.4431 -0.3177 -0.3735
  101OSM   C16S10210   3.370   2.139   9.020  0.3874 -0.9712  0.1157
  101OSM   H16S10211   3.301   2.078   8.959 -0.8826 -1.1137  1.6554
  101OSM   H16T10212   3.327   2.124   9.121  0.9489 -2.8940  0.0851
  101OSM   C17S10213   3.507   2.067   9.025  0.0698  0.0741 -0.1968
  101OSM   H17S10214   3.498   1.987   9.102  1.6562 -0.4340 -0.5152
  101OSM   H17T10215   3.587   2.137   9.058  0.9245 -0.7365 -0.4945
  101OSM   C18S10216   3.540   1.991   8.897 -0.0261 -0.7530 -0.3499
  101OSM   H18S10217   3.450   1.930   8.873 -1.0556  1.1788 -1.4756
  101OSM   H18T10218   3.635   1.933   8.895  0.9894  0.9311 -2.2230
  101OSM   H18U10219   3.560   2.067   8.819 -1.4493  0.7090  0.6733
  101OSM    C1F10220   2.859   3.171  10.316 -0.1690  0.1421 -0.3472
  101OSM     OF10221   2.908   3.261  10.384  0.2674 -0.3572 -0.6087
  101OSM    C2F10222   2.739   3.184  10.229 -0.2381  0.2735 -0.3215
  101OSM    H2F10223   2.643   3.145  10.271  0.6153 -1.2912  0.2009
  101OSM    H2G10224   2.750   3.122  10.138 -0.4155 -0.8239  0.3975
  101OSM    C3F10225   2.718   3.335  10.181 -0.5608  0.3496 -0.3544
  101OSM    H3F10226   2.806   3.374  10.124  1.1397 -1.1447  1.2075
  101OSM    H3G10227   2.705   3.404  10.266 -1.1345 -0.4074  0.1780
  101OSM    C4F10228   2.593   3.353  10.080 -0.1632 -0.5940 -0.3094
  101OSM    H4F10229   2.595   3.458  10.043  0.9950 -0.9475 -1.2858
  101OSM    H4G10230   2.497   3.339  10.134 -1.6751 -0.6862 -2.8905
  101OSM    C5F10231   2.585   3.250   9.970 -0.0574  0.2128  0.0004
  101OSM    H5F10232   2.486   3.247   9.920 -1.1700 -2.7588  2.2022
  101OSM    H5G10233   2.597   3.149  10.015  1.0130 -0.9975 -2.8238
  101OSM    C6F10234   2.690   3.257   9.865 -0.1246 -0.1847  0.0361
  101OSM    H6F10235   2.696   3.165   9.803 -1.9807  0.2351 -0.8145
  101OSM    H6G10236   2.791   3.277   9.907 -0.8466  1.7965  0.8950
  101OSM    C7F10237   2.665   3.371   9.764 -0.3725  0.2392 -0.6664
  101OSM    H7F10238   2.660   3.467   9.820 -1.4956  0.4524 -1.1310
  101OSM    H7G10239   2.560   3.363   9.728 -0.9503  2.9992  0.2881
  101OSM    C8F10240   2.759   3.383   9.645  0.1327 -0.0871  0.3071
  101OSM    H8F10241   2.861   3.390   9.690  0.7275 -1.5085 -0.8094
  101OSM    H8G10242   2.727   3.482   9.605 -0.7704 -0.5917 -0.2461
  101OSM    C9F10243   2.743   3.268   9.551 -0.3450 -0.6298  0.3595
  101OSM    H9F10244   2.785   3.175   9.592  0.7447  0.0105  0.6932
  101OSM   C10F10245   2.691   3.257   9.432  0.1007  0.4776 -0.2077
  101OSM   H10F10246   2.674   3.157   9.389 -3.0809  0.2504  1.4655
  101OSM   C11F10247   2.634   3.366   9.351 -0.2881  0.3703 -0.2459
  101OSM   H11F10248   2.658   3.470   9.384  0.6595 -0.2516  1.0546
  101OSM   H11G10249   2.524   3.353   9.356  0.0338 -2.0327  1.2580
  101OSM   C12F10250   2.660   3.347   9.203 -0.3863 -0.6157  0.0513
  101OSM   H12F10251   2.587   3.407   9.145  1.1076  0.7399 -0.4811
  101OSM   H12G10252   2.650   3.242   9.169  0.4200 -0.6862  0.0004
  101OSM   C13F10253   2.805   3.389   9.156  0.1695 -0.9404  0.2303
  101OSM   H13F10254   2.879   3.334   9.218  1.9101  1.6386  0.5266
  101OSM   H13G10255   2.813   3.498   9.177  0.0805 -1.1284  1.3065
  101OSM   C14F10256   2.838   3.366   9.005  0.4459 -0.5560  0.2019
  101OSM   H14F10257   2.817   3.263   8.970  0.7854 -0.7623  0.6052
  101OSM   H14G10258   2.941   3.408   8.994  0.6513 -0.6255  1.7940
  101OSM   C15F10259   2.761   3.470   8.914  0.0323 -0.2512  0.3399
  101OSM   H15F10260   2.785   3.575   8.943  1.0592 -0.3394 -0.1638
  101OSM   H15G10261   2.654   3.449   8.935  0.2743  0.8520  2.9892
  101OSM   C16F10262   2.806   3.455   8.776  0.1333  0.4423  0.4687
  101OSM   H16F10263   2.815   3.348   8.750  1.1231  0.2115  1.6751
  101OSM   H16G10264   2.910   3.494   8.772  0.4645 -0.3058  1.5073
  101OSM   C17F10265   2.717   3.533   8.679 -0.2215  0.1008  0.5700
  101OSM   H17F10266   2.697   3.636   8.715  0.5848  1.2345 -2.0530
  101OSM   H17G10267   2.619   3.483   8.667 -0.2017 -0.5246  2.8886
  101OSM   C18F10268   2.778   3.550   8.538  0.1909 -0.4078 -0.9189
  101OSM   H18F10269   2.886   3.574   8.549  0.0941 -0.8684  1.1343
  101OSM   H18G10270   2.711   3.630   8.499 -1.7827 -1.8845 -0.6671
  101OSM   H18H10271   2.775   3.447   8.495 -2.3535 -0.8426  0.1917
  102OSM      N10272   2.655   1.758  10.847  0.1632  0.5418 -0.2762
  102OSM    C1510273   2.743   1.743  10.723 -0.3442  0.7228 -0.4342
  102OSM   H15A10274   2.807   1.830  10.727 -2.4455  2.3311 -0.7309
  102OSM   H15B10275   2.687   1.751  10.631 -0.2723 -2.3673 -0.8039
  102OSM   H15C10276   2.806   1.655  10.725  1.1470  1.7825 -0.2754
  102OSM    C1410277   2.574   1.632  10.872 -0.5365  0.4826  0.8591
  102OSM   H14A10278   2.510   1.640  10.959  0.9873  1.2917  1.9288
  102OSM   H14B10279   2.638   1.546  10.884 -0.3430  0.0500 -2.7489
  102OSM   H14C10280   2.512   1.611  10.786 -2.1081 -3.2277  2.7879
  102OSM    C1310281   2.751   1.771  10.962  0.0952  0.6595 -0.3578
  102OSM   H13A10282   2.818   1.687  10.968 -0.8263 -0.0068  1.1034
  102OSM   H13B10283   2.701   1.776  11.058 -0.3511  1.0471 -0.6083
  102OSM   H13C10284   2.808   1.862  10.951  0.5232  0.0256 -3.7426
  102OSM    C1210285   2.562   1.875  10.838 -0.3985 -0.9315 -0.2491
  102OSM   H12A10286   2.539   1.908  10.939 -2.3054  1.7854 -1.5000
  102OSM   H12B10287   2.468   1.864  10.786 -0.5348  1.6475 -0.6507
  102OSM    C1110288   2.624   2.009  10.787 -0.0443 -0.0019  0.0161
  102OSM   H11A10289   2.548   2.089  10.800  1.5192  1.8827 -1.9367
  102OSM   H11B10290   2.644   1.985  10.680 -0.2561 -0.4763  0.0807
  102OSM      P10291   2.803   2.188  10.823  0.0908 -0.0338 -0.0985
  102OSM    O1310292   2.747   2.277  10.928  0.2432  0.3678 -0.4134
  102OSM    O1410293   2.953   2.177  10.812 -0.7061  0.6546 -0.7095
  102OSM    O1110294   2.734   2.225  10.685  0.1867 -0.0161  1.0841
  102OSM    O1210295   2.745   2.045  10.849  0.1912  0.7850 -0.7859
  102OSM    C1S10296   2.639   2.333  10.682 -0.4168 -0.8531 -0.8022
  102OSM    H1S10297   2.676   2.418  10.742 -1.1205 -1.6991  0.8399
  102OSM    H1T10298   2.542   2.309  10.728  0.6985 -1.8392  1.0795
  102OSM     NF10299   2.521   2.485  10.525  0.2889  0.0580  0.7548
  102OSM    HNF10300   2.434   2.457  10.486  0.3113  1.4318 -0.3222
  102OSM    C2S10301   2.626   2.387  10.535  0.2252  0.4792 -0.5408
  102OSM    H2S10302   2.727   2.426  10.508 -0.5181  2.6855 -0.2788
  102OSM    C3S10303   2.598   2.278  10.428 -0.4764  0.1524  0.3169
  102OSM    H3S10304   2.495   2.239  10.440 -0.8169  1.4660  1.9118
  102OSM     O310305   2.690   2.165  10.433 -0.0709 -0.2006  0.3522
  102OSM    HO310306   2.726   2.168  10.522 -1.0006 -0.1341  0.7340
  102OSM    C4S10307   2.595   2.339  10.293  0.0912  0.5770  0.3102
  102OSM    H4S10308   2.496   2.380  10.268 -0.4082 -0.4058  0.6284
  102OSM    C5S10309   2.687   2.347  10.196  0.5420 -0.2399 -0.2979
  102OSM    H5S10310   2.786   2.309  10.225  0.4934  1.5632  2.4472
  102OSM    C6S10311   2.666   2.413  10.064  0.4580 -0.1486 -0.8831
  102OSM    H6S10312   2.743   2.490  10.042  1.0162 -1.0943 -2.3062
  102OSM    H6T10313   2.577   2.479  10.073  2.5514  2.4903  2.0567
  102OSM    C7S10314   2.648   2.312   9.950 -0.1404 -0.3629  0.0357
  102OSM    H7S10315   2.590   2.225   9.986  0.1476  0.1094  1.6800
  102OSM    H7T10316   2.751   2.284   9.920 -0.2870 -1.5087  0.5752
  102OSM    C8S10317   2.557   2.374   9.841 -0.2662 -0.3547 -0.2568
  102OSM    H8S10318   2.606   2.456   9.785 -1.7456 -0.6480 -2.0385
  102OSM    H8T10319   2.461   2.412   9.884 -0.7259 -0.6711 -0.9912
  102OSM    C9S10320   2.527   2.270   9.737  1.3705  0.1197  0.5862
  102OSM    H9S10321   2.489   2.178   9.788  2.4317 -1.1244 -0.8508
  102OSM    H9T10322   2.616   2.249   9.675 -0.1502  2.0487 -2.3790
  102OSM   C10S10323   2.412   2.324   9.643  0.0037  0.3544  0.0598
  102OSM   H10S10324   2.452   2.407   9.582 -1.3003 -0.4865 -1.9675
  102OSM   H10T10325   2.327   2.356   9.707  0.4022 -1.2845  1.4815
  102OSM   C11S10326   2.358   2.212   9.556  0.8511 -0.1698 -0.2239
  102OSM   H11S10327   2.268   2.263   9.516 -0.0719 -1.0041  0.7169
  102OSM   H11T10328   2.326   2.126   9.619 -2.0196 -0.3304 -1.8291
  102OSM   C12S10329   2.443   2.160   9.434 -0.1239 -0.0908  0.3487
  102OSM   H12S10330   2.539   2.119   9.472 -0.2198  0.6242  1.3859
  102OSM   H12T10331   2.463   2.247   9.368 -0.3359  1.6878  2.5510
  102OSM   C13S10332   2.364   2.050   9.367 -0.0156 -0.1873  0.3023
  102OSM   H13S10333   2.254   2.066   9.370 -0.1849 -0.9202 -1.2645
  102OSM   H13T10334   2.380   1.954   9.420  1.9372 -0.2508 -0.3628
  102OSM   C14S10335   2.405   2.038   9.217  0.0682 -0.1553 -0.1960
  102OSM   H14S10336   2.513   2.015   9.213 -0.3466 -2.4266  0.8562
  102OSM   H14T10337   2.397   2.141   9.175  0.9449 -0.7468 -1.8505
  102OSM   C15S10338   2.325   1.934   9.139 -0.7448  0.3256  0.2295
  102OSM   H15S10339   2.327   1.830   9.179 -1.5955  0.1506 -0.1611
  102OSM   H15T10340   2.366   1.913   9.038 -1.8175 -2.4866  0.3240
  102OSM   C16S10341   2.178   1.971   9.120  0.4522 -0.5293  0.0031
  102OSM   H16S10342   2.180   2.082   9.105 -0.6068 -0.5647 -0.4260
  102OSM   H16T10343   2.142   1.954   9.223 -0.2174  0.1770 -0.1087
  102OSM   C17S10344   2.096   1.908   9.002  0.0998  0.0733 -0.1511
  102OSM   H17S10345   1.990   1.935   9.020 -0.4166 -1.1623 -1.2739
  102OSM   H17T10346   2.113   1.799   9.015  0.1473  0.1474  0.4381
  102OSM   C18S10347   2.146   1.949   8.868  0.0576  0.1395 -0.2312
  102OSM   H18S10348   2.126   2.058   8.869  2.8153  0.6840 -0.1442
  102OSM   H18T10349   2.083   1.904   8.789  0.3764  1.5764 -1.3200
  102OSM   H18U10350   2.252   1.929   8.841  0.5830 -0.3903  2.1305
  102OSM    C1F10351   2.537   2.616  10.560  0.0375 -0.8036 -0.2368
  102OSM     OF10352   2.646   2.659  10.602 -0.5320  0.0574 -0.2291
  102OSM    C2F10353   2.417   2.710  10.553  0.8114  0.2082 -0.6001
  102OSM    H2F10354   2.433   2.782  10.636  0.8161  2.3517 -2.3869
  102OSM    H2G10355   2.318   2.661  10.564  1.4144 -0.7259  0.8097
  102OSM    C3F10356   2.412   2.784  10.421  0.0362  0.4360  0.9405
  102OSM    H3F10357   2.511   2.831  10.402  0.6573 -1.1799  0.0458
  102OSM    H3G10358   2.331   2.858  10.436 -2.1576 -1.1401 -2.5250
  102OSM    C4F10359   2.369   2.703  10.300 -0.2244  0.7298 -0.2820
  102OSM    H4F10360   2.269   2.661  10.323  0.5462 -0.6424  0.6126
  102OSM    H4G10361   2.432   2.613  10.282 -0.0329  0.3229  2.3491
  102OSM    C5F10362   2.373   2.797  10.176  0.0543 -0.1953  0.5405
  102OSM    H5F10363   2.479   2.829  10.165 -0.1078  0.2173  0.1494
  102OSM    H5G10364   2.322   2.895  10.193  0.3807 -0.0052  0.4156
  102OSM    C6F10365   2.320   2.735  10.043 -0.1629  0.4082 -0.3802
  102OSM    H6F10366   2.224   2.685  10.066  1.6034 -1.6346  3.0300
  102OSM    H6G10367   2.392   2.657  10.010  0.3795  1.7010 -2.3553
  102OSM    C7F10368   2.305   2.846   9.945 -0.0783 -0.0091 -0.0467
  102OSM    H7F10369   2.403   2.897   9.930 -1.2693  2.3309 -0.0541
  102OSM    H7G10370   2.227   2.917   9.981  0.1379  1.3552 -2.1532
  102OSM    C8F10371   2.268   2.812   9.800 -0.1413  0.8369  0.4936
  102OSM    H8F10372   2.353   2.745   9.775 -0.8133  0.7682 -1.6671
  102OSM    H8G10373   2.279   2.907   9.745 -2.3503  1.6941  1.4559
  102OSM    C9F10374   2.139   2.737   9.782 -0.1075 -0.3773 -0.0042
  102OSM    H9F10375   2.125   2.660   9.858  0.1673  1.4170  1.9173
  102OSM   C10F10376   2.053   2.748   9.681  0.1199  0.1920  0.8102
  102OSM   H10F10377   1.968   2.678   9.682 -0.7785  1.3016  2.5005
  102OSM   C11F10378   2.042   2.834   9.560  0.1953  0.4269  0.2502
  102OSM   H11F10379   2.129   2.901   9.552  1.8379 -1.8188 -1.3883
  102OSM   H11G10380   1.946   2.889   9.565  0.5532  1.0465  0.3093
  102OSM   C12F10381   2.038   2.743   9.434 -0.7213  0.1529 -0.0056
  102OSM   H12F10382   2.035   2.818   9.353  2.4198  0.2731 -0.0735
  102OSM   H12G10383   1.954   2.670   9.427 -0.6702 -0.0649  1.4056
  102OSM   C13F10384   2.159   2.654   9.416  0.1028  0.4238 -0.0713
  102OSM   H13F10385   2.173   2.572   9.490  0.2032  0.6731  0.1851
  102OSM   H13G10386   2.252   2.709   9.438  0.7890  0.8987 -3.8415
  102OSM   C14F10387   2.173   2.601   9.269 -0.4383 -0.1792  0.1328
  102OSM   H14F10388   2.155   2.680   9.194  2.1489 -0.6291 -1.0072
  102OSM   H14G10389   2.088   2.531   9.255  1.5387 -2.3866 -1.2003
  102OSM   C15F10390   2.305   2.524   9.249  0.0281  0.8254 -0.1607
  102OSM   H15F10391   2.294   2.433   9.312 -0.3606  1.1977  0.3137
  102OSM   H15G10392   2.390   2.588   9.280 -0.6259  0.5096  2.3859
  102OSM   C16F10393   2.335   2.472   9.108 -0.1545 -0.1137  0.4440
  102OSM   H16F10394   2.426   2.410   9.095  0.3783  0.8607 -0.5477
  102OSM   H16G10395   2.354   2.562   9.045 -0.7736 -2.1981 -2.8621
  102OSM   C17F10396   2.218   2.406   9.039  0.2664 -0.2240 -0.0849
  102OSM   H17F10397   2.150   2.490   9.014  0.2901 -0.8280 -2.3466
  102OSM   H17G10398   2.176   2.331   9.109 -1.5778  0.4321 -0.4520
  102OSM   C18F10399   2.260   2.314   8.918 -0.0631  0.3361 -0.8362
  102OSM   H18F10400   2.329   2.367   8.848 -0.6053  1.1126 -0.7946
  102OSM   H18G10401   2.168   2.274   8.869  0.8716 -1.3236 -1.2721
  102OSM   H18H10402   2.314   2.226   8.959  0.0741  0.1726 -1.3618
  103OSM      N10403   4.179   4.816  11.097 -0.0828 -0.3075  0.4065
  103OSM    C1510404   4.307   4.896  11.071 -0.3517  0.2859  0.2998
  103OSM   H15A10405   4.371   4.852  10.996  1.3112 -0.3289  2.0346
  103OSM   H15B10406   4.359   4.893  11.166 -0.1922  0.3514  0.2138
  103OSM   H15C10407   4.281   4.997  11.044 -0.6646  0.1492  0.0910
  103OSM    C1410408   4.221   4.702  11.185  0.1740 -0.5570  0.3702
  103OSM   H14A10409   4.231   4.737  11.287 -1.3362  2.0657 -0.3187
  103OSM   H14B10410   4.312   4.663  11.143  0.9240  1.3926  0.1116
  103OSM   H14C10411   4.135   4.637  11.183 -0.8333  0.7746 -0.8285
  103OSM    C1310412   4.085   4.899  11.174 -0.4506 -0.2406  0.0484
  103OSM   H13A10413   4.144   4.949  11.249 -2.9112  1.2686  1.0567
  103OSM   H13B10414   4.012   4.843  11.230 -0.6374 -0.6808 -0.6324
  103OSM   H13C10415   4.033   4.960  11.101 -3.1128 -0.1305  1.9778
  103OSM    C1210416   4.132   4.762  10.970  1.0078 -0.3615 -0.2964
  103OSM   H12A10417   4.050   4.691  10.978  1.3885 -0.8042 -0.2885
  103OSM   H12B10418   4.208   4.696  10.931 -0.2263 -1.8736 -0.1845
  103OSM    C1110419   4.094   4.860  10.855 -0.3609 -0.4044 -0.1674
  103OSM   H11A10420   4.069   4.798  10.767  0.9890  0.1480 -0.9602
  103OSM   H11B10421   4.176   4.923  10.816 -2.2033  2.0257 -0.2034
  103OSM      P10422   3.972   5.094  10.865 -0.2219 -0.6040 -0.1218
  103OSM    O1310423   3.853   5.148  10.938  0.7425 -0.0962 -0.0734
  103OSM    O1410424   4.099   5.151  10.907 -0.4968  0.2176 -0.2394
  103OSM    O1110425   3.953   5.097  10.711 -0.1529  0.3034  0.0176
  103OSM    O1210426   3.982   4.937  10.901  0.1260  0.2784 -0.2700
  103OSM    C1S10427   3.839   5.038  10.664 -0.0364 -0.4777 -0.2335
  103OSM    H1S10428   3.742   5.085  10.691 -0.8118 -1.0037 -2.0545
  103OSM    H1T10429   3.840   4.927  10.672  0.8961 -0.4492  0.0804
  103OSM     NF10430   3.714   5.039  10.444  0.4843  0.4857  0.2070
  103OSM    HNF10431   3.686   4.950  10.408  0.1668 -0.4276  2.6004
  103OSM    C2S10432   3.846   5.049  10.508  0.1458  0.1834 -0.0284
  103OSM    H2S10433   3.878   5.153  10.486  0.1796 -0.0507 -1.1265
  103OSM    C3S10434   3.957   4.952  10.452 -0.6668 -0.3625 -0.1521
  103OSM    H3S10435   3.943   4.847  10.484 -1.1842 -0.1965  0.1833
  103OSM     O310436   4.095   4.962  10.499  0.7696  0.6164 -0.3262
  103OSM    HO310437   4.094   5.020  10.574 -2.5351  2.3687 -1.5861
  103OSM    C4S10438   3.952   4.965  10.310  0.2765 -0.4315  0.5054
  103OSM    H4S10439   3.918   4.877  10.253 -0.2722 -0.1576  0.4011
  103OSM    C5S10440   4.004   5.066  10.231  0.1895  0.2739  0.2055
  103OSM    H5S10441   4.056   5.159  10.259 -0.6832  0.7964  0.0858
  103OSM    C6S10442   4.001   5.059  10.083 -0.1250 -0.2142 -0.3082
  103OSM    H6S10443   3.961   5.156  10.045 -0.4470  0.1890  1.0527
  103OSM    H6T10444   3.935   4.975  10.052 -0.3240 -0.0824 -0.2453
  103OSM    C7S10445   4.140   5.034  10.026 -0.0383 -0.3713  0.6890
  103OSM    H7S10446   4.184   4.943  10.074  2.2764 -0.4747 -1.5354
  103OSM    H7T10447   4.217   5.113  10.034  1.5014 -1.4894 -2.3564
  103OSM    C8S10448   4.129   5.016   9.875 -0.0605  0.4910  0.3645
  103OSM    H8S10449   4.070   5.092   9.820  0.3808 -0.4171 -1.3963
  103OSM    H8T10450   4.090   4.913   9.861  2.0393 -0.4298  1.0354
  103OSM    C9S10451   4.268   5.018   9.802 -0.0795 -0.2283 -0.6827
  103OSM    H9S10452   4.335   4.961   9.870 -2.1234  0.3274  1.8650
  103OSM    H9T10453   4.300   5.122   9.780  1.4367 -0.6528 -0.5791
  103OSM   C10S10454   4.260   4.957   9.657 -0.0493  0.1450 -0.5750
  103OSM   H10S10455   4.162   4.994   9.623  0.4335  1.3771 -0.6321
  103OSM   H10T10456   4.248   4.848   9.678 -0.7439  0.4628  0.6971
  103OSM   C11S10457   4.373   4.985   9.568 -0.4048 -0.3544  0.4875
  103OSM   H11S10458   4.473   4.955   9.606  0.8745 -0.6774 -2.9420
  103OSM   H11T10459   4.376   5.092   9.537  2.5941  0.0480  1.9440
  103OSM   C12S10460   4.339   4.927   9.428  0.4137  0.0999 -0.0949
  103OSM   H12S10461   4.238   4.959   9.393 -1.0738 -0.9254  3.0951
  103OSM   H12T10462   4.342   4.817   9.437 -0.2936  0.2382  2.1297
  103OSM   C13S10463   4.431   4.980   9.313  0.0321 -0.1898  0.1907
  103OSM   H13S10464   4.533   4.947   9.340  0.1625  0.0971  0.0470
  103OSM   H13T10465   4.420   5.091   9.308 -0.0091 -0.2359 -0.7716
  103OSM   C14S10466   4.393   4.910   9.186 -0.1566 -0.1119 -0.8049
  103OSM   H14S10467   4.303   4.949   9.133 -0.9744 -3.1690 -1.7601
  103OSM   H14T10468   4.364   4.805   9.210 -2.7544  0.8029  0.2378
  103OSM   C15S10469   4.509   4.890   9.092  0.4347  0.8251 -0.0827
  103OSM   H15S10470   4.595   4.832   9.133 -0.7671 -0.7881  0.2199
  103OSM   H15T10471   4.555   4.988   9.071 -1.5687  1.7483 -0.2387
  103OSM   C16S10472   4.469   4.823   8.956  0.4342  0.1401  0.0208
  103OSM   H16S10473   4.393   4.886   8.904 -0.0202 -0.5158 -0.1175
  103OSM   H16T10474   4.419   4.727   8.982  1.3921 -0.3730 -0.0320
  103OSM   C17S10475   4.589   4.787   8.874  0.2913  0.0289  0.7069
  103OSM   H17S10476   4.670   4.741   8.934 -0.5962  1.4960  3.1040
  103OSM   H17T10477   4.642   4.878   8.840  0.0577 -0.7680 -1.9546
  103OSM   C18S10478   4.556   4.707   8.749  0.6839 -0.3492  0.2375
  103OSM   H18S10479   4.530   4.600   8.765 -1.1836 -0.2202 -1.6005
  103OSM   H18T10480   4.630   4.711   8.666 -0.9414  0.5508 -1.2269
  103OSM   H18U10481   4.463   4.745   8.701  0.4441  0.4031  1.2950
  103OSM    C1F10482   3.629   5.138  10.438  0.1665  0.2834  0.0872
  103OSM     OF10483   3.655   5.238  10.496  0.1212 -0.3814 -0.2384
  103OSM    C2F10484   3.501   5.128  10.362 -0.4500  0.1405  0.3218
  103OSM    H2F10485   3.406   5.139  10.419 -2.2742 -0.3561 -2.4745
  103OSM    H2G10486   3.499   5.028  10.315 -1.2733  0.3968 -0.2040
  103OSM    C3F10487   3.491   5.239  10.250 -0.1480 -0.2442 -0.2754
  103OSM    H3F10488   3.483   5.331  10.312 -0.3589 -1.6150  1.8036
  103OSM    H3G10489   3.396   5.215  10.198 -0.2214  4.3073 -2.4255
  103OSM    C4F10490   3.619   5.249  10.159 -0.3013  0.2521 -0.0600
  103OSM    H4F10491   3.636   5.144  10.128  1.0042  1.1060 -2.3881
  103OSM    H4G10492   3.707   5.291  10.212 -1.7379  2.4320  0.6573
  103OSM    C5F10493   3.582   5.312  10.018 -0.1856  0.1773  0.8645
  103OSM    H5F10494   3.674   5.318   9.955 -0.3022  2.9797  0.8835
  103OSM    H5G10495   3.541   5.414  10.036 -0.6613 -0.0167  0.8666
  103OSM    C6F10496   3.479   5.237   9.931 -0.1853 -0.1896 -0.6049
  103OSM    H6F10497   3.389   5.194   9.981 -1.0301  1.5043 -0.6418
  103OSM    H6G10498   3.536   5.151   9.890  0.7471  0.1100  0.0465
  103OSM    C7F10499   3.417   5.330   9.818  0.4547  0.3732 -1.2521
  103OSM    H7F10500   3.502   5.344   9.747  0.7430  2.2123 -0.5720
  103OSM    H7G10501   3.390   5.426   9.866 -1.6113 -1.4827  1.4488
  103OSM    C8F10502   3.290   5.273   9.754 -0.2327  0.6161  0.0653
  103OSM    H8F10503   3.244   5.352   9.690  0.4322 -0.1367 -1.3665
  103OSM    H8G10504   3.207   5.248   9.823 -1.2118 -1.0368 -1.6716
  103OSM    C9F10505   3.325   5.142   9.682 -0.2092  0.0116  0.3657
  103OSM    H9F10506   3.350   5.065   9.755 -0.3386  0.2528  0.6652
  103OSM   C10F10507   3.315   5.125   9.550 -0.4651 -0.1312  0.2427
  103OSM   H10F10508   3.340   5.027   9.506 -1.1720 -0.4144  0.4474
  103OSM   C11F10509   3.280   5.231   9.452 -0.5206  0.4839 -0.0114
  103OSM   H11F10510   3.300   5.333   9.491  0.2321  0.8085 -1.2122
  103OSM   H11G10511   3.171   5.236   9.430 -0.1312  1.4973 -1.8599
  103OSM   C12F10512   3.350   5.219   9.315  0.1427  0.4249  0.3246
  103OSM   H12F10513   3.454   5.187   9.339 -0.6102 -2.2367  0.1536
  103OSM   H12G10514   3.340   5.322   9.274 -1.4868  1.5842  3.4275
  103OSM   C13F10515   3.286   5.120   9.217 -0.1180 -0.0483  0.2699
  103OSM   H13F10516   3.287   5.012   9.244 -1.7421 -0.4105 -1.1108
  103OSM   H13G10517   3.182   5.159   9.211 -0.4453 -0.9235  0.2523
  103OSM   C14F10518   3.350   5.123   9.067 -0.2011 -0.4727 -0.7334
  103OSM   H14F10519   3.448   5.069   9.067  0.3316  0.4841 -1.3064
  103OSM   H14G10520   3.368   5.230   9.043  4.1764 -0.5898  1.5425
  103OSM   C15F10521   3.263   5.060   8.953 -0.8363  0.3694  0.2351
  103OSM   H15F10522   3.192   5.143   8.931  1.4461  2.1510 -0.6899
  103OSM   H15G10523   3.227   4.961   8.987  2.8490 -0.0718  3.1022
  103OSM   C16F10524   3.350   5.037   8.823  0.1516 -0.0023 -0.0450
  103OSM   H16F10525   3.408   4.942   8.826  1.8077  0.9432 -1.1227
  103OSM   H16G10526   3.423   5.120   8.832 -1.3046  1.2717  0.3541
  103OSM   C17F10527   3.268   5.062   8.694  0.2850  0.5485 -0.0899
  103OSM   H17F10528   3.322   5.083   8.599 -0.8830  0.4479 -0.7840
  103OSM   H17G10529   3.206   5.149   8.723 -1.8405 -1.1388  0.5086
  103OSM   C18F10530   3.179   4.939   8.658  0.0622 -0.2455 -0.4056
  103OSM   H18F10531   3.090   4.931   8.724  1.0621  1.0457  1.1484
  103OSM   H18G10532   3.243   4.848   8.669 -0.2126 -0.4478 -0.4774
  103OSM   H18H10533   3.143   4.948   8.553 -1.2844  0.4075  0.1063
  104OSM      N10534   1.585   4.730  11.094  0.3609 -0.3076 -1.0771
  104OSM    C1510535   1.702   4.779  11.173  0.5650 -0.3179 -0.2782
  104OSM   H15A10536   1.696   4.882  11.205 -0.1904 -0.8490  1.3838
  104OSM   H15B10537   1.795   4.755  11.123  1.6616  2.0687  0.5232
  104OSM   H15C10538   1.704   4.721  11.264  1.0810  1.9051  1.1638
  104OSM    C1410539   1.597   4.580  11.084 -0.1407  0.1768  0.1386
  104OSM   H14A10540   1.684   4.551  11.027  1.0539  2.8971  0.5125
  104OSM   H14B10541   1.512   4.532  11.038  0.7668 -1.6610  0.3330
  104OSM   H14C10542   1.587   4.532  11.180 -2.3646  0.5015  0.0860
  104OSM    C1310543   1.458   4.764  11.163 -0.3345 -0.6529 -0.2398
  104OSM   H13A10544   1.374   4.725  11.107 -0.4501 -3.5616  1.8683
  104OSM   H13B10545   1.438   4.866  11.193  1.0598 -0.6373  0.7263
  104OSM   H13C10546   1.457   4.725  11.264  0.0293  2.5130  1.0541
  104OSM    C1210547   1.588   4.798  10.962  0.3301 -0.0835 -0.1635
  104OSM   H12A10548   1.689   4.786  10.928  0.9029 -1.5285  1.9928
  104OSM   H12B10549   1.568   4.904  10.973 -0.7825  0.1714 -3.8683
  104OSM    C1110550   1.486   4.765  10.852  0.0185 -0.3095 -0.0604
  104OSM   H11A10551   1.497   4.658  10.827 -0.6594 -0.8741  1.9407
  104OSM   H11B10552   1.509   4.812  10.754 -1.7734 -0.3936 -0.5441
  104OSM      P10553   1.223   4.744  10.831 -0.0783 -0.2525 -0.2038
  104OSM    O1310554   1.232   4.601  10.861 -0.6235  0.2285  0.2119
  104OSM    O1410555   1.110   4.819  10.891  0.1957  0.0878 -0.5096
  104OSM    O1110556   1.239   4.761  10.674  0.3268  0.3397 -0.5406
  104OSM    O1210557   1.353   4.802  10.892 -0.1027 -0.3458 -0.5259
  104OSM    C1S10558   1.244   4.894  10.609  0.1278  1.2802 -0.1854
  104OSM    H1S10559   1.281   4.968  10.683  0.6282 -0.0597  0.9165
  104OSM    H1T10560   1.141   4.932  10.591  0.4660  2.4355  0.2994
  104OSM     NF10561   1.345   5.022  10.431 -0.2701 -0.2903  0.0453
  104OSM    HNF10562   1.280   5.061  10.365  0.6263 -1.3761 -1.5119
  104OSM    C2S10563   1.319   4.888  10.473 -0.1862 -0.7788  0.2797
  104OSM    H2S10564   1.417   4.840  10.493 -0.0386 -0.2600  0.8212
  104OSM    C3S10565   1.237   4.796  10.374 -0.5178 -0.3046 -1.0440
  104OSM    H3S10566   1.142   4.847  10.347 -1.4457 -2.1923 -1.3981
  104OSM     O310567   1.191   4.676  10.434  0.3160 -0.2711  0.0457
  104OSM    HO310568   1.217   4.691  10.525  0.7140 -0.6558 -0.0016
  104OSM    C4S10569   1.314   4.781  10.235 -0.2420  0.0367  0.4050
  104OSM    H4S10570   1.424   4.780  10.244 -0.1702 -1.2881 -0.4121
  104OSM    C5S10571   1.265   4.796  10.111 -0.2734  1.1685  0.7730
  104OSM    H5S10572   1.160   4.826  10.096 -1.0028 -1.6439 -0.0889
  104OSM    C6S10573   1.352   4.784   9.980  0.3289 -0.4809  0.3237
  104OSM    H6S10574   1.418   4.874   9.983  0.6155 -0.7135  1.0525
  104OSM    H6T10575   1.294   4.777   9.885  0.1557  1.9892  0.2012
  104OSM    C7S10576   1.432   4.656   9.976 -0.0443  0.4901 -0.0548
  104OSM    H7S10577   1.368   4.566   9.987 -0.0307  0.6628  1.4639
  104OSM    H7T10578   1.509   4.643  10.055  2.2558  1.1321 -2.1345
  104OSM    C8S10579   1.510   4.656   9.846  0.5346 -0.1863  0.1387
  104OSM    H8S10580   1.561   4.751   9.819  2.1069 -1.1169 -0.2381
  104OSM    H8T10581   1.436   4.630   9.768  0.0433 -4.5418  1.9118
  104OSM    C9S10582   1.620   4.540   9.837  0.1158 -0.2432  0.1596
  104OSM    H9S10583   1.578   4.438   9.845  0.5580 -0.4951 -0.7499
  104OSM    H9T10584   1.684   4.544   9.928  3.9425  1.5702 -2.4405
  104OSM   C10S10585   1.712   4.571   9.726  0.7667  0.6180  0.7990
  104OSM   H10S10586   1.780   4.484   9.710  0.8691  0.6389  1.1146
  104OSM   H10T10587   1.777   4.659   9.747 -1.4022  2.3200  0.5227
  104OSM   C11S10588   1.641   4.572   9.592  0.4757  0.6504  0.5321
  104OSM   H11S10589   1.582   4.665   9.576 -1.3960 -0.4765  0.7194
  104OSM   H11T10590   1.575   4.484   9.575  1.9117  0.1112 -2.7437
  104OSM   C12S10591   1.743   4.552   9.479 -0.7629 -0.4921 -0.2052
  104OSM   H12S10592   1.783   4.448   9.468  0.6533  0.1485 -1.3661
  104OSM   H12T10593   1.831   4.617   9.498 -0.4604 -0.7401 -0.7594
  104OSM   C13S10594   1.691   4.599   9.343 -0.1716 -0.3488  0.3947
  104OSM   H13S10595   1.651   4.702   9.349 -0.3057 -0.3340 -0.6117
  104OSM   H13T10596   1.607   4.536   9.308 -0.7674  0.7205 -0.1347
  104OSM   C14S10597   1.791   4.600   9.230  0.2398 -0.6153 -0.6117
  104OSM   H14S10598   1.874   4.672   9.248 -1.0289  0.3316  1.6807
  104OSM   H14T10599   1.741   4.625   9.134 -1.8962 -2.4916 -0.0146
  104OSM   C15S10600   1.837   4.456   9.211  0.8775 -0.6021 -0.4752
  104OSM   H15S10601   1.752   4.385   9.219 -0.4648  1.1966  1.2915
  104OSM   H15T10602   1.909   4.433   9.292  0.8210  2.8740  0.6062
  104OSM   C16S10603   1.908   4.425   9.075 -0.0506 -0.1320 -0.0142
  104OSM   H16S10604   1.972   4.335   9.088  1.6643  1.1650  0.5323
  104OSM   H16T10605   1.958   4.516   9.036 -1.2245  1.1314  1.3795
  104OSM   C17S10606   1.809   4.391   8.959  1.3705 -0.9993 -0.2872
  104OSM   H17S10607   1.741   4.476   8.935 -1.7237 -3.2419  0.3049
  104OSM   H17T10608   1.741   4.312   8.997  2.0583 -1.2887  0.3666
  104OSM   C18S10609   1.881   4.347   8.832 -0.6221  0.0409  0.0098
  104OSM   H18S10610   1.809   4.329   8.749  1.8880 -2.6030 -1.6842
  104OSM   H18T10611   1.927   4.246   8.832 -1.5972 -0.4060 -0.5509
  104OSM   H18U10612   1.955   4.421   8.793 -0.8449 -1.1675 -2.8229
  104OSM    C1F10613   1.429   5.099  10.509 -0.0200 -0.4329  0.1763
  104OSM     OF10614   1.519   5.050  10.573  0.6878 -0.3209  0.2888
  104OSM    C2F10615   1.408   5.245  10.511 -0.0928  0.3553  0.5997
  104OSM    H2F10616   1.500   5.299  10.478  0.2845 -1.6344 -1.7575
  104OSM    H2G10617   1.370   5.286  10.607 -0.4024 -1.3980  1.2324
  104OSM    C3F10618   1.311   5.288  10.400  0.4035  0.4874  0.0438
  104OSM    H3F10619   1.279   5.394  10.410  1.5068  0.5606  3.5157
  104OSM    H3G10620   1.215   5.232  10.405  1.1044 -0.7836 -0.5008
  104OSM    C4F10621   1.383   5.280  10.253 -0.0539  0.4753 -0.6129
  104OSM    H4F10622   1.468   5.211  10.273 -0.3026  0.9861  2.3743
  104OSM    H4G10623   1.435   5.375  10.229  0.8231  0.0106 -0.5647
  104OSM    C5F10624   1.299   5.229  10.147  0.7046 -0.6234 -0.2264
  104OSM    H5F10625   1.228   5.307  10.111  1.8811  0.0107 -1.2194
  104OSM    H5G10626   1.239   5.156  10.205  0.5181  0.5276  1.0422
  104OSM    C6F10627   1.368   5.188  10.019  0.2882  0.5231  0.1505
  104OSM    H6F10628   1.439   5.109  10.053 -1.3155 -1.2360 -0.5095
  104OSM    H6G10629   1.424   5.276   9.981  1.6240  0.4937  1.9758
  104OSM    C7F10630   1.269   5.128   9.923  0.6090 -0.4277  0.4091
  104OSM    H7F10631   1.175   5.188   9.929  1.3126  0.5020  2.4704
  104OSM    H7G10632   1.229   5.031   9.960  1.4568 -0.6406  0.7711
  104OSM    C8F10633   1.320   5.136   9.776 -0.2078 -1.0635  0.2078
  104OSM    H8F10634   1.345   5.241   9.748 -0.6533 -0.7763  0.8695
  104OSM    H8G10635   1.235   5.111   9.710 -0.7489 -1.8601  1.1922
  104OSM    C9F10636   1.438   5.046   9.733 -0.9771 -0.2435  0.1734
  104OSM    H9F10637   1.527   5.074   9.790 -2.3948  3.1575  0.8746
  104OSM   C10F10638   1.436   4.947   9.651  0.6903 -0.0205  0.4321
  104OSM   H10F10639   1.533   4.902   9.623 -0.2393 -1.5916 -0.2995
  104OSM   C11F10640   1.322   4.914   9.558 -0.0662  0.0957 -0.4133
  104OSM   H11F10641   1.221   4.909   9.604  0.0644 -0.3879 -0.1803
  104OSM   H11G10642   1.343   4.810   9.524  2.2935  0.8949 -1.5348
  104OSM   C12F10643   1.312   5.008   9.439 -0.0983 -0.7364 -0.2872
  104OSM   H12F10644   1.314   5.116   9.465  0.3845 -1.0458  0.9934
  104OSM   H12G10645   1.217   4.992   9.384 -1.2886  0.9324  1.2485
  104OSM   C13F10646   1.432   4.980   9.341  0.3113  0.0091  0.4171
  104OSM   H13F10647   1.528   4.997   9.393 -0.3012 -0.4325  1.7092
  104OSM   H13G10648   1.423   5.050   9.255  0.3472  0.2197  0.5840
  104OSM   C14F10649   1.420   4.844   9.273 -0.5610 -0.9492  0.5324
  104OSM   H14F10650   1.315   4.843   9.238 -0.0441  2.5539 -1.3457
  104OSM   H14G10651   1.445   4.765   9.348  1.1992 -3.4953 -2.6340
  104OSM   C15F10652   1.515   4.835   9.148  0.0618  0.6511  0.0761
  104OSM   H15F10653   1.519   4.732   9.107 -0.2600  0.6681 -0.0019
  104OSM   H15G10654   1.617   4.851   9.187  0.0785 -0.6370  0.5697
  104OSM   C16F10655   1.489   4.940   9.034 -0.2993  0.7688 -0.0549
  104OSM   H16F10656   1.565   4.920   8.956  1.3200  1.4732  1.3136
  104OSM   H16G10657   1.523   5.035   9.080  1.3580  0.0944  0.1545
  104OSM   C17F10658   1.344   4.917   8.982  0.0663  0.2817 -0.1173
  104OSM   H17F10659   1.266   4.965   9.044 -0.5257  0.4599 -0.9827
  104OSM   H17G10660   1.320   4.810   8.963  0.7025 -0.1448  1.4417
  104OSM   C18F10661   1.326   4.994   8.850 -0.1772  0.2497 -0.1750
  104OSM   H18F10662   1.227   4.973   8.803  0.8233 -1.3971 -1.5935
  104OSM   H18G10663   1.407   4.974   8.776 -0.9656 -0.0215 -0.9764
  104OSM   H18H10664   1.320   5.103   8.869 -1.2000 -0.3510  3.3061
  105OSM      N10665   0.967   4.528  11.110  0.5233 -0.1968  0.3841
  105OSM    C1510666   1.107   4.574  11.139 -1.1636  0.2701  0.0397
  105OSM   H15A10667   1.099   4.679  11.162 -0.8630  0.1600  0.6582
  105OSM   H15B10668   1.170   4.554  11.054 -0.1494 -0.1751  0.8752
  105OSM   H15C10669   1.140   4.531  11.233 -0.0992  2.0011  0.4729
  105OSM    C1410670   0.867   4.601  11.189  0.4465  0.5965  0.2643
  105OSM   H14A10671   0.769   4.571  11.155  0.6048 -0.5998  0.8318
  105OSM   H14B10672   0.869   4.707  11.171 -0.2574  0.4994 -0.4094
  105OSM   H14C10673   0.869   4.573  11.293  0.9568  1.0913  0.3902
  105OSM    C1310674   0.935   4.556  10.970  0.2517  0.1016  0.1559
  105OSM   H13A10675   1.008   4.504  10.910 -0.8174 -0.3594 -0.7449
  105OSM   H13B10676   0.917   4.662  10.962 -2.0613 -0.2529  0.4075
  105OSM   H13C10677   0.840   4.512  10.946  0.4146 -0.5801  0.7449
  105OSM    C1210678   0.985   4.382  11.145  0.7409  0.0493 -0.2301
  105OSM   H12A10679   1.000   4.371  11.251  0.6114 -1.3485 -0.3483
  105OSM   H12B10680   1.072   4.341  11.096  1.6822  0.4656  1.0837
  105OSM    C1110681   0.872   4.279  11.126 -0.4184 -0.5468 -0.6963
  105OSM   H11A10682   0.823   4.291  11.226 -0.0937  1.2884 -0.7400
  105OSM   H11B10683   0.921   4.180  11.122  0.2419 -0.2003 -1.0776
  105OSM      P10684   0.811   4.228  10.876  0.2696 -0.3387 -0.0696
  105OSM    O1310685   0.919   4.131  10.887  0.6183  0.3924 -0.0265
  105OSM    O1410686   0.682   4.174  10.820  0.0918 -0.7378  0.0147
  105OSM    O1110687   0.845   4.358  10.787 -0.7103 -0.7288  0.1258
  105OSM    O1210688   0.777   4.298  11.016  0.0009 -0.3574  0.0473
  105OSM    C1S10689   0.959   4.370  10.699  0.0279  0.8515 -0.0099
  105OSM    H1S10690   0.996   4.270  10.669 -2.5392  0.0714 -0.7070
  105OSM    H1T10691   1.041   4.421  10.754  2.3238 -0.9620 -1.6401
  105OSM     NF10692   1.024   4.451  10.472  0.0459 -0.1128 -0.0283
  105OSM    HNF10693   1.089   4.526  10.471  2.0472 -1.7976 -0.1396
  105OSM    C2S10694   0.922   4.447  10.574 -0.1913 -0.4209  0.7742
  105OSM    H2S10695   0.832   4.392  10.540 -0.3257 -0.2867  0.9088
  105OSM    C3S10696   0.873   4.584  10.618 -0.5124 -0.3669  0.1998
  105OSM    H3S10697   0.952   4.636  10.676 -1.4494  1.5657 -0.2276
  105OSM     O310698   0.758   4.598  10.704 -0.2978 -0.1388 -0.2100
  105OSM    HO310699   0.748   4.511  10.743  2.1624 -0.0177  0.7627
  105OSM    C4S10700   0.850   4.671  10.499 -0.1234  0.4671 -0.2085
  105OSM    H4S10701   0.933   4.742  10.489  0.2707  0.2061  1.1667
  105OSM    C5S10702   0.747   4.656  10.413  0.0862  0.6660  0.5146
  105OSM    H5S10703   0.678   4.570  10.425  2.2434 -1.2515 -0.4161
  105OSM    C6S10704   0.723   4.734  10.288 -0.7272  0.3757 -0.1401
  105OSM    H6S10705   0.625   4.786  10.278 -0.0770  1.3433 -1.7475
  105OSM    H6T10706   0.715   4.658  10.208 -2.1845  0.1730  0.1830
  105OSM    C7S10707   0.831   4.837  10.264 -0.1763 -0.2181 -0.0261
  105OSM    H7S10708   0.931   4.788  10.263  0.1005  0.3245  0.6605
  105OSM    H7T10709   0.832   4.913  10.344 -2.0589 -1.0963  0.8670
  105OSM    C8S10710   0.818   4.918  10.133 -0.2031 -0.3290  0.5228
  105OSM    H8S10711   0.879   5.011  10.128  0.1834 -0.6117 -0.0735
  105OSM    H8T10712   0.718   4.966  10.145 -0.2947 -0.6506  1.0893
  105OSM    C9S10713   0.857   4.836  10.019 -0.5869 -0.0304  0.2804
  105OSM    H9S10714   0.800   4.740  10.020  0.0397 -0.6152 -5.2978
  105OSM    H9T10715   0.964   4.809  10.034 -0.3058  0.1468 -1.3652
  105OSM   C10S10716   0.840   4.904   9.883 -0.0874 -0.2270 -0.1952
  105OSM   H10S10717   0.888   5.003   9.873  1.4303 -1.0728 -1.4085
  105OSM   H10T10718   0.732   4.930   9.871  0.2528  0.5254 -1.6268
  105OSM   C11S10719   0.890   4.808   9.770 -0.2922 -0.1469 -0.0990
  105OSM   H11S10720   0.857   4.702   9.779  1.4794 -0.7525 -0.4449
  105OSM   H11T10721   0.999   4.798   9.788 -0.2282 -2.2063 -1.4964
  105OSM   C12S10722   0.851   4.852   9.629  0.7270  0.1248 -0.5967
  105OSM   H12S10723   0.876   4.960   9.629 -1.0658  0.6047  2.3714
  105OSM   H12T10724   0.745   4.843   9.597  0.3161 -2.8961  1.3989
  105OSM   C13S10725   0.937   4.775   9.529  0.1154 -0.0443 -0.0543
  105OSM   H13S10726   0.910   4.668   9.529  0.2002 -0.0648 -0.3153
  105OSM   H13T10727   1.041   4.779   9.567 -0.9242  2.5123  2.7754
  105OSM   C14S10728   0.940   4.832   9.383  1.0356 -0.8815  0.3016
  105OSM   H14S10729   0.966   4.940   9.391 -1.0495 -0.4022  0.8278
  105OSM   H14T10730   0.837   4.824   9.342  1.5906  1.6776 -1.7154
  105OSM   C15S10731   1.026   4.747   9.291 -0.0218  1.0152  0.0454
  105OSM   H15S10732   1.001   4.639   9.303 -1.3549  1.0003 -2.5139
  105OSM   H15T10733   1.133   4.762   9.318  0.3637 -0.8670 -0.3702
  105OSM   C16S10734   0.989   4.759   9.148 -0.5451 -0.3547 -0.9495
  105OSM   H16S10735   1.008   4.858   9.101 -0.3943 -0.1439 -0.4394
  105OSM   H16T10736   0.878   4.752   9.155 -0.3571 -0.5823  2.0860
  105OSM   C17S10737   1.064   4.656   9.073 -0.5675 -0.3194  0.6408
  105OSM   H17S10738   1.077   4.564   9.134 -0.1870 -0.6330  0.0886
  105OSM   H17T10739   1.167   4.697   9.079  0.1051 -1.9878  0.6223
  105OSM   C18S10740   1.005   4.635   8.927 -0.2000  0.3621  0.3820
  105OSM   H18S10741   1.074   4.588   8.854  0.2789  2.7244 -0.7080
  105OSM   H18T10742   0.956   4.727   8.890  1.4789  1.2872  0.4557
  105OSM   H18U10743   0.921   4.562   8.931 -0.2777  0.3179 -1.5916
  105OSM    C1F10744   1.042   4.346  10.391 -0.6750 -0.3715 -0.6109
  105OSM     OF10745   0.972   4.248  10.413  0.7248  0.3025  0.3603
  105OSM    C2F10746   1.151   4.336  10.295  0.0434  0.0149 -0.4022
  105OSM    H2F10747   1.148   4.232  10.254 -1.5763  0.2356 -0.8857
  105OSM    H2G10748   1.249   4.332  10.347  0.4581 -0.5523 -1.2148
  105OSM    C3F10749   1.125   4.445  10.190 -0.2797  0.4532 -0.3416
  105OSM    H3F10750   1.217   4.444  10.127  0.1849 -0.0073  0.3362
  105OSM    H3G10751   1.121   4.552  10.219 -2.3981  0.2906  0.0361
  105OSM    C4F10752   1.005   4.411  10.106  1.4192  0.3318  0.1055
  105OSM    H4F10753   0.915   4.426  10.170  1.0385  0.9344 -0.5578
  105OSM    H4G10754   1.013   4.300  10.113 -2.9011 -0.0331  0.9258
  105OSM    C5F10755   0.995   4.461   9.967 -0.1862 -0.0627 -0.1525
  105OSM    H5F10756   1.007   4.572   9.962  0.6348 -0.0627  1.4533
  105OSM    H5G10757   0.898   4.441   9.918  0.2713  1.9678 -1.9970
  105OSM    C6F10758   1.096   4.392   9.873  0.0917  0.3407 -0.0267
  105OSM    H6F10759   1.057   4.289   9.859 -1.1302  0.5114  1.8657
  105OSM    H6G10760   1.194   4.368   9.919 -0.2358 -0.6703  0.1624
  105OSM    C7F10761   1.095   4.449   9.728  0.4700 -0.0469 -0.0424
  105OSM    H7F10762   1.060   4.554   9.713  1.8147  0.2958 -0.9011
  105OSM    H7G10763   1.015   4.401   9.668 -1.7122  0.4387  2.3912
  105OSM    C8F10764   1.229   4.437   9.647 -0.1337  0.3755 -0.1256
  105OSM    H8F10765   1.291   4.511   9.703 -1.5883  1.6352 -0.1451
  105OSM    H8G10766   1.210   4.486   9.549 -0.6857  2.1358  0.8405
  105OSM    C9F10767   1.294   4.302   9.645  0.8515  0.1423  0.4474
  105OSM    H9F10768   1.312   4.270   9.748  1.2259  2.2086  1.0311
  105OSM   C10F10769   1.310   4.230   9.534 -0.9740  0.9758  0.2561
  105OSM   H10F10770   1.360   4.133   9.548  1.5989  2.5062  2.1380
  105OSM   C11F10771   1.274   4.270   9.393  0.8954  0.1843 -0.7384
  105OSM   H11F10772   1.177   4.324   9.392  0.8705  0.1985  1.1566
  105OSM   H11G10773   1.254   4.179   9.333 -1.1488  0.6506 -0.8072
  105OSM   C12F10774   1.388   4.348   9.333 -0.1976 -0.3750 -0.5946
  105OSM   H12F10775   1.461   4.275   9.294 -0.8615 -2.7130  2.3422
  105OSM   H12G10776   1.428   4.424   9.404 -2.1312  2.5210 -2.4720
  105OSM   C13F10777   1.335   4.438   9.217  0.1303 -0.1109 -0.0051
  105OSM   H13F10778   1.356   4.545   9.234  0.9467 -0.3036  0.2069
  105OSM   H13G10779   1.225   4.428   9.202  0.1439 -0.8683  0.3775
  105OSM   C14F10780   1.408   4.408   9.085 -0.3948 -0.2936 -0.1401
  105OSM   H14F10781   1.405   4.299   9.061 -2.4603  0.5966 -4.3847
  105OSM   H14G10782   1.516   4.432   9.094  0.3048 -3.7406  1.4998
  105OSM   C15F10783   1.335   4.465   8.966 -0.3720  0.5708  0.1301
  105OSM   H15F10784   1.315   4.573   8.976 -0.1555  0.4813  1.5927
  105OSM   H15G10785   1.236   4.414   8.965  0.3583 -0.8646 -0.3698
  105OSM   C16F10786   1.416   4.432   8.837 -0.0493  0.4613 -0.3028
  105OSM   H16F10787   1.437   4.323   8.836 -1.0890  0.1977  1.8880
  105OSM   H16G10788   1.511   4.489   8.845  0.6346 -0.6290 -0.5435
  105OSM   C17F10789   1.347   4.479   8.706  0.4285  0.2199 -0.1520
  105OSM   H17F10790   1.256   4.416   8.694  1.2307 -1.3042  1.4387
  105OSM   H17G10791   1.418   4.449   8.626  0.7786  2.2395 -0.6146
  105OSM   C18F10792   1.311   4.627   8.701  0.6800 -0.4412  0.3031
  105OSM   H18F10793   1.207   4.618   8.664  0.9531  0.0027 -0.5929
  105OSM   H18G10794   1.374   4.682   8.627  1.6479 -0.6640  0.9558
  105OSM   H18H10795   1.300   4.681   8.798 -0.0798  1.0277 -0.5850
  106OSM      N10796   2.405   2.642  11.169 -0.0575 -0.1844 -0.3896
  106OSM    C1510797   2.256   2.651  11.162  0.4473  0.2769 -0.3288
  106OSM   H15A10798   2.225   2.569  11.099  3.4692 -1.1559 -0.0579
  106OSM   H15B10799   2.218   2.742  11.118 -0.2419  0.1074 -0.0946
  106OSM   H15C10800   2.200   2.643  11.255 -2.5959 -0.8740 -2.1797
  106OSM    C1410801   2.451   2.759  11.264  0.4467 -0.2646 -0.3385
  106OSM   H14A10802   2.421   2.854  11.223 -3.9768 -1.9356 -1.1803
  106OSM   H14B10803   2.559   2.754  11.263  0.3737 -2.0175 -1.5911
  106OSM   H14C10804   2.418   2.743  11.366 -0.1391 -1.3333 -0.6852
  106OSM    C1310805   2.447   2.506  11.228 -0.4606 -0.3446  0.3221
  106OSM   H13A10806   2.543   2.514  11.276  0.9388 -0.8747 -2.3126
  106OSM   H13B10807   2.460   2.429  11.154  1.5827  2.2352 -2.1437
  106OSM   H13C10808   2.366   2.484  11.295 -1.8001 -0.4131 -1.2772
  106OSM    C1210809   2.458   2.649  11.024  0.1022 -0.2610 -0.1225
  106OSM   H12A10810   2.565   2.658  11.037  0.2392 -1.3998 -0.4405
  106OSM   H12B10811   2.433   2.740  10.971 -2.5859 -1.1635 -0.4715
  106OSM    C1110812   2.431   2.529  10.933  0.3446 -0.4758 -0.2158
  106OSM   H11A10813   2.489   2.448  10.983 -1.3147 -1.8381 -0.4252
  106OSM   H11B10814   2.473   2.541  10.831  0.4959  2.6802  0.1649
  106OSM      P10815   2.230   2.351  10.947  0.0587  0.0090 -0.3018
  106OSM    O1310816   2.300   2.285  11.059  0.1328 -0.3575  0.3394
  106OSM    O1410817   2.077   2.347  10.949  0.3587 -0.7026 -0.0001
  106OSM    O1110818   2.283   2.275  10.823  0.1010  0.3497 -0.4122
  106OSM    O1210819   2.292   2.505  10.926  0.2250 -0.6559 -0.3800
  106OSM    C1S10820   2.216   2.299  10.696 -0.1542  0.0335 -0.3112
  106OSM    H1S10821   2.247   2.397  10.653  1.1643 -0.0672  0.3893
  106OSM    H1T10822   2.105   2.299  10.702 -0.1120 -2.5331  1.0110
  106OSM     NF10823   2.195   2.217  10.465  0.5592 -0.1734  0.0492
  106OSM    HNF10824   2.113   2.160  10.455  0.2251  0.0483  1.3642
  106OSM    C2S10825   2.264   2.190  10.591 -0.2850  0.0222  0.4276
  106OSM    H2S10826   2.367   2.228  10.578 -0.2776  0.2221  1.0618
  106OSM    C3S10827   2.239   2.045  10.644  0.4040  0.5686  0.5155
  106OSM    H3S10828   2.131   2.028  10.668  0.9562 -2.3060  1.0914
  106OSM     O310829   2.302   2.013  10.767  0.1239  0.3089  0.1548
  106OSM    HO310830   2.317   2.101  10.803  1.4466  1.2567 -2.5877
  106OSM    C4S10831   2.268   1.937  10.536 -0.6429 -0.4948  0.2229
  106OSM    H4S10832   2.182   1.873  10.511  1.3272 -2.3769 -1.8750
  106OSM    C5S10833   2.394   1.919  10.492 -0.4172  0.1547  0.4224
  106OSM    H5S10834   2.487   1.971  10.521 -1.3541  2.0294  0.1333
  106OSM    C6S10835   2.413   1.828  10.376 -0.3733 -0.7640 -0.0257
  106OSM    H6S10836   2.316   1.787  10.339  0.2903 -2.3112 -0.1090
  106OSM    H6T10837   2.474   1.738  10.400 -0.7319 -0.5711  1.6412
  106OSM    C7S10838   2.487   1.904  10.263  0.2209 -0.3519  0.2091
  106OSM    H7S10839   2.506   1.842  10.173  0.4223  0.3869 -0.2520
  106OSM    H7T10840   2.583   1.940  10.306  0.9233 -1.9513  0.0405
  106OSM    C8S10841   2.409   2.022  10.206  0.3082 -0.9776 -0.3137
  106OSM    H8S10842   2.473   2.069  10.128  1.0192 -1.0367  0.2334
  106OSM    H8T10843   2.384   2.099  10.282 -1.9562 -0.9817 -1.0159
  106OSM    C9S10844   2.284   1.979  10.133 -0.1801 -0.6856  0.1797
  106OSM    H9S10845   2.227   2.067  10.098  0.2232 -0.1439  0.8805
  106OSM    H9T10846   2.212   1.911  10.182  0.8771 -0.3825  2.1996
  106OSM   C10S10847   2.326   1.900  10.004 -0.4619 -0.1279  0.4194
  106OSM   H10S10848   2.366   1.800  10.031 -1.6442 -1.3736 -2.3249
  106OSM   H10T10849   2.410   1.959   9.961  0.9016 -1.5011  1.1307
  106OSM   C11S10850   2.209   1.893   9.914  0.3099  0.0578  0.2808
  106OSM   H11S10851   2.153   1.986   9.891 -0.0788 -1.1204 -3.8247
  106OSM   H11T10852   2.133   1.829   9.963 -1.3599  2.8369  1.4370
  106OSM   C12S10853   2.222   1.833   9.772  0.3276  0.0749 -0.1763
  106OSM   H12S10854   2.277   1.736   9.771  2.1607  1.0472  1.6545
  106OSM   H12T10855   2.278   1.913   9.719  0.6802  0.0251  0.1141
  106OSM   C13S10856   2.092   1.810   9.699 -0.0518  0.7771 -0.5912
  106OSM   H13S10857   2.018   1.893   9.703 -0.8094  0.0491  0.8461
  106OSM   H13T10858   2.038   1.731   9.755  1.0996  0.1242 -0.3946
  106OSM   C14S10859   2.108   1.774   9.551  0.1357  0.3363  0.0422
  106OSM   H14S10860   2.146   1.857   9.488 -1.4586  0.4645 -0.8052
  106OSM   H14T10861   2.016   1.725   9.511 -0.0994  0.4499  0.4438
  106OSM   C15S10862   2.217   1.665   9.525  0.6922  0.2469  0.5891
  106OSM   H15S10863   2.219   1.574   9.589  1.6569 -0.6051 -0.6229
  106OSM   H15T10864   2.319   1.708   9.530  0.8841 -0.3725  2.4094
  106OSM   C16S10865   2.200   1.620   9.377  0.5286 -0.6269  0.0410
  106OSM   H16S10866   2.173   1.704   9.309 -1.6015  0.0498  1.6740
  106OSM   H16T10867   2.110   1.555   9.372 -0.2545  0.5262 -1.2816
  106OSM   C17S10868   2.319   1.560   9.325  0.2324 -0.0474  0.7525
  106OSM   H17S10869   2.324   1.456   9.362  1.2256 -0.4574 -0.5085
  106OSM   H17T10870   2.413   1.613   9.352  1.6099 -1.6968 -0.7319
  106OSM   C18S10871   2.319   1.541   9.172 -0.5923 -0.1832 -0.2193
  106OSM   H18S10872   2.316   1.638   9.118  1.7018  1.2337  2.0318
  106OSM   H18T10873   2.232   1.482   9.138  0.0551 -1.8355  0.8901
  106OSM   H18U10874   2.406   1.488   9.127  0.4365  1.3514 -0.0927
  106OSM    C1F10875   2.215   2.314  10.378  0.0861 -0.3656 -0.5458
  106OSM     OF10876   2.286   2.407  10.408  0.3102 -0.4708 -1.0654
  106OSM    C2F10877   2.156   2.319  10.248  0.1803  0.2502  0.1878
  106OSM    H2F10878   2.066   2.384  10.259 -1.2207 -1.7758  0.9334
  106OSM    H2G10879   2.112   2.219  10.229 -1.7733  1.0626  0.2874
  106OSM    C3F10880   2.244   2.383  10.138  0.2341 -0.0930  0.2070
  106OSM    H3F10881   2.331   2.320  10.111  0.8430 -0.0014  1.8831
  106OSM    H3G10882   2.285   2.477  10.182 -0.2169 -0.1732  0.8092
  106OSM    C4F10883   2.176   2.422  10.005 -0.5109  0.0103 -0.5020
  106OSM    H4F10884   2.248   2.477   9.940 -0.4530  0.8973  0.2987
  106OSM    H4G10885   2.089   2.490  10.016 -1.1548 -0.5224 -2.0760
  106OSM    C5F10886   2.117   2.304   9.935  0.6675 -0.8292  0.0355
  106OSM    H5F10887   2.039   2.253   9.997 -0.7613 -0.2694 -1.2858
  106OSM    H5G10888   2.195   2.228   9.911  1.9684  0.9532 -1.4627
  106OSM    C6F10889   2.041   2.341   9.805 -0.1290 -0.0298  0.8331
  106OSM    H6F10890   2.105   2.402   9.738  1.0634  1.1776  3.0271
  106OSM    H6G10891   1.952   2.401   9.833 -0.6981  0.8239 -2.4945
  106OSM    C7F10892   2.003   2.211   9.725 -0.4484  1.0805  0.1782
  106OSM    H7F10893   1.944   2.144   9.791  0.1885  1.1314  0.8108
  106OSM    H7G10894   2.091   2.160   9.681 -1.1111 -0.7353  0.9019
  106OSM    C8F10895   1.918   2.249   9.605 -0.2604 -0.2365 -0.1348
  106OSM    H8F10896   1.967   2.336   9.556 -2.1853  0.2072 -1.3103
  106OSM    H8G10897   1.823   2.294   9.639 -0.0363 -1.1579  1.8271
  106OSM    C9F10898   1.903   2.141   9.503  0.0889 -0.3415 -0.1861
  106OSM    H9F10899   1.896   2.043   9.553 -0.1691 -0.5139 -0.5578
  106OSM   C10F10900   1.915   2.140   9.371 -0.2680 -0.5425  0.9218
  106OSM   H10F10901   1.897   2.051   9.308  1.4185 -0.0461 -0.3008
  106OSM   C11F10902   1.951   2.263   9.283 -0.0297  0.0172 -0.3554
  106OSM   H11F10903   2.037   2.230   9.221 -1.5063  0.7720 -2.8626
  106OSM   H11G10904   1.988   2.354   9.335  0.1925  0.4567 -1.2818
  106OSM   C12F10905   1.851   2.305   9.167  0.1041  0.0217 -0.3484
  106OSM   H12F10906   1.881   2.403   9.123  0.9704  0.9693  2.2370
  106OSM   H12G10907   1.755   2.327   9.219 -0.2548 -0.7923 -0.6596
  106OSM   C13F10908   1.850   2.190   9.067 -0.0490  0.6019 -0.4675
  106OSM   H13F10909   1.828   2.093   9.117  0.9439 -0.3849 -1.9078
  106OSM   H13G10910   1.951   2.178   9.023 -0.4647  0.7805 -1.4908
  106OSM   C14F10911   1.750   2.198   8.953 -0.5554  0.2558  0.3710
  106OSM   H14F10912   1.651   2.226   8.996 -0.2973  1.0829  0.4458
  106OSM   H14G10913   1.745   2.094   8.914  0.2342  0.7529 -1.0934
  106OSM   C15F10914   1.775   2.300   8.840 -0.9627  0.2191  0.7502
  106OSM   H15F10915   1.884   2.320   8.844 -0.3767 -2.6591  0.1750
  106OSM   H15G10916   1.732   2.401   8.854 -1.1904 -0.1697  3.1613
  106OSM   C16F10917   1.731   2.235   8.713  0.4520  0.1573 -0.0049
  106OSM   H16F10918   1.626   2.202   8.725  0.0848  0.6708 -1.6218
  106OSM   H16G10919   1.797   2.146   8.706 -1.0285 -1.0444  1.1419
  106OSM   C17F10920   1.755   2.319   8.582 -0.0883 -0.2350  0.5626
  106OSM   H17F10921   1.860   2.311   8.546 -0.8448 -3.3511 -1.1208
  106OSM   H17G10922   1.743   2.426   8.610 -1.0173 -0.3703  0.6880
  106OSM   C18F10923   1.650   2.285   8.473 -0.5738  0.6842  0.1445
  106OSM   H18F10924   1.681   2.331   8.376 -0.0092  1.0792  0.5062
  106OSM   H18G10925   1.546   2.310   8.501 -1.4351 -0.6949 -1.7119
  106OSM   H18H10926   1.668   2.176   8.466 -0.5871  0.6192  1.1263
  107OSM      N10927   3.907   0.643  11.040  0.1276 -0.0020 -0.3383
  107OSM    C1510928   4.049   0.632  11.072  0.2212  0.2156 -0.6643
  107OSM   H15A10929   4.093   0.559  11.005 -0.8785  0.1216 -1.3055
  107OSM   H15B10930   4.073   0.618  11.176 -2.9061  1.3349  0.2532
  107OSM   H15C10931   4.105   0.719  11.040  0.0542  0.5929  0.0680
  107OSM    C1410932   3.858   0.768  11.111 -0.2397  0.1259  0.7565
  107OSM   H14A10933   3.751   0.754  11.112 -0.0689 -1.3059  0.4985
  107OSM   H14B10934   3.894   0.860  11.069 -0.0840  0.9724  2.7016
  107OSM   H14C10935   3.886   0.768  11.215 -0.7166  0.9277  0.8821
  107OSM    C1310936   3.889   0.669  10.893  0.6584  0.0714  0.8881
  107OSM   H13A10937   3.934   0.765  10.868  1.5819 -0.1079  1.8278
  107OSM   H13B10938   3.786   0.687  10.867  1.1523  1.1858 -0.3888
  107OSM   H13C10939   3.922   0.589  10.828 -0.8805  0.1543 -0.0137
  107OSM    C1210940   3.829   0.523  11.086  0.8486  0.2087 -0.4024
  107OSM   H12A10941   3.834   0.519  11.194  1.7787  0.4142 -0.4312
  107OSM   H12B10942   3.877   0.431  11.057 -0.2439 -0.8345  0.9988
  107OSM    C1110943   3.679   0.521  11.036 -0.1870 -0.5013  0.1096
  107OSM   H11A10944   3.689   0.507  10.926 -0.5880 -2.2797  0.2733
  107OSM   H11B10945   3.635   0.617  11.071 -1.2125 -0.5682 -0.9361
  107OSM      P10946   3.456   0.393  11.048 -0.1323 -0.3023  0.2082
  107OSM    O1310947   3.391   0.271  11.097 -0.5309  0.2345 -0.4073
  107OSM    O1410948   3.379   0.511  11.088 -0.3074  0.0832  0.5165
  107OSM    O1110949   3.476   0.389  10.891 -0.3834 -0.2023  0.2359
  107OSM    O1210950   3.614   0.411  11.098  0.1490 -0.1689 -0.2560
  107OSM    C1S10951   3.533   0.268  10.833 -0.0212  0.0662  0.1781
  107OSM    H1S10952   3.493   0.174  10.877 -0.9988  0.7257  0.7166
  107OSM    H1T10953   3.642   0.278  10.852 -0.3001 -0.5412  2.2429
  107OSM     NF10954   3.499   0.104  10.638 -0.5221 -0.7194 -0.0990
  107OSM    HNF10955   3.585   0.066  10.605  1.1813  0.5282  2.6876
  107OSM    C2S10956   3.512   0.246  10.672  0.2504 -0.5218 -0.6436
  107OSM    H2S10957   3.412   0.286  10.648  0.3739  0.3236  0.2338
  107OSM    C3S10958   3.624   0.325  10.603  0.8215  0.1588 -0.3491
  107OSM    H3S10959   3.718   0.268  10.613  1.3697  1.1820  0.4268
  107OSM     O310960   3.634   0.459  10.652 -0.1233 -0.4805 -0.0064
  107OSM    HO310961   3.579   0.464  10.731  0.5362  0.0060  0.4210
  107OSM    C4S10962   3.593   0.331  10.450 -0.1346  0.3799  0.2804
  107OSM    H4S10963   3.508   0.397  10.429 -1.9698 -1.3978  1.9664
  107OSM    C5S10964   3.661   0.267  10.352 -0.2361  0.3343 -0.3254
  107OSM    H5S10965   3.748   0.208  10.383  1.3598  0.9257 -3.4477
  107OSM    C6S10966   3.634   0.260  10.201  0.1135  0.1291 -0.2727
  107OSM    H6S10967   3.728   0.275  10.143  1.2843  2.1861  2.0490
  107OSM    H6T10968   3.550   0.320  10.160  0.4132  0.9953  0.3613
  107OSM    C7S10969   3.599   0.103  10.186 -0.0393 -0.8881  0.1411
  107OSM    H7S10970   3.512   0.087  10.254 -0.7439  0.6679 -0.3811
  107OSM    H7T10971   3.681   0.034  10.216 -0.7086 -0.8927  1.9971
  107OSM    C8S10972   3.540   0.062  10.044 -0.2316 -0.1890 -0.5158
  107OSM    H8S10973   3.604   0.112   9.968  2.1112  1.3172  2.3370
  107OSM    H8T10974   3.445   0.120  10.036  0.2308  0.5730 -0.6017
  107OSM    C9S10975   3.534  -0.088  10.025 -0.0992 -0.7357 -0.6778
  107OSM    H9S10976   3.478  -0.138  10.107  1.0574 -0.1487  0.4760
  107OSM    H9T10977   3.636  -0.130  10.029  0.3233  0.4559  1.8685
  107OSM   C10S10978   3.469  -0.117   9.885  0.4945 -0.0453 -0.5727
  107OSM   H10S10979   3.371  -0.067   9.874  0.2661 -1.1319 -4.2027
  107OSM   H10T10980   3.457  -0.227   9.890 -0.2040  0.0511 -0.0190
  107OSM   C11S10981   3.547  -0.092   9.763 -0.4131  0.1855  0.0104
  107OSM   H11S10982   3.611  -0.181   9.745 -1.5137 -1.0179  1.8469
  107OSM   H11T10983   3.608  -0.001   9.782  0.9647 -1.0820  1.8892
  107OSM   C12S10984   3.461  -0.071   9.639 -0.3107  0.4073  0.1264
  107OSM   H12S10985   3.535  -0.066   9.556 -1.5436  1.7116 -0.9189
  107OSM   H12T10986   3.415   0.030   9.641  1.1954  1.1318 -0.4617
  107OSM   C13S10987   3.352  -0.168   9.605  0.0666  0.3181  0.0829
  107OSM   H13S10988   3.268  -0.111   9.560 -0.9366 -0.6283  0.7408
  107OSM   H13T10989   3.307  -0.211   9.697  3.2276  0.9639  2.0338
  107OSM   C14S10990   3.399  -0.288   9.527  0.0638  0.1555  0.5488
  107OSM   H14S10991   3.330  -0.375   9.527  1.8476 -1.2925 -0.0746
  107OSM   H14T10992   3.495  -0.325   9.568  0.0999 -0.3189  0.0508
  107OSM   C15S10993   3.402  -0.254   9.377  0.4393  0.0147  0.3368
  107OSM   H15S10994   3.482  -0.182   9.349 -0.4953  1.5002  1.4312
  107OSM   H15T10995   3.306  -0.209   9.347 -0.5272 -1.6877  0.7914
  107OSM   C16S10996   3.415  -0.372   9.287  0.3142  0.1233 -0.6399
  107OSM   H16S10997   3.317  -0.420   9.265  1.1823 -1.4631 -1.1429
  107OSM   H16T10998   3.492  -0.444   9.323 -0.4055 -0.0168  0.6341
  107OSM   C17S10999   3.464  -0.337   9.149  0.3720  0.2421 -0.1368
  107OSM   H17S11000   3.562  -0.287   9.158 -0.2899  1.6823 -0.7684
  107OSM   H17T11001   3.398  -0.261   9.103 -0.5439 -0.9879 -0.9058
  107OSM   C18S11002   3.486  -0.451   9.052 -0.5171 -0.1993 -0.2233
  107OSM   H18S11003   3.404  -0.527   9.051  0.7886 -1.6348 -1.9152
  107OSM   H18T11004   3.578  -0.504   9.085  0.8137  0.9192 -2.0309
  107OSM   H18U11005   3.499  -0.414   8.948  1.8639  0.0955  0.1603
  107OSM    C1F11006   3.394   0.026  10.672 -0.2796  0.0284  0.6322
  107OSM     OF11007   3.296   0.081  10.714 -0.3244 -0.4096  0.7285
  107OSM    C2F11008   3.390  -0.125  10.658 -0.6370 -0.0532 -0.2222
  107OSM    H2F11009   3.366  -0.168  10.757  1.6905 -0.4189  0.2143
  107OSM    H2G11010   3.488  -0.170  10.628  0.0085  0.4425  1.1198
  107OSM    C3F11011   3.282  -0.171  10.561  0.0420 -0.6752 -0.3839
  107OSM    H3F11012   3.183  -0.128  10.591  0.9804  0.7739  0.7088
  107OSM    H3G11013   3.277  -0.281  10.577  1.5038 -0.6354  0.4485
  107OSM    C4F11014   3.300  -0.118  10.420  0.3089  0.5859 -0.4840
  107OSM    H4F11015   3.396  -0.151  10.375  0.5191  0.1259  0.2911
  107OSM    H4G11016   3.299  -0.007  10.422  2.1542  0.6814 -2.8128
  107OSM    C5F11017   3.173  -0.162  10.338 -0.5957 -0.1691  0.2738
  107OSM    H5F11018   3.080  -0.147  10.398  0.4719  1.8924  1.4468
  107OSM    H5G11019   3.175  -0.272  10.325  1.7413 -0.3433  1.9208
  107OSM    C6F11020   3.153  -0.098  10.199  0.6510  0.6725  0.1036
  107OSM    H6F11021   3.245  -0.138  10.151  1.7796  1.5229  1.5083
  107OSM    H6G11022   3.167   0.012  10.206  0.9621  0.6261  0.2312
  107OSM    C7F11023   3.028  -0.138  10.125 -0.3794 -0.1603 -0.3473
  107OSM    H7F11024   2.942  -0.072  10.145  0.9667  1.8589 -1.1014
  107OSM    H7G11025   3.005  -0.243  10.153  2.2536 -0.5119  0.6273
  107OSM    C8F11026   3.047  -0.136   9.971 -0.4906  0.4966  0.1720
  107OSM    H8F11027   2.962  -0.192   9.927  0.5812 -0.9674 -0.0718
  107OSM    H8G11028   3.134  -0.204   9.967 -0.1669  0.9338 -0.3908
  107OSM    C9F11029   3.074  -0.013   9.889 -0.4248  0.2130 -0.6397
  107OSM    H9F11030   3.148   0.053   9.937  0.1936 -1.6590  1.0426
  107OSM   C10F11031   3.028   0.029   9.769  1.3597 -0.0717 -0.0039
  107OSM   H10F11032   3.032   0.136   9.743 -0.3762  0.1902  0.7270
  107OSM   C11F11033   2.930  -0.042   9.680  0.0309 -0.0689  0.0237
  107OSM   H11F11034   2.835   0.015   9.672 -0.4356 -1.0258 -1.5486
  107OSM   H11G11035   2.920  -0.148   9.712 -1.0045  0.4663  1.5547
  107OSM   C12F11036   2.976  -0.040   9.535 -0.3763 -0.3178  0.0428
  107OSM   H12F11037   3.077  -0.086   9.532  0.3030  1.1229  0.5146
  107OSM   H12G11038   2.989   0.060   9.488  0.1881  0.4096  1.7438
  107OSM   C13F11039   2.878  -0.129   9.457 -0.1179 -0.0974  0.9336
  107OSM   H13F11040   2.778  -0.085   9.477  0.5374  1.3885  1.0546
  107OSM   H13G11041   2.863  -0.225   9.510  1.2396 -0.5531  0.5045
  107OSM   C14F11042   2.912  -0.159   9.307  0.1098  0.0942 -0.2562
  107OSM   H14F11043   3.003  -0.223   9.308  1.5563  2.1075  2.1485
  107OSM   H14G11044   2.926  -0.064   9.253 -0.1844 -0.9994 -2.3144
  107OSM   C15F11045   2.811  -0.253   9.237  0.3392 -0.2797 -0.7131
  107OSM   H15F11046   2.710  -0.207   9.241  0.6252  0.4044 -1.4729
  107OSM   H15G11047   2.820  -0.358   9.273  2.9224 -0.5535 -2.0471
  107OSM   C16F11048   2.837  -0.263   9.086  0.7898 -0.4163 -0.0187
  107OSM   H16F11049   2.939  -0.299   9.063  1.1950  0.3276  0.5656
  107OSM   H16G11050   2.834  -0.162   9.040 -2.1343 -1.5037 -2.3671
  107OSM   C17F11051   2.741  -0.358   9.022 -0.0915 -0.2162  0.2591
  107OSM   H17F11052   2.641  -0.317   9.047 -0.0902  0.7578 -1.2398
  107OSM   H17G11053   2.756  -0.457   9.070 -0.7995 -0.5210 -0.1516
  107OSM   C18F11054   2.765  -0.376   8.866 -0.5658  0.1711 -0.4951
  107OSM   H18F11055   2.673  -0.418   8.820  0.9413 -1.3968 -2.1519
  107OSM   H18G11056   2.861  -0.422   8.835 -0.6259  0.8588 -1.6975
  107OSM   H18H11057   2.755  -0.277   8.818  0.8497  1.6834  2.1845
  108OSM      N11058   6.678   5.385  10.686  0.3049  0.0512  0.2997
  108OSM    C1511059   6.625   5.502  10.769 -0.3286 -0.4660  0.1942
  108OSM   H15A11060   6.523   5.532  10.750  0.0501  1.0988  0.5072
  108OSM   H15B11061   6.699   5.581  10.766  0.6740 -1.3899  0.4062
  108OSM   H15C11062   6.620   5.475  10.874  0.3446 -1.6811 -0.0783
  108OSM    C1411063   6.701   5.448  10.548 -0.6378  0.1600 -0.2706
  108OSM   H14A11064   6.605   5.481  10.511 -0.8561  0.6324  0.7094
  108OSM   H14B11065   6.743   5.375  10.480  1.2794  0.2191  0.8059
  108OSM   H14C11066   6.764   5.536  10.555  0.5288 -0.7885  1.3090
  108OSM    C1311067   6.806   5.334  10.735 -0.4062 -0.0159  0.0055
  108OSM   H13A11068   6.796   5.303  10.838 -0.2649 -0.0799 -0.0004
  108OSM   H13B11069   6.884   5.400  10.701 -1.5804  0.2206 -2.3585
  108OSM   H13C11070   6.822   5.238  10.688 -3.7996 -1.0141  0.7266
  108OSM    C1211071   6.574   5.270  10.678  0.1312  0.2301 -0.2221
  108OSM   H12A11072   6.476   5.312  10.660  1.0066  1.6356 -1.7912
  108OSM   H12B11073   6.567   5.225  10.776  0.3902 -0.0358 -0.3249
  108OSM    C1111074   6.596   5.151  10.587 -0.0677 -0.4684  0.2051
  108OSM   H11A11075   6.627   5.181  10.485  2.4727 -0.4703  0.9618
  108OSM   H11B11076   6.500   5.101  10.561 -0.3876 -0.2197  0.8892
  108OSM      P11077   6.648   4.964  10.764  0.0801  0.5323 -0.4167
  108OSM    O1311078   6.752   4.966  10.874 -0.2022 -0.4908 -0.6171
  108OSM    O1411079   6.509   4.980  10.805  0.1877 -0.1165  0.8839
  108OSM    O1111080   6.656   4.826  10.697  0.5066  0.5058 -0.2146
  108OSM    O1211081   6.690   5.062  10.649  0.5668 -0.0950 -0.9052
  108OSM    C1S11082   6.569   4.795  10.588  0.7455  0.9755 -0.4707
  108OSM    H1S11083   6.582   4.864  10.501  1.5691 -0.9897 -1.9429
  108OSM    H1T11084   6.466   4.788  10.629  1.2208  1.1722  0.7810
  108OSM     NF11085   6.539   4.660  10.384  0.3755  0.6505  0.3788
  108OSM    HNF11086   6.462   4.601  10.361  0.4566  0.4504  0.6160
  108OSM    C2S11087   6.599   4.656  10.518 -0.3377  0.2233  0.5596
  108OSM    H2S11088   6.706   4.650  10.490 -0.8723 -0.8935 -1.3692
  108OSM    C3S11089   6.552   4.546  10.608 -0.3286 -0.4108 -1.0753
  108OSM    H3S11090   6.441   4.547  10.616 -0.2199 -1.4467  0.8285
  108OSM     O311091   6.599   4.558  10.741  0.0770  0.0521  0.2520
  108OSM    HO311092   6.622   4.650  10.753 -3.1429  0.7610  1.5057
  108OSM    C4S11093   6.585   4.416  10.548  0.2611  0.9356 -0.0433
  108OSM    H4S11094   6.499   4.373  10.495  0.7200  0.1601 -0.1631
  108OSM    C5S11095   6.708   4.362  10.534  0.4068  0.4892  0.4302
  108OSM    H5S11096   6.798   4.410  10.575  1.3018 -1.2126  0.5204
  108OSM    C6S11097   6.730   4.233  10.459  0.2962  0.3920  0.0354
  108OSM    H6S11098   6.637   4.174  10.452  1.2637 -1.2216  0.5504
  108OSM    H6T11099   6.799   4.167  10.516 -1.2211 -2.0463 -0.8726
  108OSM    C7S11100   6.792   4.251  10.316  0.6771  0.0307 -0.3599
  108OSM    H7S11101   6.838   4.155  10.285 -1.3847 -1.1068  0.0552
  108OSM    H7T11102   6.870   4.331  10.316 -1.0251  1.7468  1.4669
  108OSM    C8S11103   6.682   4.291  10.217  0.6998 -0.6797 -0.0957
  108OSM    H8S11104   6.677   4.402  10.214 -0.9012 -0.7465 -0.4549
  108OSM    H8T11105   6.588   4.238  10.242  0.6179  0.0923  1.2947
  108OSM    C9S11106   6.711   4.255  10.071 -0.4184 -0.8329 -0.5579
  108OSM    H9S11107   6.627   4.280  10.002  0.9063  0.1131 -1.8657
  108OSM    H9T11108   6.729   4.145  10.072 -1.8267 -1.0609  0.9646
  108OSM   C10S11109   6.836   4.331  10.021  0.2097 -0.2717  0.3342
  108OSM   H10S11110   6.919   4.333  10.095 -0.6218  1.7730  1.2491
  108OSM   H10T11111   6.811   4.436   9.998  0.2227 -0.5036 -0.7420
  108OSM   C11S11112   6.889   4.272   9.882 -0.0389 -0.3369  0.0646
  108OSM   H11S11113   6.935   4.173   9.900  2.1758  0.8121  0.9803
  108OSM   H11T11114   6.978   4.336   9.861 -0.7181  0.3857 -0.6695
  108OSM   C12S11115   6.806   4.268   9.760  0.1966  0.0965 -0.4588
  108OSM   H12S11116   6.798   4.376   9.732  0.1563  0.1421 -0.2727
  108OSM   H12T11117   6.707   4.227   9.787  0.9215 -2.3998 -1.4852
  108OSM   C13S11118   6.879   4.179   9.655 -0.5012  0.2161 -0.6795
  108OSM   H13S11119   6.876   4.069   9.674  0.6347  0.6804  2.3978
  108OSM   H13T11120   6.987   4.206   9.653 -0.7249  1.2609  0.9437
  108OSM   C14S11121   6.828   4.187   9.510  0.5360  0.1688 -1.1140
  108OSM   H14S11122   6.814   4.292   9.474  1.5166  1.0743  1.0711
  108OSM   H14T11123   6.732   4.136   9.488  2.0227 -4.2254  1.9445
  108OSM   C15S11124   6.925   4.111   9.418 -0.4123 -0.3711  0.6859
  108OSM   H15S11125   6.916   4.002   9.437  1.7970 -0.4544  1.4502
  108OSM   H15T11126   7.033   4.136   9.433 -0.3747  1.0741 -1.6554
  108OSM   C16S11127   6.890   4.145   9.274 -0.0246 -0.0690 -0.2005
  108OSM   H16S11128   6.902   4.254   9.253  0.3863 -0.3855 -1.7103
  108OSM   H16T11129   6.785   4.124   9.244  1.1963 -1.8348 -3.5478
  108OSM   C17S11130   6.980   4.065   9.175 -0.6096 -0.2505 -0.1905
  108OSM   H17S11131   6.938   3.963   9.170 -0.1667 -0.4374 -0.1681
  108OSM   H17T11132   7.086   4.060   9.209 -0.4718 -0.7754 -0.6929
  108OSM   C18S11133   6.989   4.124   9.030  0.5981  0.1420  0.7960
  108OSM   H18S11134   7.055   4.212   9.042  0.3142  0.2990  1.2072
  108OSM   H18T11135   6.891   4.158   8.989  0.9644 -0.2815 -0.4740
  108OSM   H18U11136   7.036   4.055   8.956  2.6930  0.5864  1.6988
  108OSM    C1F11137   6.588   4.735  10.289  0.0542 -0.3906  0.0511
  108OSM     OF11138   6.703   4.782  10.295  0.1226  0.3353  0.2748
  108OSM    C2F11139   6.495   4.762  10.174 -0.5449 -0.3214  0.7261
  108OSM    H2F11140   6.509   4.871  10.157 -0.1091 -0.6308 -1.0324
  108OSM    H2G11141   6.389   4.743  10.198 -0.5242  0.2814  1.2999
  108OSM    C3F11142   6.542   4.685  10.053 -0.3826 -0.1122 -0.1000
  108OSM    H3F11143   6.564   4.583  10.090  0.1161  1.2040  3.4401
  108OSM    H3G11144   6.642   4.726  10.026  0.3793 -1.6979  0.2231
  108OSM    C4F11145   6.457   4.689   9.928  0.5798 -1.0048  0.1161
  108OSM    H4F11146   6.459   4.792   9.885  3.7254 -1.6546 -1.4149
  108OSM    H4G11147   6.353   4.662   9.956  0.8279 -0.5685  1.5298
  108OSM    C5F11148   6.501   4.579   9.827 -0.4433  0.7679 -0.1346
  108OSM    H5F11149   6.525   4.485   9.880  0.9175  2.8041  2.9786
  108OSM    H5G11150   6.597   4.615   9.783 -0.8557  0.0337 -1.6800
  108OSM    C6F11151   6.404   4.554   9.709  0.1971  0.5641  1.1496
  108OSM    H6F11152   6.407   4.648   9.651 -0.4743 -1.2408 -1.9505
  108OSM    H6G11153   6.298   4.535   9.735  0.6445  1.0758  3.4651
  108OSM    C7F11154   6.460   4.441   9.620  0.1242 -0.4868 -0.8342
  108OSM    H7F11155   6.453   4.346   9.676  0.7809 -0.5666 -0.8767
  108OSM    H7G11156   6.569   4.458   9.609 -0.0639  0.0967 -1.8730
  108OSM    C8F11157   6.386   4.418   9.488  0.1914 -0.7482  0.7653
  108OSM    H8F11158   6.397   4.509   9.425 -1.5487 -0.1935  1.2398
  108OSM    H8G11159   6.278   4.403   9.512 -0.6717 -0.0797 -2.3849
  108OSM    C9F11160   6.441   4.293   9.430 -0.0038 -0.7466 -0.2172
  108OSM    H9F11161   6.399   4.199   9.468  0.8964 -1.6410 -1.4485
  108OSM   C10F11162   6.533   4.291   9.332  0.0639  0.2908 -0.3535
  108OSM   H10F11163   6.575   4.194   9.302 -0.7492 -0.2952  0.3687
  108OSM   C11F11164   6.598   4.409   9.272  0.3048  0.0062 -0.6302
  108OSM   H11F11165   6.698   4.428   9.318 -0.2527 -0.1690  0.6672
  108OSM   H11G11166   6.534   4.498   9.285  1.7690  0.6672  2.4731
  108OSM   C12F11167   6.627   4.372   9.126 -0.5329 -0.0552 -0.7366
  108OSM   H12F11168   6.681   4.276   9.124  2.1215  1.4226 -1.3416
  108OSM   H12G11169   6.692   4.455   9.094  1.5526 -1.2092  0.4284
  108OSM   C13F11170   6.506   4.354   9.031 -1.3318  0.3815 -0.0956
  108OSM   H13F11171   6.466   4.458   9.024  0.3881  1.1340  1.0636
  108OSM   H13G11172   6.430   4.283   9.069 -1.1969  0.3164  0.0523
  108OSM   C14F11173   6.539   4.310   8.883  0.4478 -0.3514 -0.2067
  108OSM   H14F11174   6.608   4.224   8.876  0.4224 -0.3795 -0.0881
  108OSM   H14G11175   6.603   4.390   8.838  2.1138 -1.0870  0.8090
  108OSM   C15F11176   6.416   4.297   8.797  0.1177  0.4404 -0.2985
  108OSM   H15F11177   6.444   4.314   8.691  4.5593 -0.5173  0.6323
  108OSM   H15G11178   6.358   4.391   8.811 -2.0591 -0.2998 -3.7618
  108OSM   C16F11179   6.348   4.149   8.800 -0.1182 -0.3491  0.2805
  108OSM   H16F11180   6.426   4.096   8.858 -0.5976 -1.2294  0.1327
  108OSM   H16G11181   6.344   4.094   8.703 -0.5048 -1.3227  0.8433
  108OSM   C17F11182   6.205   4.150   8.861  0.9766 -0.4327 -0.0166
  108OSM   H17F11183   6.224   4.186   8.964  3.1865  0.3720 -0.6746
  108OSM   H17G11184   6.168   4.046   8.871 -0.0372 -0.1195 -0.4132
  108OSM   C18F11185   6.100   4.237   8.796  0.5150  0.2759  0.2424
  108OSM   H18F11186   6.111   4.227   8.685  2.2011  2.2678  0.2042
  108OSM   H18G11187   6.108   4.345   8.820  0.5907  0.2920  0.1492
  108OSM   H18H11188   5.996   4.210   8.825  0.3430  1.0558  0.3572
  109OSM      N11189   0.514   4.927  10.598  0.5309 -0.5462  0.1741
  109OSM    C1511190   0.450   4.860  10.484 -0.1508 -0.0254  0.3380
  109OSM   H15A11191   0.478   4.902  10.388 -1.1626  0.0944  0.0940
  109OSM   H15B11192   0.344   4.848  10.497 -0.0645 -0.1673  0.9198
  109OSM   H15C11193   0.503   4.766  10.489 -0.4688 -0.2702 -0.6881
  109OSM    C1411194   0.521   4.830  10.712  0.2428 -0.0692 -0.3317
  109OSM   H14A11195   0.574   4.863  10.800 -3.0569 -0.2078  1.7945
  109OSM   H14B11196   0.577   4.747  10.671  2.3867  1.1120  0.1640
  109OSM   H14C11197   0.422   4.802  10.744  0.8598 -1.6196  0.3044
  109OSM    C1311198   0.655   4.961  10.572 -0.2139  0.4219  0.1973
  109OSM   H13A11199   0.654   5.047  10.506  0.9674  1.0096  0.9297
  109OSM   H13B11200   0.708   4.880  10.525 -1.6623  0.7303 -2.0402
  109OSM   H13C11201   0.705   4.986  10.664  0.3769 -1.1087  0.2968
  109OSM    C1211202   0.432   5.046  10.628  0.2775 -0.4701 -0.9591
  109OSM   H12A11203   0.460   5.089  10.723 -1.1339  2.1864 -1.7166
  109OSM   H12B11204   0.329   5.019  10.646  1.1011 -1.4492  2.5218
  109OSM    C1111205   0.444   5.170  10.540 -0.2875  0.6107 -0.2243
  109OSM   H11A11206   0.373   5.250  10.568  2.4658  2.1605  2.6995
  109OSM   H11B11207   0.428   5.131  10.437  0.1338 -0.0525 -0.0397
  109OSM      P11208   0.625   5.324  10.662  0.1836  0.2588 -0.1639
  109OSM    O1311209   0.563   5.275  10.790  0.2758 -0.4836 -0.2109
  109OSM    O1411210   0.773   5.324  10.665 -0.2173 -0.2563 -0.0513
  109OSM    O1111211   0.571   5.474  10.639  0.6512 -0.7653 -0.1526
  109OSM    O1211212   0.576   5.232  10.548  0.0965  0.1686 -0.5864
  109OSM    C1S11213   0.599   5.539  10.512 -0.1547 -0.6186  0.3995
  109OSM    H1S11214   0.691   5.497  10.468  0.3453 -1.6113  2.3264
  109OSM    H1T11215   0.619   5.648  10.525 -1.8021 -0.1404 -0.8281
  109OSM     NF11216   0.494   5.583  10.281  0.3193  0.0814  0.5036
  109OSM    HNF11217   0.467   5.676  10.255 -1.3871 -1.5960 -4.2024
  109OSM    C2S11218   0.476   5.534  10.417 -0.0002  0.4551 -0.9107
  109OSM    H2S11219   0.448   5.426  10.416 -2.5755  1.0496  0.9943
  109OSM    C3S11220   0.348   5.600  10.479 -0.0898 -0.2167 -0.5801
  109OSM    H3S11221   0.362   5.708  10.502  1.5602  0.0102 -2.4829
  109OSM     O311222   0.319   5.558  10.607  0.2083  0.2699 -0.3282
  109OSM    HO311223   0.393   5.501  10.631 -0.2346  0.1734  0.8333
  109OSM    C4S11224   0.236   5.590  10.384 -0.0510 -0.1957  0.0797
  109OSM    H4S11225   0.195   5.489  10.370  1.4036 -0.5543 -1.6136
  109OSM    C5S11226   0.170   5.686  10.321  0.0815 -0.5978  0.3252
  109OSM    H5S11227   0.187   5.791  10.350  0.2294 -1.1666  2.3711
  109OSM    C6S11228   0.055   5.665  10.226  0.2485  0.5539  0.3733
  109OSM    H6S11229  -0.036   5.703  10.277 -1.0050 -2.1063  0.2162
  109OSM    H6T11230   0.040   5.557  10.205 -0.6844  0.3614  1.9141
  109OSM    C7S11231   0.080   5.728  10.091  0.1602  0.1308  0.1017
  109OSM    H7S11232   0.168   5.684  10.039  0.8626  2.1463 -0.4901
  109OSM    H7T11233   0.117   5.832  10.101  3.4258 -1.0137  0.5912
  109OSM    C8S11234  -0.041   5.706  10.000 -0.6409 -0.5532 -0.2436
  109OSM    H8S11235  -0.127   5.742  10.060  0.7152  0.7339  0.9649
  109OSM    H8T11236  -0.042   5.598   9.973  0.7445 -0.4431 -0.8078
  109OSM    C9S11237  -0.031   5.804   9.877  0.8338 -0.4380  0.1096
  109OSM    H9S11238  -0.008   5.902   9.923  0.4427 -0.5999  0.6516
  109OSM    H9T11239  -0.133   5.812   9.835  0.1640  0.5563  1.8809
  109OSM   C10S11240   0.069   5.748   9.773  0.6141 -0.1359 -0.6146
  109OSM   H10S11241   0.156   5.722   9.837  1.5264  0.4373 -1.6105
  109OSM   H10T11242   0.085   5.839   9.710  3.8756  0.3276  0.7848
  109OSM   C11S11243   0.014   5.631   9.690 -0.5638 -0.3204  0.7146
  109OSM   H11S11244  -0.092   5.650   9.663 -0.3666  0.7745  0.6939
  109OSM   H11T11245   0.024   5.545   9.760  0.1098 -1.4936 -0.7868
  109OSM   C12S11246   0.088   5.593   9.557  0.6312 -0.0187  0.1540
  109OSM   H12S11247   0.054   5.504   9.499 -0.6712  0.4140  0.2369
  109OSM   H12T11248   0.196   5.576   9.574  1.1924  2.3849 -0.8015
  109OSM   C13S11249   0.067   5.699   9.451  0.0144 -0.0658 -0.5862
  109OSM   H13S11250   0.077   5.795   9.506 -1.0126  1.3736 -2.8218
  109OSM   H13T11251  -0.039   5.693   9.419 -1.3459 -1.6813  3.8827
  109OSM   C14S11252   0.160   5.712   9.326 -0.1516  0.0500 -0.4735
  109OSM   H14S11253   0.263   5.696   9.364 -0.5479  0.5779  0.8471
  109OSM   H14T11254   0.152   5.812   9.278 -0.6745  0.4873  0.5135
  109OSM   C15S11255   0.136   5.605   9.224 -0.8338  0.1911 -0.4962
  109OSM   H15S11256   0.159   5.508   9.275 -1.5851 -0.5855 -1.6078
  109OSM   H15T11257   0.208   5.617   9.140  0.4642 -0.3957  0.5025
  109OSM   C16S11258  -0.003   5.597   9.163 -0.1235  0.1821 -0.5785
  109OSM   H16S11259  -0.036   5.694   9.120  0.4807 -0.2325 -2.0188
  109OSM   H16T11260  -0.078   5.558   9.236 -2.4034 -0.6199 -3.2606
  109OSM   C17S11261  -0.005   5.506   9.041 -0.4698  0.1268 -0.1221
  109OSM   H17S11262   0.074   5.531   8.967  1.1198 -1.2852  1.0531
  109OSM   H17T11263  -0.107   5.510   8.996 -0.3772  3.0117 -0.1668
  109OSM   C18S11264   0.027   5.355   9.074  0.5927  0.7454 -0.3056
  109OSM   H18S11265  -0.044   5.316   9.150  0.1049  0.0656 -1.1097
  109OSM   H18T11266   0.131   5.351   9.114  1.4520 -0.1172 -2.5802
  109OSM   H18U11267   0.026   5.289   8.985  0.7421 -3.0279  2.3881
  109OSM    C1F11268   0.575   5.528  10.190  0.2716 -0.4833  0.5636
  109OSM     OF11269   0.665   5.451  10.222 -0.2112  0.7717  0.0338
  109OSM    C2F11270   0.538   5.573  10.048 -0.7795  0.0423  0.1190
  109OSM    H2F11271   0.459   5.651  10.038 -1.9979 -0.9944  1.3969
  109OSM    H2G11272   0.511   5.479   9.996  4.7400 -2.0503  0.6856
  109OSM    C3F11273   0.664   5.639   9.986 -0.4322 -0.4762 -0.0267
  109OSM    H3F11274   0.753   5.572   9.978 -1.5395 -2.2441  2.0812
  109OSM    H3G11275   0.690   5.723  10.053 -1.3388 -0.9565  0.9465
  109OSM    C4F11276   0.639   5.694   9.843 -1.1641  0.1200  0.0857
  109OSM    H4F11277   0.741   5.711   9.802 -0.3127 -0.6638  1.8321
  109OSM    H4G11278   0.573   5.784   9.840 -0.3008  0.7312 -1.4923
  109OSM    C5F11279   0.584   5.571   9.758  0.1382 -0.1548  0.4510
  109OSM    H5F11280   0.476   5.567   9.781 -0.4457  2.1496 -1.5779
  109OSM    H5G11281   0.634   5.479   9.796  1.4595  0.6941  0.8137
  109OSM    C6F11282   0.617   5.584   9.608 -0.2112 -1.4912  0.0834
  109OSM    H6F11283   0.590   5.493   9.551  3.1936 -0.4800 -3.3562
  109OSM    H6G11284   0.724   5.597   9.583  0.0096 -2.5270  0.4965
  109OSM    C7F11285   0.544   5.702   9.540 -0.2294  0.7882 -0.0950
  109OSM    H7F11286   0.580   5.796   9.587  0.8390  0.1026  0.4914
  109OSM    H7G11287   0.436   5.686   9.561 -0.1680  0.4781 -0.0054
  109OSM    C8F11288   0.552   5.710   9.385 -0.4642  0.2109 -0.7438
  109OSM    H8F11289   0.472   5.782   9.360 -1.7403  0.0774  2.6964
  109OSM    H8G11290   0.526   5.613   9.339 -0.7058  0.7025 -1.6624
  109OSM    C9F11291   0.696   5.747   9.349  0.4362 -0.0250  0.0995
  109OSM    H9F11292   0.780   5.688   9.388 -0.3989 -1.8285 -0.7456
  109OSM   C10F11293   0.731   5.852   9.266 -0.4637  0.2277 -0.3186
  109OSM   H10F11294   0.836   5.884   9.256 -0.1166 -0.7815  0.0149
  109OSM   C11F11295   0.637   5.951   9.206 -0.2227  0.3298 -0.0425
  109OSM   H11F11296   0.621   6.039   9.272 -1.5850 -1.4217  1.9952
  109OSM   H11G11297   0.536   5.906   9.192 -1.3808  1.4574  4.1195
  109OSM   C12F11298   0.673   6.002   9.069  1.1273 -0.2681 -0.0261
  109OSM   H12F11299   0.779   6.035   9.064  1.7316 -1.7619  2.0388
  109OSM   H12G11300   0.608   6.089   9.044 -1.1893 -1.8936  0.1881
  109OSM   C13F11301   0.664   5.899   8.954  0.2610 -0.6485  0.5528
  109OSM   H13F11302   0.566   5.847   8.952  0.5978 -1.2310 -1.0523
  109OSM   H13G11303   0.738   5.817   8.965 -0.9386 -1.3755  3.5778
  109OSM   C14F11304   0.686   5.965   8.816  0.1870  0.1683  0.2471
  109OSM   H14F11305   0.781   6.022   8.813  1.1214 -1.1117  3.3447
  109OSM   H14G11306   0.604   6.039   8.807  0.6845  0.6405 -0.5057
  109OSM   C15F11307   0.692   5.862   8.696  0.4596  0.2158 -0.0593
  109OSM   H15F11308   0.599   5.803   8.684  0.0133  0.5541  1.6655
  109OSM   H15G11309   0.775   5.791   8.714 -0.0405 -1.0834 -2.5873
  109OSM   C16F11310   0.712   5.930   8.556  0.1088  0.0626 -0.4805
  109OSM   H16F11311   0.791   6.007   8.570  0.4304 -0.5096  0.8551
  109OSM   H16G11312   0.622   5.986   8.522  0.0680 -1.1394 -2.4088
  109OSM   C17F11313   0.744   5.824   8.448 -0.5519  0.3420  0.1693
  109OSM   H17F11314   0.656   5.758   8.433 -0.0412  0.0589 -1.6374
  109OSM   H17G11315   0.827   5.759   8.484 -0.1929 -0.6469 -2.3390
  109OSM   C18F11316   0.789   5.881   8.318  0.7620 -0.2336  0.3722
  109OSM   H18F11317   0.895   5.908   8.333 -0.0140  2.4588  1.3231
  109OSM   H18G11318   0.728   5.965   8.278  0.8072 -0.7684 -0.8365
  109OSM   H18H11319   0.787   5.806   8.236 -1.9603 -0.5451  0.6577
  110OSM      N11320   2.269   4.554  11.064  0.0525 -0.0073  0.2424
  110OSM    C1511321   2.402   4.605  11.114 -0.2575 -0.1226 -0.0266
  110OSM   H15A11322   2.478   4.587  11.039 -1.8034  0.8721 -1.8792
  110OSM   H15B11323   2.423   4.551  11.205 -1.2150 -0.7622 -0.1654
  110OSM   H15C11324   2.409   4.711  11.133 -1.4596  0.1264 -0.8672
  110OSM    C1411325   2.290   4.426  10.993  0.0142 -0.0422  0.4407
  110OSM   H14A11326   2.338   4.341  11.040 -1.0917 -0.8337  0.1654
  110OSM   H14B11327   2.336   4.446  10.897 -1.2247 -0.7295 -0.3118
  110OSM   H14C11328   2.195   4.392  10.954 -0.8898  3.4825 -0.5926
  110OSM    C1311329   2.178   4.522  11.177  0.5109  0.6646 -0.0153
  110OSM   H13A11330   2.159   4.606  11.242  2.6864 -0.5119  2.1984
  110OSM   H13B11331   2.212   4.441  11.239  1.7098  0.5670 -0.7898
  110OSM   H13C11332   2.084   4.487  11.137  0.4291  0.7177  0.1285
  110OSM    C1211333   2.203   4.660  10.978  0.3460 -0.4142 -0.0574
  110OSM   H12A11334   2.256   4.676  10.885  1.0955 -0.9115  0.2784
  110OSM   H12B11335   2.217   4.752  11.033 -2.4244 -0.2653  0.4298
  110OSM    C1111336   2.055   4.634  10.945 -0.2398  0.8105 -0.0284
  110OSM   H11A11337   2.019   4.720  10.885 -0.7391  0.5049 -0.1753
  110OSM   H11B11338   1.986   4.638  11.031  0.4100  0.7275  0.4961
  110OSM      P11339   1.883   4.457  10.877 -0.1216  0.0100  0.2087
  110OSM    O1311340   1.860   4.353  10.781  0.0677  0.2002  0.1382
  110OSM    O1411341   1.857   4.427  11.021 -0.3330  0.4739  0.7542
  110OSM    O1111342   1.803   4.589  10.829  0.6150 -0.2887 -0.1615
  110OSM    O1211343   2.033   4.511  10.874  0.2079  0.2672 -0.1299
  110OSM    C1S11344   1.822   4.669  10.712 -0.3899 -0.0535  0.1153
  110OSM    H1S11345   1.927   4.705  10.710 -0.3606 -0.1775 -1.1980
  110OSM    H1T11346   1.761   4.762  10.714  0.9831  0.8714 -0.3808
  110OSM     NF11347   1.850   4.675  10.471 -1.1950  0.0637  0.6517
  110OSM    HNF11348   1.790   4.720  10.405  2.1627  2.3844 -1.0062
  110OSM    C2S11349   1.806   4.591  10.573 -0.0025  0.7424  0.6827
  110OSM    H2S11350   1.876   4.505  10.578 -2.4363 -1.2549  1.7882
  110OSM    C3S11351   1.653   4.554  10.551 -0.3575 -0.0037 -0.4334
  110OSM    H3S11352   1.608   4.654  10.531  1.7170  1.6177  2.4676
  110OSM     O311353   1.600   4.488  10.664  0.0854  0.2747 -0.0049
  110OSM    HO311354   1.671   4.488  10.729  1.1510  0.8088 -1.1664
  110OSM    C4S11355   1.641   4.464  10.431 -0.1801  0.4486 -0.7534
  110OSM    H4S11356   1.681   4.363  10.446  1.9482  1.2065 -1.1904
  110OSM    C5S11357   1.566   4.488  10.320 -0.0804  0.1928  0.2685
  110OSM    H5S11358   1.495   4.572  10.322  1.6095  1.6871 -0.3639
  110OSM    C6S11359   1.543   4.388  10.209 -0.3409 -0.0094 -0.4989
  110OSM    H6S11360   1.591   4.434  10.120 -0.0483  0.2312 -0.2183
  110OSM    H6T11361   1.437   4.381  10.177 -1.4503 -1.0954  3.1365
  110OSM    C7S11362   1.579   4.240  10.226  0.3163  0.0046  0.5012
  110OSM    H7S11363   1.520   4.199  10.311  0.0536  0.0446  0.3418
  110OSM    H7T11364   1.688   4.225  10.243  0.2368  0.4828  1.4416
  110OSM    C8S11365   1.542   4.157  10.099 -0.4432  0.0161  0.0722
  110OSM    H8S11366   1.443   4.198  10.068  0.1856  1.4551 -0.0878
  110OSM    H8T11367   1.525   4.050  10.121 -1.2416  0.0711 -0.2708
  110OSM    C9S11368   1.654   4.163   9.997  0.4478 -0.3404 -0.0490
  110OSM    H9S11369   1.721   4.077  10.016 -1.1136 -1.3269  1.1322
  110OSM    H9T11370   1.703   4.263  10.006 -1.6661  0.6649  0.9214
  110OSM   C10S11371   1.614   4.145   9.852 -0.1193  0.2038 -0.0074
  110OSM   H10S11372   1.541   4.223   9.822  0.0809  0.4390  0.1171
  110OSM   H10T11373   1.556   4.051   9.841 -1.3854  0.6018  2.7562
  110OSM   C11S11374   1.732   4.159   9.763 -0.2874 -0.2005  0.9562
  110OSM   H11S11375   1.805   4.075   9.766  1.2685  1.1663  1.7495
  110OSM   H11T11376   1.790   4.251   9.781 -2.0298  0.6015  2.6453
  110OSM   C12S11377   1.688   4.173   9.613 -0.5970  0.6502  0.0199
  110OSM   H12S11378   1.769   4.215   9.549  0.5974  0.1549  1.1839
  110OSM   H12T11379   1.593   4.230   9.606 -0.9076  0.3026  1.3157
  110OSM   C13S11380   1.669   4.031   9.555 -0.1953 -0.0776  0.3415
  110OSM   H13S11381   1.600   3.979   9.625  0.1899  0.6621  1.2785
  110OSM   H13T11382   1.762   3.974   9.573 -0.1258  0.5379  2.0325
  110OSM   C14S11383   1.635   4.028   9.405  0.1488  0.1704  0.7823
  110OSM   H14S11384   1.536   4.074   9.384  0.8647  1.4944  0.2379
  110OSM   H14T11385   1.635   3.922   9.373  2.0272  0.4821 -0.3320
  110OSM   C15S11386   1.744   4.099   9.319 -0.5577  0.1325  0.4120
  110OSM   H15S11387   1.846   4.078   9.358 -0.6626 -1.8634 -0.3078
  110OSM   H15T11388   1.727   4.208   9.318  2.1248  0.6291 -4.3802
  110OSM   C16S11389   1.737   4.039   9.180  0.3452 -0.8684  0.3772
  110OSM   H16S11390   1.727   3.929   9.186  0.6501 -0.8713  0.8715
  110OSM   H16T11391   1.831   4.062   9.124 -1.0512 -0.2604 -1.7727
  110OSM   C17S11392   1.615   4.092   9.098 -0.3362  0.9907 -0.0517
  110OSM   H17S11393   1.601   4.200   9.118  1.6030  0.6234  3.6646
  110OSM   H17T11394   1.519   4.046   9.131  0.1044  0.8051  0.9892
  110OSM   C18S11395   1.612   4.074   8.942  0.3428 -0.1222 -0.2518
  110OSM   H18S11396   1.524   4.111   8.885 -0.5517  0.5303  1.5117
  110OSM   H18T11397   1.591   3.965   8.935 -1.7964  0.1780  0.9686
  110OSM   H18U11398   1.712   4.107   8.906  1.0453 -1.7287  0.1684
  110OSM    C1F11399   1.977   4.715  10.448  0.7959  0.0491 -0.4718
  110OSM     OF11400   2.072   4.686  10.525  0.3560  0.0514  0.6966
  110OSM    C2F11401   2.006   4.801  10.330  0.8251  0.9201 -0.0724
  110OSM    H2F11402   1.994   4.906  10.362 -0.6277  0.4580  0.9432
  110OSM    H2G11403   1.939   4.770  10.247  1.5905  0.4950 -0.5467
  110OSM    C3F11404   2.158   4.793  10.299 -0.2090 -0.3538  0.1927
  110OSM    H3F11405   2.194   4.694  10.332 -2.3494 -2.3456 -3.1037
  110OSM    H3G11406   2.211   4.868  10.361  1.0731 -0.6475 -0.5250
  110OSM    C4F11407   2.189   4.819  10.156 -0.2129 -0.3392  0.1235
  110OSM    H4F11408   2.299   4.834  10.158 -0.3496  0.5545  1.5175
  110OSM    H4G11409   2.140   4.915  10.129  1.8906  0.4909 -0.8623
  110OSM    C5F11410   2.165   4.705  10.061 -0.1574 -0.1589 -0.5693
  110OSM    H5F11411   2.057   4.681  10.073  0.0413 -2.0755 -2.3530
  110OSM    H5G11412   2.223   4.614  10.086 -1.8560 -0.9078  0.7995
  110OSM    C6F11413   2.182   4.753   9.916 -0.3919  0.1046  0.2889
  110OSM    H6F11414   2.134   4.853   9.909 -1.3391 -0.3622  0.1089
  110OSM    H6G11415   2.115   4.691   9.854 -0.5754  1.0761 -0.4988
  110OSM    C7F11416   2.326   4.765   9.876 -0.1783  0.4745 -0.3044
  110OSM    H7F11417   2.376   4.666   9.868 -2.1263 -0.7279  1.7345
  110OSM    H7G11418   2.384   4.839   9.934  1.0383  0.7809 -1.8786
  110OSM    C8F11419   2.332   4.830   9.735 -0.0639  0.0054 -0.2401
  110OSM    H8F11420   2.440   4.834   9.710 -0.6047  0.4449 -2.6606
  110OSM    H8G11421   2.298   4.936   9.731  0.5410  0.2974  1.9648
  110OSM    C9F11422   2.255   4.746   9.636  1.0134  0.5995 -0.9524
  110OSM    H9F11423   2.146   4.756   9.647  1.0183  0.6910 -0.9859
  110OSM   C10F11424   2.297   4.658   9.543 -0.3308 -0.4451  0.0856
  110OSM   H10F11425   2.225   4.596   9.488  0.0969 -0.3542 -0.5779
  110OSM   C11F11426   2.444   4.622   9.515 -0.7276  0.3210 -0.3486
  110OSM   H11F11427   2.445   4.510   9.515 -0.7343  0.3179 -0.7798
  110OSM   H11G11428   2.510   4.659   9.596  0.5671  0.2006 -1.3419
  110OSM   C12F11429   2.485   4.660   9.375  0.0862 -0.4319 -0.2028
  110OSM   H12F11430   2.593   4.640   9.358 -0.0214 -0.0908 -1.3430
  110OSM   H12G11431   2.460   4.768   9.363 -1.2801 -0.5782  1.2682
  110OSM   C13F11432   2.400   4.589   9.266 -0.2225  0.2365 -1.0427
  110OSM   H13F11433   2.293   4.593   9.295 -0.2252 -0.9821 -0.8669
  110OSM   H13G11434   2.425   4.481   9.271  1.6184  0.6992  0.4049
  110OSM   C14F11435   2.425   4.619   9.117 -1.4410  0.0085  0.6521
  110OSM   H14F11436   2.534   4.629   9.100 -1.7017  0.6725 -0.6989
  110OSM   H14G11437   2.370   4.714   9.099 -0.9467 -0.2416 -2.6036
  110OSM   C15F11438   2.368   4.521   9.012  0.5252  0.1232 -0.7019
  110OSM   H15F11439   2.272   4.481   9.052  0.4492  1.1150  0.1451
  110OSM   H15G11440   2.437   4.434   9.010 -0.7732 -1.0860  2.5886
  110OSM   C16F11441   2.342   4.575   8.872  0.3409 -0.5081 -0.2304
  110OSM   H16F11442   2.443   4.586   8.826 -0.2470  0.3878 -1.3098
  110OSM   H16G11443   2.295   4.675   8.878  1.3313 -0.0783  0.6251
  110OSM   C17F11444   2.254   4.476   8.790 -0.4830  0.1591 -0.0303
  110OSM   H17F11445   2.155   4.482   8.841 -0.0468 -3.2265  1.3123
  110OSM   H17G11446   2.291   4.373   8.806  0.2977  0.9196  3.4322
  110OSM   C18F11447   2.246   4.513   8.641 -0.2334  0.2189 -0.4985
  110OSM   H18F11448   2.162   4.455   8.597 -1.8150  1.3834  0.9104
  110OSM   H18G11449   2.336   4.490   8.581 -0.9943  1.3279 -2.1298
  110OSM   H18H11450   2.221   4.621   8.626 -1.3109 -0.0190 -0.4798
  111OSM      N11451   2.571   1.151  11.189  0.0147  0.2883  0.1605
  111OSM    C1511452   2.463   1.207  11.273 -0.5116  0.2767  0.7605
  111OSM   H15A11453   2.457   1.178  11.377  0.0611  1.7574  1.2097
  111OSM   H15B11454   2.369   1.168  11.235 -1.1591  1.5311  1.0485
  111OSM   H15C11455   2.466   1.314  11.265 -1.2932  0.4202  2.2280
  111OSM    C1411456   2.706   1.164  11.251  0.5100 -0.8027 -0.8455
  111OSM   H14A11457   2.782   1.139  11.178  1.0180 -2.9544  0.3850
  111OSM   H14B11458   2.712   1.091  11.330 -1.4487  0.5126  0.5616
  111OSM   H14C11459   2.711   1.265  11.290 -2.7569 -0.4134 -1.3155
  111OSM    C1311460   2.551   0.998  11.187 -0.1048  0.2403  0.3378
  111OSM   H13A11461   2.567   0.960  11.287  1.8062 -1.6871 -0.6554
  111OSM   H13B11462   2.621   0.944  11.126 -0.2652  1.0088 -0.5447
  111OSM   H13C11463   2.454   0.968  11.150 -0.0098  0.8310 -0.3982
  111OSM    C1211464   2.574   1.200  11.050  1.0699  0.6477  0.1769
  111OSM   H12A11465   2.586   1.307  11.058  1.2163  0.7277 -0.9965
  111OSM   H12B11466   2.477   1.184  11.004  0.9538  2.8671 -0.4392
  111OSM    C1111467   2.681   1.145  10.948  0.5445  0.0255 -0.1239
  111OSM   H11A11468   2.647   1.174  10.847  1.4039  0.2043 -0.3679
  111OSM   H11B11469   2.684   1.036  10.968  2.4457  0.5726  2.8993
  111OSM      P11470   2.859   1.339  10.917  0.0167 -0.2940  0.5980
  111OSM    O1311471   2.778   1.444  10.986  0.3837  0.5446  0.0590
  111OSM    O1411472   3.007   1.362  10.937 -0.8247  0.6815  0.0454
  111OSM    O1111473   2.811   1.336  10.767  0.2543 -0.6546 -0.4770
  111OSM    O1211474   2.812   1.198  10.975  0.4068  0.0604  0.4668
  111OSM    C1S11475   2.848   1.236  10.672  0.5897 -0.2700 -0.7898
  111OSM    H1S11476   2.813   1.140  10.715  0.1094  1.1458  2.1411
  111OSM    H1T11477   2.956   1.226  10.648  0.7275 -0.5466 -0.0735
  111OSM     NF11478   2.800   1.158  10.452  0.1943 -0.1034 -0.0007
  111OSM    HNF11479   2.875   1.146  10.387 -0.0417  2.6390 -0.8531
  111OSM    C2S11480   2.791   1.276  10.532 -0.3830 -0.0190 -0.2166
  111OSM    H2S11481   2.683   1.302  10.538 -0.5507 -0.6363 -0.5977
  111OSM    C3S11482   2.877   1.389  10.469 -0.0338 -0.7302 -0.3690
  111OSM    H3S11483   2.978   1.345  10.458  0.9788  1.6266 -0.7045
  111OSM     O311484   2.899   1.497  10.562  0.0828 -0.2120  0.7518
  111OSM    HO311485   2.868   1.453  10.642  0.1620 -0.0604  0.8656
  111OSM    C4S11486   2.824   1.427  10.330 -0.1051 -0.5155 -0.7440
  111OSM    H4S11487   2.891   1.386  10.253 -0.8550 -0.1373 -1.5984
  111OSM    C5S11488   2.721   1.512  10.292  0.4173 -0.8586  0.6637
  111OSM    H5S11489   2.667   1.564  10.373  1.5638 -0.7423  1.3671
  111OSM    C6S11490   2.682   1.541  10.142 -0.0603 -0.3705  0.0216
  111OSM    H6S11491   2.718   1.643  10.115  1.1461 -1.0813 -1.1315
  111OSM    H6T11492   2.572   1.549  10.143 -0.1645 -1.6752 -0.2113
  111OSM    C7S11493   2.727   1.433  10.043 -0.2040  0.6532  0.1289
  111OSM    H7S11494   2.700   1.331  10.078  0.8124 -0.2689 -1.6703
  111OSM    H7T11495   2.838   1.431  10.036 -0.0985 -0.8424  1.9470
  111OSM    C8S11496   2.663   1.454   9.906  0.2090 -0.3519  0.2075
  111OSM    H8S11497   2.699   1.548   9.859 -0.7162  0.0003  0.1951
  111OSM    H8T11498   2.553   1.468   9.918  0.1295  0.3178 -1.2363
  111OSM    C9S11499   2.688   1.339   9.809  0.2818  0.3979 -0.4785
  111OSM    H9S11500   2.650   1.248   9.861  1.7180 -0.8709 -1.5949
  111OSM    H9T11501   2.796   1.320   9.793  0.2534  0.7844 -1.1530
  111OSM   C10S11502   2.631   1.375   9.666 -0.4784 -0.2917 -0.3144
  111OSM   H10S11503   2.695   1.450   9.615 -1.5671  1.1702  0.4427
  111OSM   H10T11504   2.532   1.420   9.685 -0.1541 -0.1304  1.0348
  111OSM   C11S11505   2.624   1.256   9.568 -0.2186 -0.4330 -0.0843
  111OSM   H11S11506   2.527   1.202   9.581 -0.6640  0.4333  0.2776
  111OSM   H11T11507   2.713   1.191   9.578  3.2729  3.6811 -2.8457
  111OSM   C12S11508   2.638   1.313   9.421 -0.7200 -0.7714 -0.2994
  111OSM   H12S11509   2.741   1.345   9.394 -1.6167 -0.1134 -3.0896
  111OSM   H12T11510   2.564   1.393   9.402 -2.4203 -1.6522  2.2745
  111OSM   C13S11511   2.599   1.202   9.325 -0.1182 -0.5278  0.4099
  111OSM   H13S11512   2.489   1.188   9.314 -0.2422 -0.3817  1.4660
  111OSM   H13T11513   2.650   1.109   9.358  0.2829 -0.8899 -1.1728
  111OSM   C14S11514   2.643   1.237   9.179 -0.2413 -0.0910 -0.4828
  111OSM   H14S11515   2.650   1.348   9.174  1.0654 -0.2073 -1.3656
  111OSM   H14T11516   2.558   1.188   9.127 -1.2314 -0.2213  1.1992
  111OSM   C15S11517   2.776   1.161   9.149  0.1675  0.1579  0.1539
  111OSM   H15S11518   2.762   1.052   9.163  0.8938 -0.1135 -1.1164
  111OSM   H15T11519   2.857   1.196   9.217 -0.9986  2.7424  0.2527
  111OSM   C16S11520   2.802   1.189   9.004 -0.1366 -0.2106  0.8235
  111OSM   H16S11521   2.810   1.299   8.993 -1.8546 -0.2189 -0.6874
  111OSM   H16T11522   2.711   1.161   8.947 -0.4694 -0.2308  1.3614
  111OSM   C17S11523   2.921   1.106   8.936  0.1900  0.2859 -0.7741
  111OSM   H17S11524   3.020   1.141   8.972  1.2603 -2.0694 -1.3227
  111OSM   H17T11525   2.922   1.136   8.829 -1.3642 -1.8513 -1.4114
  111OSM   C18S11526   2.917   0.956   8.950  0.1412 -0.0869 -0.1226
  111OSM   H18S11527   2.821   0.928   8.902  0.1594  0.6948 -0.6405
  111OSM   H18T11528   2.905   0.929   9.057 -1.0180 -0.4041 -0.3297
  111OSM   H18U11529   2.996   0.893   8.903 -0.2253 -1.1767  0.7218
  111OSM    C1F11530   2.703   1.069  10.456 -0.3344  0.0197 -0.1757
  111OSM     OF11531   2.618   1.059  10.543  0.3457  0.6788 -0.4151
  111OSM    C2F11532   2.714   0.964  10.347 -0.0149 -0.6155  0.1964
  111OSM    H2F11533   2.688   0.870  10.401 -2.2018 -0.0774  0.0877
  111OSM    H2G11534   2.819   0.957  10.311 -0.6503 -3.0618 -1.3426
  111OSM    C3F11535   2.619   1.002  10.228  0.2931  0.4703  0.3215
  111OSM    H3F11536   2.652   1.105  10.205 -0.6802  0.7712  0.2458
  111OSM    H3G11537   2.513   0.999  10.263 -0.0240  1.9609 -0.4586
  111OSM    C4F11538   2.631   0.909  10.106  0.8093  0.2399 -0.2121
  111OSM    H4F11539   2.590   0.807  10.122 -0.4566  0.7624 -0.1259
  111OSM    H4G11540   2.739   0.888  10.091  0.7782 -0.7344  0.8594
  111OSM    C5F11541   2.567   0.963   9.971  0.3159 -0.3394 -0.0266
  111OSM    H5F11542   2.619   1.058   9.948  0.0402 -0.6003 -1.7825
  111OSM    H5G11543   2.463   0.987  10.003 -0.1546 -2.2072 -0.0960
  111OSM    C6F11544   2.566   0.855   9.866 -0.4316  0.2568  0.3105
  111OSM    H6F11545   2.503   0.766   9.887 -1.4975  0.8579 -0.2971
  111OSM    H6G11546   2.672   0.824   9.854  0.9367  4.6183 -0.0423
  111OSM    C7F11547   2.509   0.906   9.734 -0.6733 -0.4444  1.0265
  111OSM    H7F11548   2.566   1.000   9.719  0.0682 -1.0442 -0.0005
  111OSM    H7G11549   2.403   0.936   9.747 -0.9532  1.0313 -3.5654
  111OSM    C8F11550   2.520   0.808   9.619  0.2205 -0.0764 -0.3140
  111OSM    H8F11551   2.465   0.713   9.640  0.3855  0.7926  4.5082
  111OSM    H8G11552   2.627   0.786   9.600 -0.2254 -1.3262 -1.5191
  111OSM    C9F11553   2.451   0.865   9.494 -0.9503  0.0456  0.0357
  111OSM    H9F11554   2.349   0.903   9.504 -0.6909  0.1016  2.8262
  111OSM   C10F11555   2.497   0.868   9.366 -0.4772 -0.1811  0.5085
  111OSM   H10F11556   2.430   0.913   9.292  1.2694  0.1804 -0.8744
  111OSM   C11F11557   2.633   0.808   9.315  0.6129  0.6661  0.7357
  111OSM   H11F11558   2.679   0.741   9.390 -0.9234 -0.9661  0.2461
  111OSM   H11G11559   2.710   0.886   9.292  1.5734 -0.2969  0.6414
  111OSM   C12F11560   2.625   0.721   9.191  0.1549 -0.7646  0.0255
  111OSM   H12F11561   2.543   0.650   9.214  0.6814 -1.8959 -1.4945
  111OSM   H12G11562   2.714   0.654   9.186 -0.4776 -1.8312  2.4071
  111OSM   C13F11563   2.588   0.790   9.059 -0.0448 -0.3389 -0.5165
  111OSM   H13F11564   2.661   0.865   9.022 -1.2351  0.9244 -0.3219
  111OSM   H13G11565   2.491   0.842   9.070  1.6917  3.5369 -2.4071
  111OSM   C14F11566   2.555   0.687   8.952 -0.5485  0.6899  0.1213
  111OSM   H14F11567   2.492   0.603   8.989  0.2801 -0.1771 -0.3926
  111OSM   H14G11568   2.651   0.635   8.931 -0.2606  1.2009  0.1856
  111OSM   C15F11569   2.480   0.749   8.839  0.3883 -0.7990  0.7325
  111OSM   H15F11570   2.539   0.835   8.799 -1.4204  0.5737  0.9331
  111OSM   H15G11571   2.381   0.785   8.874  0.0069 -0.8634 -0.2599
  111OSM   C16F11572   2.450   0.650   8.723 -0.2949  0.5864  0.6840
  111OSM   H16F11573   2.546   0.621   8.675 -1.4599  1.7363 -2.5431
  111OSM   H16G11574   2.386   0.701   8.647 -1.6250 -0.2894  1.1987
  111OSM   C17F11575   2.372   0.526   8.764  0.5411  0.1994 -0.1202
  111OSM   H17F11576   2.292   0.554   8.836  1.7736  3.1290  0.1726
  111OSM   H17G11577   2.452   0.464   8.809  1.9685  0.3232 -2.3928
  111OSM   C18F11578   2.323   0.449   8.645 -0.0166  0.7118  0.2179
  111OSM   H18F11579   2.266   0.359   8.678  1.9521 -0.3304  0.8833
  111OSM   H18G11580   2.404   0.409   8.580  0.5663 -0.2620  1.5208
  111OSM   H18H11581   2.253   0.510   8.584 -0.5929  1.7697  1.9319
  112OSM      N11582   2.647   5.472  11.123 -0.5539  0.3849  0.6246
  112OSM    C1511583   2.533   5.495  11.221 -0.7738 -0.4459  0.2703
  112OSM   H15A11584   2.475   5.413  11.262 -0.4177 -1.0836 -0.4795
  112OSM   H15B11585   2.463   5.564  11.177  0.1028 -0.4201 -1.1239
  112OSM   H15C11586   2.567   5.549  11.308 -0.7449 -1.1578  0.7071
  112OSM    C1411587   2.578   5.443  10.990  0.0875  0.2862 -0.2885
  112OSM   H14A11588   2.651   5.424  10.912 -0.1748 -0.5956 -0.3195
  112OSM   H14B11589   2.532   5.535  10.954  0.0522  0.2258 -0.3980
  112OSM   H14C11590   2.501   5.370  11.005  2.5461 -2.4205 -0.5099
  112OSM    C1311591   2.729   5.591  11.107 -0.1765 -0.0093  0.2437
  112OSM   H13A11592   2.808   5.555  11.042 -1.5472 -1.6750 -0.5219
  112OSM   H13B11593   2.785   5.616  11.196  1.5675  0.1344 -0.8766
  112OSM   H13C11594   2.675   5.674  11.063 -2.0378 -1.7544 -0.8271
  112OSM    C1211595   2.737   5.358  11.168 -0.3542 -0.5212  0.4648
  112OSM   H12A11596   2.670   5.274  11.179 -1.0955  0.1228  0.9686
  112OSM   H12B11597   2.775   5.374  11.268  2.8046  1.2434 -0.9543
  112OSM    C1111598   2.862   5.322  11.076 -1.0707 -0.2284 -0.2117
  112OSM   H11A11599   2.828   5.314  10.970 -0.9390 -0.4295 -0.2387
  112OSM   H11B11600   2.892   5.228  11.126 -0.2776  0.2970  0.3168
  112OSM      P11601   3.093   5.405  10.996  0.4485 -0.1528  0.2274
  112OSM    O1311602   3.185   5.519  11.017 -0.3349 -0.0846 -0.3967
  112OSM    O1411603   3.153   5.271  11.011  0.3394 -0.0929 -0.1205
  112OSM    O1111604   3.023   5.411  10.850 -0.7772  0.4732  0.6165
  112OSM    O1211605   2.969   5.413  11.094 -0.6340 -0.1277 -0.2154
  112OSM    C1S11606   3.099   5.485  10.754 -0.2101 -0.2566  0.6764
  112OSM    H1S11607   3.198   5.443  10.726 -0.8219  0.0777 -2.1520
  112OSM    H1T11608   3.108   5.592  10.782 -0.2764  0.3805 -1.6194
  112OSM     NF11609   3.102   5.547  10.519 -0.3167  0.6195 -0.5844
  112OSM    HNF11610   3.066   5.632  10.481 -0.3816  0.3276 -1.1863
  112OSM    C2S11611   3.022   5.478  10.622  0.5183 -0.3681 -0.2177
  112OSM    H2S11612   3.000   5.373  10.595  0.4250 -0.3087 -0.3723
  112OSM    C3S11613   2.881   5.548  10.640 -0.3502  0.4579  0.0599
  112OSM    H3S11614   2.890   5.653  10.675 -0.8118  0.7959 -0.8216
  112OSM     O311615   2.796   5.478  10.734 -0.4192  0.0567  0.3429
  112OSM    HO311616   2.856   5.419  10.780 -2.1357 -2.2132 -0.2022
  112OSM    C4S11617   2.810   5.563  10.504  0.2068 -0.2740 -1.1090
  112OSM    H4S11618   2.841   5.654  10.450  1.6309  1.0275  1.8289
  112OSM    C5S11619   2.723   5.485  10.440 -0.3870  0.7637 -0.2986
  112OSM    H5S11620   2.698   5.388  10.486 -0.2289  1.5650  1.4924
  112OSM    C6S11621   2.668   5.501  10.302  0.1604  0.1627 -0.2453
  112OSM    H6S11622   2.565   5.460  10.297  0.1336  0.4559 -2.3212
  112OSM    H6T11623   2.721   5.434  10.231  0.2028 -0.8158  0.6951
  112OSM    C7S11624   2.661   5.640  10.236  0.5704  0.3345 -0.0215
  112OSM    H7S11625   2.764   5.680  10.249  1.2109 -1.1662 -0.3344
  112OSM    H7T11626   2.600   5.716  10.289  0.3101  2.1842 -2.8854
  112OSM    C8S11627   2.612   5.636  10.091 -0.0974  0.1899  0.0473
  112OSM    H8S11628   2.502   5.649  10.095 -0.1749 -0.7485  0.9890
  112OSM    H8T11629   2.642   5.540  10.044 -0.3020  0.7761 -1.3163
  112OSM    C9S11630   2.658   5.754  10.008  0.0679  0.3430 -0.0378
  112OSM    H9S11631   2.769   5.759  10.009  0.0285  1.4226  0.8191
  112OSM    H9T11632   2.623   5.841  10.068 -0.2166 -1.3480  2.3138
  112OSM   C10S11633   2.605   5.766   9.866 -0.6928  0.5936 -0.2352
  112OSM   H10S11634   2.507   5.716   9.855  1.7340 -4.0205 -2.2913
  112OSM   H10T11635   2.673   5.703   9.805 -2.6937  0.3794 -2.3240
  112OSM   C11S11636   2.605   5.913   9.815 -0.1996  0.8772 -0.1082
  112OSM   H11S11637   2.617   5.908   9.705 -0.1858  2.8009 -0.2159
  112OSM   H11T11638   2.695   5.967   9.850  1.5343 -1.8324 -0.2041
  112OSM   C12S11639   2.478   5.990   9.840  0.6728 -0.0360  0.3426
  112OSM   H12S11640   2.457   5.992   9.949  1.4425  0.0704  0.4871
  112OSM   H12T11641   2.391   5.927   9.811  1.0063 -1.2839  1.9808
  112OSM   C13S11642   2.470   6.127   9.782 -0.5624  0.1536  0.0788
  112OSM   H13S11643   2.546   6.191   9.831  1.0247  0.1679 -2.3070
  112OSM   H13T11644   2.373   6.177   9.805 -1.2373 -1.3049  0.4540
  112OSM   C14S11645   2.481   6.116   9.630 -0.3656 -0.1954  0.0801
  112OSM   H14S11646   2.412   6.034   9.602  0.3478 -0.2491 -1.5993
  112OSM   H14T11647   2.578   6.080   9.588  0.9394  1.5342  1.4884
  112OSM   C15S11648   2.418   6.236   9.561  0.3232  0.2711  0.3201
  112OSM   H15S11649   2.468   6.323   9.608 -0.3534  0.5490  0.5372
  112OSM   H15T11650   2.308   6.248   9.574  0.5736  2.0848  0.8852
  112OSM   C16S11651   2.449   6.244   9.410  0.1665 -0.1581  0.1934
  112OSM   H16S11652   2.438   6.150   9.352  1.6109 -1.2840  1.7030
  112OSM   H16T11653   2.552   6.276   9.386 -0.1419 -0.1612 -1.1744
  112OSM   C17S11654   2.355   6.343   9.330  0.8844 -0.2654 -0.4406
  112OSM   H17S11655   2.385   6.445   9.364  1.6799 -0.7122  0.2129
  112OSM   H17T11656   2.248   6.327   9.355  0.7305  1.1656 -0.1448
  112OSM   C18S11657   2.375   6.331   9.176  0.9576 -0.2524 -0.3369
  112OSM   H18S11658   2.485   6.330   9.157  1.2328  0.8400  1.0693
  112OSM   H18T11659   2.332   6.414   9.116  1.4975 -0.4840 -1.0448
  112OSM   H18U11660   2.322   6.240   9.141 -0.5680  0.5442 -0.1589
  112OSM    C1F11661   3.211   5.491  10.463  0.0297  0.1780  0.7984
  112OSM     OF11662   3.252   5.378  10.491  1.0047  0.4354 -0.6943
  112OSM    C2F11663   3.284   5.576  10.352  0.6949  0.1539  0.9205
  112OSM    H2F11664   3.394   5.563  10.367  0.6119  0.7355  2.1341
  112OSM    H2G11665   3.240   5.677  10.367 -2.2099 -1.0883  0.9753
  112OSM    C3F11666   3.246   5.536  10.209  0.4774  0.5056 -0.0821
  112OSM    H3F11667   3.305   5.443  10.188 -2.1193 -0.7032 -2.2988
  112OSM    H3G11668   3.285   5.622  10.150  2.1469  1.2627  2.0576
  112OSM    C4F11669   3.098   5.516  10.171 -0.5068  0.1017  0.0021
  112OSM    H4F11670   3.045   5.610  10.197 -0.9877 -0.6430  1.7609
  112OSM    H4G11671   3.045   5.439  10.231 -0.8176 -0.1163 -0.5502
  112OSM    C5F11672   3.078   5.492  10.020  0.2458  0.7828  0.2358
  112OSM    H5F11673   3.145   5.408   9.994  1.7129  2.4039 -1.4338
  112OSM    H5G11674   3.129   5.571   9.960  0.9481 -0.2195 -0.4959
  112OSM    C6F11675   2.933   5.473   9.984 -0.6286  0.0192  0.1099
  112OSM    H6F11676   2.887   5.574   9.993  0.5443  0.4599  1.4892
  112OSM    H6G11677   2.887   5.404  10.058  0.5033 -0.2116  0.6089
  112OSM    C7F11678   2.894   5.418   9.841  0.4370  0.0754  0.2137
  112OSM    H7F11679   2.786   5.414   9.818 -0.5295  1.7123  3.9932
  112OSM    H7G11680   2.937   5.316   9.833  0.9981  0.2924  0.4527
  112OSM    C8F11681   2.961   5.510   9.733  0.2940 -0.4028  0.1470
  112OSM    H8F11682   3.070   5.515   9.756 -0.0112 -1.3180  1.9004
  112OSM    H8G11683   2.915   5.611   9.733  3.2236  0.9975 -0.4298
  112OSM    C9F11684   2.940   5.444   9.598 -0.5236 -0.5167 -0.5640
  112OSM    H9F11685   3.002   5.357   9.572  2.0879  0.8468  0.9664
  112OSM   C10F11686   2.860   5.502   9.500 -0.2304 -0.0454 -0.2142
  112OSM   H10F11687   2.853   5.439   9.410 -0.4052  0.4481 -0.5430
  112OSM   C11F11688   2.772   5.622   9.506  0.0311  0.1236  0.1276
  112OSM   H11F11689   2.827   5.712   9.473 -0.5227  0.5868  0.4551
  112OSM   H11G11690   2.725   5.637   9.606 -1.3519 -0.6901 -0.3780
  112OSM   C12F11691   2.649   5.590   9.414  0.0710  0.3508  0.2980
  112OSM   H12F11692   2.603   5.500   9.461 -0.7451  0.2381 -0.7014
  112OSM   H12G11693   2.670   5.565   9.308  0.4047  3.1616 -0.3168
  112OSM   C13F11694   2.546   5.708   9.418  0.1749 -0.0295  0.6172
  112OSM   H13F11695   2.543   5.740   9.524  0.8941  0.8696  0.3762
  112OSM   H13G11696   2.448   5.666   9.386 -0.2077  1.1096  0.2607
  112OSM   C14F11697   2.595   5.830   9.337 -0.0987  0.4051 -0.4214
  112OSM   H14F11698   2.700   5.860   9.361  0.8927 -2.7089 -0.6243
  112OSM   H14G11699   2.533   5.912   9.378 -0.8285 -0.2113 -0.2721
  112OSM   C15F11700   2.562   5.816   9.188 -0.1479  0.2265 -0.2855
  112OSM   H15F11701   2.456   5.783   9.186 -0.3477  0.7311  1.6665
  112OSM   H15G11702   2.635   5.750   9.136 -2.0068 -0.8133 -1.6450
  112OSM   C16F11703   2.581   5.950   9.112  0.2166  0.2305 -0.4193
  112OSM   H16F11704   2.689   5.962   9.091 -0.2406  2.5304 -1.5925
  112OSM   H16G11705   2.538   6.030   9.177 -1.8233 -1.5310  0.4484
  112OSM   C17F11706   2.507   5.961   8.976  0.5719 -0.0455  0.3672
  112OSM   H17F11707   2.400   5.935   8.988  0.2739  0.4999 -1.0867
  112OSM   H17G11708   2.547   5.883   8.908 -0.0302 -0.2238  0.2149
  112OSM   C18F11709   2.519   6.104   8.924  1.1180  0.0712  0.0003
  112OSM   H18F11710   2.622   6.142   8.943  0.8666  2.5404 -3.2258
  112OSM   H18G11711   2.449   6.166   8.984  0.6246 -1.7424  1.3736
  112OSM   H18H11712   2.489   6.115   8.818  0.4932 -2.0251 -0.0626
  113OSM      N11713   6.553   2.516  11.117  0.2679 -0.3951 -0.2427
  113OSM    C1511714   6.670   2.519  11.214  0.2913  0.0488 -0.4763
  113OSM   H15A11715   6.642   2.554  11.312  0.9963  2.9243 -1.2648
  113OSM   H15B11716   6.745   2.588  11.179 -1.2841  1.9524 -0.1633
  113OSM   H15C11717   6.728   2.430  11.233 -0.4052 -0.2413  0.3539
  113OSM    C1411718   6.448   2.426  11.168  0.5619  0.5568  0.0430
  113OSM   H14A11719   6.484   2.338  11.218 -1.4510  0.6483  1.7159
  113OSM   H14B11720   6.384   2.393  11.087  0.9583 -2.1819  0.8163
  113OSM   H14C11721   6.377   2.480  11.229 -0.0086  0.0850 -0.1945
  113OSM    C1311722   6.490   2.653  11.113  0.2921  0.8785  0.4583
  113OSM   H13A11723   6.393   2.653  11.065 -1.4881  2.1669  3.9298
  113OSM   H13B11724   6.549   2.730  11.067 -0.3760  0.5322 -1.0213
  113OSM   H13C11725   6.475   2.684  11.215 -0.4372  2.4216 -0.0960
  113OSM    C1211726   6.617   2.477  10.988 -0.0440 -0.2547  0.5188
  113OSM   H12A11727   6.547   2.449  10.910 -0.0994 -2.2887  1.2656
  113OSM   H12B11728   6.670   2.385  11.009 -0.5923 -0.7760 -0.3006
  113OSM    C1111729   6.724   2.577  10.932  0.3458  0.4350  0.0199
  113OSM   H11A11730   6.674   2.675  10.943 -1.6349 -0.0651 -3.9229
  113OSM   H11B11731   6.743   2.561  10.824 -1.6065  1.1654 -0.4512
  113OSM      P11732   6.977   2.516  10.975 -0.0579  0.0583  0.0676
  113OSM    O1311733   7.084   2.589  11.053 -0.0149  0.4734 -0.0725
  113OSM    O1411734   6.969   2.370  10.989 -0.3226 -0.6339  0.6253
  113OSM    O1111735   6.984   2.550  10.825  0.1836 -0.5328  0.5613
  113OSM    O1211736   6.841   2.591  11.015 -0.1640 -0.0658  0.3458
  113OSM    C1S11737   7.103   2.526  10.756 -0.2400  0.5125 -0.2916
  113OSM    H1S11738   7.121   2.417  10.739 -1.4582  0.4324 -1.1110
  113OSM    H1T11739   7.196   2.552  10.810 -0.8290 -0.4273  1.2131
  113OSM     NF11740   7.220   2.556  10.547  0.1518 -0.0400 -0.5120
  113OSM    HNF11741   7.297   2.614  10.570 -2.6580  3.1518  1.2825
  113OSM    C2S11742   7.100   2.592  10.619  0.4612 -0.2029  0.9305
  113OSM    H2S11743   7.011   2.557  10.562  1.5674  0.5613 -1.3590
  113OSM    C3S11744   7.088   2.744  10.631  0.0864  0.2464  0.0780
  113OSM    H3S11745   7.174   2.793  10.682 -0.4260  0.9983  0.2325
  113OSM     O311746   6.977   2.784  10.706 -0.0704 -0.3797  0.9636
  113OSM    HO311747   6.953   2.698  10.743 -2.6169  0.2392  0.8295
  113OSM    C4S11748   7.078   2.809  10.496 -0.3763 -0.2666 -0.4000
  113OSM    H4S11749   6.977   2.808  10.453 -0.7395 -0.1304  0.4497
  113OSM    C5S11750   7.168   2.887  10.426  0.6251 -0.3116 -0.2908
  113OSM    H5S11751   7.259   2.913  10.481 -0.1101 -0.0132  0.8114
  113OSM    C6S11752   7.132   2.955  10.298  0.0359  0.3005 -0.1192
  113OSM    H6S11753   7.213   3.020  10.258  0.3451 -0.6604 -1.0643
  113OSM    H6T11754   7.040   3.012  10.325 -1.1012 -1.0071 -1.1303
  113OSM    C7S11755   7.086   2.854  10.189 -0.8556 -0.9462 -0.6117
  113OSM    H7S11756   7.012   2.778  10.222 -0.9661 -0.0736  1.1975
  113OSM    H7T11757   7.165   2.782  10.159 -0.3247 -1.8566  2.7766
  113OSM    C8S11758   7.008   2.930  10.081  0.3564  0.0236 -0.0978
  113OSM    H8S11759   7.050   3.031  10.066 -1.1735  0.2822 -2.9552
  113OSM    H8T11760   6.901   2.948  10.107  1.7769  3.2894  4.0040
  113OSM    C9S11761   7.007   2.845   9.953  0.3247 -0.5738  0.5456
  113OSM    H9S11762   6.939   2.758   9.967 -0.6633 -0.1211 -1.1707
  113OSM    H9T11763   7.112   2.813   9.936  0.2927 -0.0654 -0.6812
  113OSM   C10S11764   6.972   2.932   9.821 -0.0798  0.1027 -0.6514
  113OSM   H10S11765   7.037   3.020   9.802 -2.0422  1.4336 -1.3053
  113OSM   H10T11766   6.864   2.954   9.829 -0.3331 -0.6284 -1.8854
  113OSM   C11S11767   7.001   2.850   9.697  0.6163 -1.1524  0.0175
  113OSM   H11S11768   6.969   2.745   9.713 -0.6920 -0.9015 -0.8401
  113OSM   H11T11769   7.111   2.852   9.682  0.5858  0.7125 -0.1774
  113OSM   C12S11770   6.931   2.899   9.570 -0.0943 -0.3002  0.0064
  113OSM   H12S11771   6.911   3.007   9.582 -1.3116 -0.4670 -0.4288
  113OSM   H12T11772   6.832   2.849   9.562  0.8347 -1.9994 -1.2014
  113OSM   C13S11773   7.016   2.863   9.443  1.4167 -0.4641 -1.0553
  113OSM   H13S11774   7.015   2.754   9.425  0.5630 -1.0869  2.4016
  113OSM   H13T11775   7.124   2.887   9.455  1.1418  0.6802 -0.8048
  113OSM   C14S11776   6.984   2.932   9.312  0.2099  0.5167  0.1143
  113OSM   H14S11777   6.993   3.039   9.338  0.9402  0.1300  1.5435
  113OSM   H14T11778   6.878   2.923   9.281  0.8917 -1.3742 -1.8021
  113OSM   C15S11779   7.071   2.888   9.197  0.8365 -0.0179  0.5127
  113OSM   H15S11780   7.173   2.924   9.223  0.9322  1.4990 -1.8248
  113OSM   H15T11781   7.043   2.952   9.111  0.5925  0.7822  1.1811
  113OSM   C16S11782   7.053   2.734   9.156 -0.1929 -0.2407 -0.8342
  113OSM   H16S11783   6.943   2.727   9.141 -0.1156  0.1933 -1.6217
  113OSM   H16T11784   7.077   2.683   9.252 -0.6378 -1.6941 -1.4810
  113OSM   C17S11785   7.142   2.671   9.049 -0.7698 -0.1219 -0.5400
  113OSM   H17S11786   7.246   2.697   9.080 -0.8921 -0.2914  0.0169
  113OSM   H17T11787   7.114   2.705   8.947 -2.2231 -0.8781 -0.4103
  113OSM   C18S11788   7.143   2.526   9.058 -0.4752 -0.1747 -0.8608
  113OSM   H18S11789   7.053   2.461   9.047 -1.6158  1.3061 -0.4160
  113OSM   H18T11790   7.172   2.516   9.165  1.0572 -2.7861 -1.4704
  113OSM   H18U11791   7.229   2.491   8.996  0.4399  1.0722 -0.3121
  113OSM    C1F11792   7.227   2.444  10.483  0.3364 -0.2506  0.1947
  113OSM     OF11793   7.126   2.373  10.472  0.6479  0.0692 -0.2108
  113OSM    C2F11794   7.353   2.406  10.424 -0.0572 -0.2609 -0.4626
  113OSM    H2F11795   7.385   2.306  10.459 -1.2756 -0.7673 -0.7506
  113OSM    H2G11796   7.433   2.469  10.468  1.0213 -1.6849 -0.3270
  113OSM    C3F11797   7.351   2.412  10.277 -0.4728  0.4694  1.0461
  113OSM    H3F11798   7.310   2.508  10.237  0.3867 -0.3420 -1.9006
  113OSM    H3G11799   7.270   2.344  10.243  0.2659 -0.3082  0.8212
  113OSM    C4F11800   7.482   2.389  10.197 -0.1724 -0.0841 -0.1332
  113OSM    H4F11801   7.529   2.299  10.242 -0.1479  2.5776  5.5764
  113OSM    H4G11802   7.555   2.471  10.212  1.9056 -2.3022  2.4157
  113OSM    C5F11803   7.457   2.388  10.050 -0.4270  0.2689  0.3660
  113OSM    H5F11804   7.402   2.480  10.021 -1.1939  0.1413  1.3397
  113OSM    H5G11805   7.383   2.308  10.026  0.6472 -0.3545 -0.8931
  113OSM    C6F11806   7.584   2.367   9.967  0.2058 -0.4851  0.9548
  113OSM    H6F11807   7.646   2.285  10.007  0.8753  0.3359  1.6066
  113OSM    H6G11808   7.649   2.455   9.988  0.0734 -0.1699  0.0669
  113OSM    C7F11809   7.554   2.348   9.823  0.1591 -0.3757  0.4689
  113OSM    H7F11810   7.461   2.401   9.793  0.8900  0.1742 -0.8421
  113OSM    H7G11811   7.537   2.240   9.807  0.0691 -0.8686  3.4686
  113OSM    C8F11812   7.673   2.383   9.744 -0.0239 -0.1736 -0.0814
  113OSM    H8F11813   7.754   2.348   9.811  0.4897 -0.9119 -1.0608
  113OSM    H8G11814   7.682   2.493   9.731  0.6655 -0.1149  0.8728
  113OSM    C9F11815   7.673   2.311   9.612 -0.0478 -0.2728 -0.1924
  113OSM    H9F11816   7.587   2.247   9.588  0.5144 -1.8098  1.7746
  113OSM   C10F11817   7.773   2.317   9.521  0.2481  0.8427 -0.3675
  113OSM   H10F11818   7.770   2.261   9.426 -1.6997 -0.0869  0.1978
  113OSM   C11F11819   7.896   2.407   9.535  0.6694 -1.0042 -0.1769
  113OSM   H11F11820   7.886   2.468   9.627  1.0869  0.3509 -0.9974
  113OSM   H11G11821   7.910   2.473   9.446 -1.1184  0.0217  0.2861
  113OSM   C12F11822   8.025   2.323   9.559  0.1114  0.5391 -0.6126
  113OSM   H12F11823   8.118   2.382   9.542  0.6158  0.6609  2.3122
  113OSM   H12G11824   8.038   2.241   9.485  2.5838  0.2546  0.0954
  113OSM   C13F11825   8.038   2.276   9.710 -0.1854 -0.1324  0.5345
  113OSM   H13F11826   8.118   2.199   9.709  1.0868  1.1820 -2.1765
  113OSM   H13G11827   7.943   2.228   9.744  0.7860 -1.0772  1.9776
  113OSM   C14F11828   8.079   2.387   9.808  0.2568  0.7819  0.7248
  113OSM   H14F11829   8.007   2.471   9.813  0.2500  0.9881 -2.0598
  113OSM   H14G11830   8.174   2.429   9.767  0.3105  0.9158  0.9908
  113OSM   C15F11831   8.096   2.341   9.952 -0.3185 -0.5004 -0.3474
  113OSM   H15F11832   8.170   2.404  10.005  1.9323 -2.3024 -1.2626
  113OSM   H15G11833   8.123   2.233   9.953 -1.5877 -0.8202  0.0563
  113OSM   C16F11834   7.959   2.350  10.028 -0.2886  0.3383 -0.7581
  113OSM   H16F11835   7.873   2.309   9.970  0.3941 -2.7158  0.2874
  113OSM   H16G11836   7.939   2.459  10.027 -3.1438 -0.1297 -0.1840
  113OSM   C17F11837   7.979   2.298  10.171 -0.9906  1.1717  0.0690
  113OSM   H17F11838   8.077   2.335  10.208 -0.0195 -0.5312 -0.7419
  113OSM   H17G11839   7.985   2.188  10.179 -1.7335  1.0527 -0.9447
  113OSM   C18F11840   7.867   2.353  10.258 -0.0928  0.2358  0.3229
  113OSM   H18F11841   7.773   2.296  10.242 -0.8885  1.3738  0.8494
  113OSM   H18G11842   7.841   2.459  10.236  1.1418 -0.0230 -2.5298
  113OSM   H18H11843   7.896   2.344  10.365  1.5874  1.8272  0.0364
  114OSM      N11844   1.903   5.527  11.257  0.0257 -0.2549 -0.3745
  114OSM    C1511845   2.016   5.437  11.300  0.2814  0.7036  0.2231
  114OSM   H15A11846   2.116   5.466  11.272  1.5064 -1.1817  2.4662
  114OSM   H15B11847   2.011   5.334  11.270  0.4920  0.0097  2.5007
  114OSM   H15C11848   2.013   5.433  11.408  1.2982  1.0167  0.2672
  114OSM    C1411849   1.784   5.487  11.327  0.7649  0.1248 -0.2385
  114OSM   H14A11850   1.756   5.386  11.298  0.0604 -0.0268  0.9502
  114OSM   H14B11851   1.698   5.550  11.308  0.3137 -0.5749 -0.5522
  114OSM   H14C11852   1.792   5.491  11.434 -1.0109 -0.4068 -0.0636
  114OSM    C1311853   1.924   5.670  11.297 -0.1196 -0.1149  0.0875
  114OSM   H13A11854   2.026   5.704  11.289 -0.3137  0.5313  0.3528
  114OSM   H13B11855   1.902   5.693  11.400  0.7253 -0.7461  0.4175
  114OSM   H13C11856   1.857   5.726  11.234 -0.7122  0.9710  1.6711
  114OSM    C1211857   1.892   5.503  11.102  0.4702 -0.1151 -0.3939
  114OSM   H12A11858   1.873   5.399  11.083  1.2567 -0.2097 -0.6707
  114OSM   H12B11859   1.982   5.537  11.053  1.1131 -2.0954 -0.5971
  114OSM    C1111860   1.775   5.584  11.045 -0.2202  0.0468 -0.8524
  114OSM   H11A11861   1.687   5.558  11.108  0.9564 -1.5406  0.1840
  114OSM   H11B11862   1.755   5.548  10.942  1.2401 -1.6649 -0.5693
  114OSM      P11863   1.895   5.784  10.948  0.1411 -0.1614  0.0169
  114OSM    O1311864   1.832   5.903  10.894  0.4601  0.2769  0.3650
  114OSM    O1411865   2.022   5.803  11.020  0.1045 -1.0981  0.0986
  114OSM    O1111866   1.925   5.680  10.832 -0.1709 -0.0655  0.2862
  114OSM    O1211867   1.793   5.722  11.046 -0.1291  0.6572  0.4316
  114OSM    C1S11868   1.846   5.648  10.719 -0.2463 -0.3251 -0.1117
  114OSM    H1S11869   1.774   5.732  10.707  0.3373  0.0792 -0.8671
  114OSM    H1T11870   1.790   5.554  10.734 -2.0948  0.5998 -0.9708
  114OSM     NF11871   1.820   5.625  10.478  0.6496 -0.6038  0.6565
  114OSM    HNF11872   1.797   5.533  10.448  0.9095 -0.7352  0.8617
  114OSM    C2S11873   1.917   5.650  10.578 -0.4512  0.0272 -0.1610
  114OSM    H2S11874   1.961   5.751  10.567 -1.2984  0.4743  0.5576
  114OSM    C3S11875   2.041   5.546  10.582  0.9305 -0.2711 -0.5246
  114OSM    H3S11876   1.998   5.445  10.601 -0.6782  0.6444  0.7688
  114OSM     O311877   2.132   5.575  10.682  0.0949 -0.0052  0.5850
  114OSM    HO311878   2.080   5.624  10.746 -1.0571  2.2293 -1.9468
  114OSM    C4S11879   2.105   5.542  10.445 -0.0595  0.0190  0.0257
  114OSM    H4S11880   2.057   5.483  10.366  1.3266  2.0125 -2.3558
  114OSM    C5S11881   2.223   5.595  10.406  0.6658 -0.3481  0.3859
  114OSM    H5S11882   2.294   5.641  10.477  1.1017  1.6556 -1.3021
  114OSM    C6S11883   2.258   5.581  10.257 -0.4924 -0.2445  0.3368
  114OSM    H6S11884   2.344   5.511  10.258 -0.8592 -0.6831  1.2479
  114OSM    H6T11885   2.280   5.686  10.227  0.0067  0.4088  2.9416
  114OSM    C7S11886   2.173   5.516  10.147 -0.3747  0.7508 -0.2486
  114OSM    H7S11887   2.066   5.547  10.147 -0.2553  1.1733  1.0510
  114OSM    H7T11888   2.183   5.408  10.167  1.4615  0.6936 -1.3614
  114OSM    C8S11889   2.232   5.545  10.013  0.5742  0.6632 -0.1512
  114OSM    H8S11890   2.339   5.515  10.003 -0.0831 -2.3482  1.2028
  114OSM    H8T11891   2.215   5.654   9.998 -1.5557  0.5672  1.3820
  114OSM    C9S11892   2.145   5.486   9.901 -0.0366 -0.0743  0.2073
  114OSM    H9S11893   2.039   5.516   9.901  0.0876  0.3661  0.7388
  114OSM    H9T11894   2.158   5.377   9.885  1.1648  0.2173 -0.9344
  114OSM   C10S11895   2.195   5.544   9.762 -0.0927 -1.8719  0.2128
  114OSM   H10S11896   2.296   5.501   9.748  0.6274 -0.0469 -0.3042
  114OSM   H10T11897   2.193   5.655   9.770 -1.8365 -1.7857 -1.0084
  114OSM   C11S11898   2.099   5.520   9.644  0.3951  0.2563  0.0839
  114OSM   H11S11899   1.997   5.558   9.665  1.0443  1.8527  0.4159
  114OSM   H11T11900   2.095   5.409   9.642  1.1125  0.2030  1.1302
  114OSM   C12S11901   2.156   5.568   9.508  0.3468 -0.4665  0.8565
  114OSM   H12S11902   2.261   5.533   9.505  0.1485 -1.0475  0.7384
  114OSM   H12T11903   2.167   5.679   9.500  0.9512 -0.7253 -2.7273
  114OSM   C13S11904   2.078   5.514   9.383 -0.3450 -0.0231  0.1623
  114OSM   H13S11905   1.972   5.547   9.386  0.2750  2.1843 -0.7449
  114OSM   H13T11906   2.077   5.403   9.392  2.5887 -0.0903  0.3168
  114OSM   C14S11907   2.154   5.549   9.258  0.4829  0.5659  0.0606
  114OSM   H14S11908   2.262   5.528   9.274  0.5145  0.3817 -0.3987
  114OSM   H14T11909   2.154   5.660   9.249  0.8347  0.6621  1.1916
  114OSM   C15S11910   2.100   5.487   9.130  0.2254  1.2369  0.4787
  114OSM   H15S11911   1.990   5.494   9.122 -0.2278 -2.6409  1.9684
  114OSM   H15T11912   2.105   5.377   9.147 -0.7920  1.3345  1.4388
  114OSM   C16S11913   2.179   5.506   8.998 -0.0030  0.3153 -0.6538
  114OSM   H16S11914   2.146   5.430   8.925  2.5580 -0.2144 -1.2881
  114OSM   H16T11915   2.287   5.492   9.022  0.0237  0.8946 -0.4109
  114OSM   C17S11916   2.152   5.638   8.925 -1.3848 -0.8121 -0.5843
  114OSM   H17S11917   2.195   5.721   8.985 -1.3307 -1.7499  0.7002
  114OSM   H17T11918   2.045   5.663   8.911 -1.2317  0.0443 -0.2682
  114OSM   C18S11919   2.231   5.642   8.798  0.2553 -0.5892  0.2318
  114OSM   H18S11920   2.341   5.635   8.816  0.4704 -0.2085 -0.9045
  114OSM   H18T11921   2.224   5.737   8.742  0.7933 -0.5222  0.2711
  114OSM   H18U11922   2.201   5.559   8.730 -0.3729  1.8280 -2.5183
  114OSM    C1F11923   1.741   5.719  10.429  0.1859 -0.6647 -0.6882
  114OSM     OF11924   1.759   5.829  10.483  0.4686 -0.3151  0.1592
  114OSM    C2F11925   1.642   5.683  10.318 -0.2711  0.0518 -0.1190
  114OSM    H2F11926   1.543   5.722  10.350 -0.8955  0.4205 -2.4221
  114OSM    H2G11927   1.623   5.574  10.318  0.1794 -0.0467  1.2861
  114OSM    C3F11928   1.680   5.743  10.180 -0.0393  0.1089 -0.4167
  114OSM    H3F11929   1.780   5.712  10.144 -0.0839 -1.6528  0.8961
  114OSM    H3G11930   1.689   5.853  10.197  1.0426 -0.3987  2.7730
  114OSM    C4F11931   1.586   5.718  10.066 -0.8318  0.5617 -0.3524
  114OSM    H4F11932   1.493   5.771  10.096 -0.5961  1.4275 -1.1218
  114OSM    H4G11933   1.566   5.609  10.062  1.6455  0.0493  0.1426
  114OSM    C5F11934   1.630   5.788   9.939 -0.3261  0.1741  0.1875
  114OSM    H5F11935   1.722   5.740   9.899 -0.7105 -0.0466 -0.4468
  114OSM    H5G11936   1.649   5.892   9.970  0.6263  0.5776 -1.7111
  114OSM    C6F11937   1.526   5.782   9.821  0.4622 -0.4475  0.6967
  114OSM    H6F11938   1.431   5.832   9.848  1.0563  1.5029 -0.6976
  114OSM    H6G11939   1.508   5.673   9.805 -3.0989  0.3607 -1.3010
  114OSM    C7F11940   1.587   5.838   9.695 -0.1959 -0.8214 -0.7705
  114OSM    H7F11941   1.662   5.913   9.728 -2.8881  1.2973  0.7392
  114OSM    H7G11942   1.504   5.884   9.636 -1.1505 -0.9846  0.4270
  114OSM    C8F11943   1.662   5.733   9.611  0.1405  0.6311  0.6110
  114OSM    H8F11944   1.606   5.637   9.605  1.7463 -0.2183 -1.4186
  114OSM    H8G11945   1.752   5.698   9.666  1.8952 -1.7398 -3.5070
  114OSM    C9F11946   1.704   5.780   9.476 -0.2510  0.5159  0.3418
  114OSM    H9F11947   1.811   5.801   9.463 -0.5503  1.6020 -0.4180
  114OSM   C10F11948   1.630   5.771   9.363  0.4006  0.2410  0.2110
  114OSM   H10F11949   1.661   5.820   9.270 -0.1951 -0.7232 -0.5014
  114OSM   C11F11950   1.494   5.713   9.347  0.7728  0.3490  0.5041
  114OSM   H11F11951   1.418   5.786   9.316 -0.1458 -0.9241 -0.2753
  114OSM   H11G11952   1.455   5.674   9.444 -3.1439  1.5293 -0.5193
  114OSM   C12F11953   1.486   5.594   9.248  1.3033  0.3816  0.3196
  114OSM   H12F11954   1.386   5.548   9.257  1.4551 -0.5044 -2.0186
  114OSM   H12G11955   1.555   5.517   9.289  1.3738 -0.0352 -0.5743
  114OSM   C13F11956   1.492   5.622   9.092 -0.5804  0.4180 -0.4802
  114OSM   H13F11957   1.596   5.654   9.068 -0.7424  1.6850  0.4288
  114OSM   H13G11958   1.415   5.699   9.068 -0.1462  1.2799  0.8237
  114OSM   C14F11959   1.457   5.500   9.005 -0.1506 -0.6151 -0.1909
  114OSM   H14F11960   1.428   5.541   8.905 -0.8856 -0.6127  0.0193
  114OSM   H14G11961   1.373   5.446   9.052 -1.3219  0.9579 -0.4339
  114OSM   C15F11962   1.571   5.403   8.989  0.2750 -0.4794  0.2341
  114OSM   H15F11963   1.585   5.350   9.086  1.3054 -0.4612  0.0933
  114OSM   H15G11964   1.662   5.465   8.976 -0.9489  1.3180 -0.0776
  114OSM   C16F11965   1.567   5.293   8.879 -0.3276 -0.7054 -0.2495
  114OSM   H16F11966   1.527   5.326   8.781 -0.8586 -1.1182 -0.1723
  114OSM   H16G11967   1.513   5.211   8.931 -0.0317  0.9013  2.7425
  114OSM   C17F11968   1.700   5.230   8.848  0.9514 -0.1001 -0.4823
  114OSM   H17F11969   1.707   5.156   8.765  0.7102  1.0662 -1.5554
  114OSM   H17G11970   1.732   5.174   8.939 -1.1456  2.2385  1.7457
  114OSM   C18F11971   1.803   5.333   8.815 -0.7076 -0.1093 -0.0259
  114OSM   H18F11972   1.858   5.380   8.898  2.0551 -1.7048 -0.8855
  114OSM   H18G11973   1.774   5.422   8.755  0.4122 -0.7760 -1.5972
  114OSM   H18H11974   1.879   5.283   8.750  0.1321  0.0321  0.8499
  115OSM      N11975   6.396   4.654  11.102  0.4220 -0.4043  0.2871
  115OSM    C1511976   6.285   4.593  11.191  0.1345 -0.7558 -0.2598
  115OSM   H15A11977   6.187   4.630  11.165  0.2653  0.0417  0.3811
  115OSM   H15B11978   6.310   4.589  11.296 -0.9606 -2.7444 -0.0405
  115OSM   H15C11979   6.271   4.487  11.176 -0.6089 -0.6412 -0.3785
  115OSM    C1411980   6.383   4.805  11.129 -0.5721 -0.2289  0.2097
  115OSM   H14A11981   6.286   4.839  11.096 -1.1967 -1.7836  0.4314
  115OSM   H14B11982   6.458   4.858  11.070  0.6171 -0.5454  1.4097
  115OSM   H14C11983   6.393   4.834  11.232 -1.7303 -0.9059  0.5094
  115OSM    C1311984   6.529   4.609  11.148  0.0927 -0.3465 -0.1097
  115OSM   H13A11985   6.602   4.599  11.069  0.7282  1.5724  0.1915
  115OSM   H13B11986   6.532   4.511  11.193  0.2129  0.1306  0.9551
  115OSM   H13C11987   6.569   4.665  11.232 -1.6316  1.4404 -0.4552
  115OSM    C1211988   6.377   4.622  10.953 -0.2121 -0.3635  0.2098
  115OSM   H12A11989   6.393   4.516  10.943  1.5741 -0.1566  0.6783
  115OSM   H12B11990   6.455   4.675  10.901 -2.1206  1.4084 -0.9225
  115OSM    C1111991   6.254   4.668  10.884 -0.4220 -0.2487 -0.0764
  115OSM   H11A11992   6.252   4.627  10.780 -1.9384 -3.8128  1.2583
  115OSM   H11B11993   6.246   4.778  10.874  0.6758  0.0581  2.1674
  115OSM      P11994   6.087   4.475  10.917 -0.1832  0.2946 -0.4055
  115OSM    O1311995   6.201   4.383  10.947  0.3845  0.3197 -0.4269
  115OSM    O1411996   5.968   4.457  10.998  0.2623 -0.0877 -0.5630
  115OSM    O1111997   6.063   4.471  10.763  0.1950  0.5135 -0.2802
  115OSM    O1211998   6.138   4.619  10.940  0.3115 -0.1824 -0.6355
  115OSM    C1S11999   5.962   4.540  10.695  0.8767  0.5430 -0.1021
  115OSM    H1S12000   5.992   4.642  10.662 -0.6861  1.2201  0.5182
  115OSM    H1T12001   5.870   4.553  10.756  0.9642 -1.2882  0.4545
  115OSM     NF12002   5.810   4.538  10.498  0.5051 -0.4521 -0.5734
  115OSM    HNF12003   5.718   4.509  10.524  0.2929  0.2940 -0.4834
  115OSM    C2S12004   5.906   4.463  10.569 -0.3887  0.0253  0.1007
  115OSM    H2S12005   5.980   4.434  10.491 -0.9408  0.9957 -0.7985
  115OSM    C3S12006   5.841   4.326  10.608 -0.2464  0.2361 -0.0346
  115OSM    H3S12007   5.761   4.338  10.684 -1.5444  1.0063 -1.4930
  115OSM     O312008   5.935   4.249  10.676  0.3669  0.5347  0.5414
  115OSM    HO312009   6.008   4.311  10.682  0.4306  0.6044 -0.8300
  115OSM    C4S12010   5.786   4.245  10.496  0.3460 -0.1586  0.2999
  115OSM    H4S12011   5.865   4.210  10.428  0.7732  1.2101  0.0660
  115OSM    C5S12012   5.654   4.214  10.473 -0.3517  0.0878  0.7054
  115OSM    H5S12013   5.579   4.251  10.544 -1.0458 -0.8392  0.4814
  115OSM    C6S12014   5.604   4.129  10.362 -0.5040 -0.0810 -0.1650
  115OSM    H6S12015   5.565   4.032  10.400  3.1329 -1.3655  0.4871
  115OSM    H6T12016   5.677   4.104  10.282 -1.3207  1.6866 -1.5104
  115OSM    C7S12017   5.495   4.206  10.283  0.1871  0.1372  0.1171
  115OSM    H7S12018   5.418   4.255  10.346 -1.0182 -0.7386 -0.6340
  115OSM    H7T12019   5.440   4.129  10.226 -1.4500  1.3230  0.0660
  115OSM    C8S12020   5.555   4.314  10.186  0.0949  0.4019 -0.2042
  115OSM    H8S12021   5.657   4.291  10.149  0.3990 -0.4339  1.0955
  115OSM    H8T12022   5.562   4.406  10.249 -0.7383  0.4539 -0.1769
  115OSM    C9S12023   5.474   4.338  10.059  0.1202  0.0737  0.0438
  115OSM    H9S12024   5.367   4.350  10.086  0.6397 -0.0852  2.2922
  115OSM    H9T12025   5.482   4.250   9.993  0.9693 -0.3416  0.6851
  115OSM   C10S12026   5.516   4.471   9.987  0.1103 -0.2490 -0.2475
  115OSM   H10S12027   5.626   4.464   9.980  0.1280  0.3977 -0.6676
  115OSM   H10T12028   5.503   4.565  10.045  0.1656  0.8509 -1.9874
  115OSM   C11S12029   5.459   4.487   9.844 -0.6623  0.5426 -0.8146
  115OSM   H11S12030   5.351   4.488   9.871 -0.0672  0.5665  1.6622
  115OSM   H11T12031   5.494   4.392   9.800  0.9927  1.2871 -1.1538
  115OSM   C12S12032   5.498   4.615   9.772 -0.1124 -0.7301 -0.4276
  115OSM   H12S12033   5.609   4.613   9.776 -0.0209  1.5333 -0.7115
  115OSM   H12T12034   5.462   4.705   9.826  3.4875  0.9051 -0.5721
  115OSM   C13S12035   5.446   4.623   9.625  0.1132  0.4219 -0.6415
  115OSM   H13S12036   5.490   4.711   9.573  3.3583 -2.2704 -2.7658
  115OSM   H13T12037   5.336   4.613   9.634  0.3841 -0.9869  1.3624
  115OSM   C14S12038   5.500   4.507   9.537  0.6544 -0.3411 -0.3520
  115OSM   H14S12039   5.480   4.406   9.578  1.3580 -0.6350 -0.7309
  115OSM   H14T12040   5.610   4.515   9.532  0.6657 -0.1675  0.2063
  115OSM   C15S12041   5.435   4.498   9.393 -0.0123  0.0438 -0.3754
  115OSM   H15S12042   5.324   4.497   9.400  0.1363 -0.4185  2.7527
  115OSM   H15T12043   5.474   4.408   9.342 -1.1947  0.5846 -2.2667
  115OSM   C16S12044   5.454   4.614   9.298  0.6098  0.7341 -0.1403
  115OSM   H16S12045   5.550   4.665   9.320  1.7629 -1.7187  0.7896
  115OSM   H16T12046   5.363   4.675   9.312 -1.0698 -1.1291 -2.5246
  115OSM   C17S12047   5.454   4.562   9.148  0.5667  0.0816 -0.4242
  115OSM   H17S12048   5.422   4.649   9.087 -1.2116  0.1365  0.5332
  115OSM   H17T12049   5.375   4.484   9.146  0.8899 -0.4717  3.3888
  115OSM   C18S12050   5.590   4.515   9.087  0.2943 -0.3585 -0.1642
  115OSM   H18S12051   5.630   4.423   9.135  1.2429 -1.1998 -2.4519
  115OSM   H18T12052   5.667   4.595   9.092  0.5843 -0.6623  0.2369
  115OSM   H18U12053   5.577   4.495   8.978  0.7382 -0.4093 -0.2093
  115OSM    C1F12054   5.823   4.645  10.422  0.0389  0.7273  0.1796
  115OSM     OF12055   5.935   4.667  10.376  0.2241  0.4377 -0.5264
  115OSM    C2F12056   5.697   4.709  10.375 -0.0562  0.4694 -0.5682
  115OSM    H2F12057   5.657   4.768  10.461 -2.9580 -2.5516  0.2604
  115OSM    H2G12058   5.621   4.637  10.338 -0.9957  0.3037  1.5955
  115OSM    C3F12059   5.727   4.808  10.255 -0.0384 -0.1579 -0.3771
  115OSM    H3F12060   5.753   4.748  10.165  0.2659 -0.6965  0.0648
  115OSM    H3G12061   5.807   4.883  10.274  0.2579 -0.8533  1.2630
  115OSM    C4F12062   5.601   4.871  10.203  0.5037 -0.7072  0.1360
  115OSM    H4F12063   5.552   4.913  10.294  0.1918 -0.0250 -0.3508
  115OSM    H4G12064   5.541   4.794  10.150  1.8452 -2.1904  0.7182
  115OSM    C5F12065   5.636   4.983  10.099  0.2113 -0.1830 -0.0276
  115OSM    H5F12066   5.690   4.936  10.015  0.0193 -0.8082  0.1985
  115OSM    H5G12067   5.712   5.041  10.156  0.4285 -1.5598  1.1207
  115OSM    C6F12068   5.518   5.076  10.066  0.5674  0.1956  0.7179
  115OSM    H6F12069   5.544   5.184  10.055 -0.1796  0.2259 -0.9145
  115OSM    H6G12070   5.438   5.067  10.142  0.2888 -1.2599  0.2581
  115OSM    C7F12071   5.450   5.022   9.938  0.1269  0.0564 -0.0865
  115OSM    H7F12072   5.344   5.049   9.955 -0.2869 -2.1361  1.0027
  115OSM    H7G12073   5.448   4.911   9.943 -0.9602  0.1695  2.1884
  115OSM    C8F12074   5.499   5.078   9.802  0.2041 -0.6106  0.7720
  115OSM    H8F12075   5.601   5.040   9.782  1.3572  2.3716  0.7131
  115OSM    H8G12076   5.507   5.189   9.803  0.2711 -0.6035 -0.2590
  115OSM    C9F12077   5.402   5.041   9.691  0.1874 -0.0419  0.1300
  115OSM    H9F12078   5.295   5.029   9.714 -0.1410 -0.0900 -1.3531
  115OSM   C10F12079   5.429   5.034   9.563 -0.2834  0.3573  0.4501
  115OSM   H10F12080   5.344   5.011   9.497  1.3195  1.5523 -2.1083
  115OSM   C11F12081   5.566   5.052   9.492 -0.3933  0.4892  0.4315
  115OSM   H11F12082   5.650   5.001   9.545 -1.2337 -1.1795  0.2002
  115OSM   H11G12083   5.597   5.159   9.488 -0.8038  0.5134 -4.0614
  115OSM   C12F12084   5.570   5.000   9.349 -0.5632 -0.0521 -0.2187
  115OSM   H12F12085   5.548   4.891   9.346  0.5169 -0.2849  0.0697
  115OSM   H12G12086   5.672   5.013   9.309 -0.1945  0.6909  0.9413
  115OSM   C13F12087   5.481   5.064   9.247  0.3158 -0.1723  0.1255
  115OSM   H13F12088   5.447   5.165   9.278  1.2245  0.1439  0.0917
  115OSM   H13G12089   5.391   4.999   9.238 -1.2794  1.8098  1.4723
  115OSM   C14F12090   5.560   5.082   9.110 -0.3910  0.0907  0.2751
  115OSM   H14F12091   5.656   5.131   9.134 -0.1012 -0.4222  0.1587
  115OSM   H14G12092   5.500   5.147   9.043 -2.3286 -0.1583  1.6940
  115OSM   C15F12093   5.581   4.939   9.056  0.0317  0.0586 -0.3576
  115OSM   H15F12094   5.490   4.876   9.065  0.1470  0.0646  1.0680
  115OSM   H15G12095   5.660   4.886   9.114  1.4624  0.9837 -1.4157
  115OSM   C16F12096   5.643   4.946   8.916 -0.5203  0.6022 -0.0647
  115OSM   H16F12097   5.744   4.989   8.907 -1.6465  3.2144 -0.6320
  115OSM   H16G12098   5.589   5.021   8.853  1.1993  0.2264 -2.0503
  115OSM   C17F12099   5.636   4.811   8.854 -0.3763  0.6873  0.1904
  115OSM   H17F12100   5.530   4.782   8.836 -0.6845  0.9274  1.5188
  115OSM   H17G12101   5.676   4.734   8.924  2.1920  2.5092  0.8116
  115OSM   C18F12102   5.721   4.805   8.723  0.5703  0.6678  0.6888
  115OSM   H18F12103   5.696   4.879   8.644 -1.9412 -1.3653 -0.4596
  115OSM   H18G12104   5.734   4.701   8.689  1.3712  1.5411 -1.7870
  115OSM   H18H12105   5.825   4.825   8.758  0.0481 -0.0077  2.6759
  116OSM      N12106   1.782   0.985  11.117  0.5730 -0.2071 -0.8244
  116OSM    C1512107   1.856   1.097  11.186 -0.5603 -0.4536  0.5572
  116OSM   H15A12108   1.950   1.059  11.224 -0.1449  2.0688  2.1114
  116OSM   H15B12109   1.805   1.150  11.265 -0.7966  2.6898 -1.6122
  116OSM   H15C12110   1.878   1.166  11.106  1.0498 -0.5961  0.8442
  116OSM    C1412111   1.728   0.892  11.224  0.0518 -0.0903  0.7135
  116OSM   H14A12112   1.659   0.822  11.179  1.3763 -1.1892  0.3620
  116OSM   H14B12113   1.679   0.944  11.305  0.0925  1.7734 -0.4358
  116OSM   H14C12114   1.808   0.838  11.272 -0.0551  0.1219  1.1347
  116OSM    C1312115   1.662   1.034  11.039 -0.4957 -0.8532  0.2637
  116OSM   H13A12116   1.601   1.086  11.112  0.7651 -0.4834  1.0721
  116OSM   H13B12117   1.598   0.954  11.005  0.6463 -1.9357  0.6396
  116OSM   H13C12118   1.702   1.091  10.956  0.3639 -1.1755  0.4535
  116OSM    C1212119   1.877   0.898  11.041 -0.2302  0.2733 -0.0933
  116OSM   H12A12120   1.831   0.805  11.009 -0.8097 -0.4388  2.7239
  116OSM   H12B12121   1.950   0.873  11.116 -1.0103  2.5080  1.4490
  116OSM    C1112122   1.962   0.954  10.922 -0.0207 -0.4490 -0.1235
  116OSM   H11A12123   1.891   0.982  10.841 -0.2698  2.5267  1.0453
  116OSM   H11B12124   2.018   0.873  10.872 -2.2058 -1.1161 -1.5117
  116OSM      P12125   2.183   1.027  11.054  0.0912  0.0819 -0.0602
  116OSM    O1312126   2.161   1.090  11.188 -0.4039  0.4499 -0.5620
  116OSM    O1412127   2.207   0.879  11.056  0.6007 -0.2490 -0.3521
  116OSM    O1112128   2.289   1.106  10.975  1.2135  0.4879 -0.4533
  116OSM    O1212129   2.049   1.062  10.970 -0.7072  0.8457 -0.0770
  116OSM    C1S12130   2.348   1.061  10.853  0.8117  1.1041  0.3677
  116OSM    H1S12131   2.345   0.951  10.833  0.6449  1.4654 -1.7488
  116OSM    H1T12132   2.458   1.079  10.860  0.7994  0.8459  1.2572
  116OSM     NF12133   2.332   1.044  10.609  0.3722 -0.7535  0.4231
  116OSM    HNF12134   2.421   1.060  10.567 -0.3520 -0.7277 -1.1332
  116OSM    C2S12135   2.290   1.124  10.728  0.1023 -1.5002  0.0745
  116OSM    H2S12136   2.179   1.124  10.734 -0.0658 -1.7143 -2.5511
  116OSM    C3S12137   2.335   1.265  10.716 -0.3956 -1.1035  0.3741
  116OSM    H3S12138   2.438   1.267  10.675 -0.6152 -0.1776 -0.1316
  116OSM     O312139   2.333   1.340  10.842  0.4764  0.3410 -0.5590
  116OSM    HO312140   2.327   1.272  10.909 -0.5515 -0.1698 -1.1623
  116OSM    C4S12141   2.254   1.342  10.615  0.0950 -0.4647 -0.2985
  116OSM    H4S12142   2.147   1.350  10.641 -0.4580 -2.2813 -1.9148
  116OSM    C5S12143   2.285   1.385  10.495 -0.1468 -0.4581 -0.0259
  116OSM    H5S12144   2.388   1.373  10.458  0.2269  0.5819  0.6626
  116OSM    C6S12145   2.198   1.463  10.407  0.8291 -0.3456 -0.9455
  116OSM    H6S12146   2.233   1.568  10.411  1.5291 -0.6285  1.0153
  116OSM    H6T12147   2.090   1.453  10.429  0.7016  1.6308 -0.5753
  116OSM    C7S12148   2.200   1.417  10.262 -0.9768 -0.3116 -0.5932
  116OSM    H7S12149   2.130   1.331  10.255 -2.3677  0.8059 -0.7026
  116OSM    H7T12150   2.307   1.403  10.236 -0.2093  0.3085  2.0358
  116OSM    C8S12151   2.140   1.524  10.160 -0.2101 -0.5240 -0.4403
  116OSM    H8S12152   2.155   1.483  10.058  0.0169 -1.3503 -0.0730
  116OSM    H8T12153   2.199   1.616  10.181 -0.3982 -0.1227 -1.6635
  116OSM    C9S12154   1.998   1.567  10.180 -0.4472  0.1619 -0.0239
  116OSM    H9S12155   1.989   1.656  10.114  0.8947  1.1719  1.1395
  116OSM    H9T12156   1.973   1.612  10.279  0.8382  2.1205 -0.5569
  116OSM   C10S12157   1.890   1.461  10.150  0.6358 -0.0978  0.3067
  116OSM   H10S12158   1.867   1.398  10.239  1.0554 -1.8562 -0.7916
  116OSM   H10T12159   1.939   1.391  10.079  1.0925  2.2418 -1.7622
  116OSM   C11S12160   1.761   1.527  10.102 -0.0727 -0.4630 -0.9167
  116OSM   H11S12161   1.721   1.601  10.174  0.2817 -1.2181  0.0735
  116OSM   H11T12162   1.684   1.448  10.098 -2.0278  1.3221  0.6691
  116OSM   C12S12163   1.755   1.593   9.961 -0.1656 -0.6735  0.0514
  116OSM   H12S12164   1.818   1.684   9.960 -0.5030 -0.4468 -0.7108
  116OSM   H12T12165   1.649   1.617   9.938 -0.1511  1.5996  2.1075
  116OSM   C13S12166   1.808   1.503   9.847 -0.4152  0.8671 -0.3815
  116OSM   H13S12167   1.755   1.407   9.865 -1.6475  1.6190  0.0891
  116OSM   H13T12168   1.918   1.496   9.852 -0.6354 -2.4676  0.7741
  116OSM   C14S12169   1.772   1.545   9.706 -0.4595 -0.0751  0.2239
  116OSM   H14S12170   1.819   1.639   9.672 -0.3218 -0.1528  0.2008
  116OSM   H14T12171   1.663   1.564   9.717 -0.4835 -0.6069  0.9471
  116OSM   C15S12172   1.792   1.427   9.603 -0.6906 -0.6718 -0.4864
  116OSM   H15S12173   1.748   1.330   9.636 -0.5034 -0.3551  0.7340
  116OSM   H15T12174   1.899   1.416   9.574 -0.6695 -3.2964  0.4291
  116OSM   C16S12175   1.729   1.464   9.464 -0.3949  0.5290  0.2371
  116OSM   H16S12176   1.622   1.493   9.476  0.1726  2.4341  0.8475
  116OSM   H16T12177   1.741   1.376   9.398  0.0022 -0.5568  1.7395
  116OSM   C17S12178   1.799   1.585   9.395  0.0960  0.6621  0.3568
  116OSM   H17S12179   1.901   1.542   9.379 -0.9770 -1.0686 -2.1785
  116OSM   H17T12180   1.807   1.680   9.451 -0.5046  2.6149 -2.7111
  116OSM   C18S12181   1.731   1.608   9.255 -0.0645 -0.0344  0.9356
  116OSM   H18S12182   1.788   1.687   9.200 -0.1223 -0.5541  0.1181
  116OSM   H18T12183   1.625   1.636   9.273 -0.0115  0.0013  1.1933
  116OSM   H18U12184   1.748   1.516   9.195 -1.5128  0.4304 -0.2321
  116OSM    C1F12185   2.268   0.928  10.582  0.3997 -0.2686  0.3872
  116OSM     OF12186   2.171   0.883  10.636 -0.2658  0.4138 -0.4341
  116OSM    C2F12187   2.328   0.862  10.468 -0.3947 -0.3465  0.0738
  116OSM    H2F12188   2.428   0.910  10.456 -1.5676  1.1327 -4.9383
  116OSM    H2G12189   2.271   0.889  10.377  2.0040  0.1030 -1.3422
  116OSM    C3F12190   2.360   0.713  10.478  0.9254 -0.8308 -0.4309
  116OSM    H3F12191   2.265   0.661  10.505  1.7755 -2.3187 -0.2096
  116OSM    H3G12192   2.436   0.695  10.557 -0.7207  0.8211  1.5849
  116OSM    C4F12193   2.418   0.659  10.348 -0.3064 -0.0563 -0.6136
  116OSM    H4F12194   2.518   0.612  10.358  0.3527  1.4913  0.3759
  116OSM    H4G12195   2.458   0.748  10.294  0.6246  0.4699  0.9045
  116OSM    C5F12196   2.332   0.571  10.264  0.8439 -0.8770 -0.1161
  116OSM    H5F12197   2.299   0.485  10.326 -0.3750 -0.5314 -0.2685
  116OSM    H5G12198   2.380   0.533  10.171 -1.6661 -0.4653 -1.6074
  116OSM    C6F12199   2.195   0.641  10.224 -0.4497  0.4906  0.1516
  116OSM    H6F12200   2.229   0.741  10.187  1.2316  0.1744  0.7816
  116OSM    H6G12201   2.140   0.639  10.320  0.3696 -0.5169  0.6038
  116OSM    C7F12202   2.126   0.556  10.119 -1.6386  0.3197 -0.3877
  116OSM    H7F12203   2.018   0.559  10.143 -1.5117  0.8895  0.1477
  116OSM    H7G12204   2.164   0.452  10.117  2.8821  1.8917 -1.3240
  116OSM    C8F12205   2.153   0.613   9.973 -0.0589  0.1462  0.4043
  116OSM    H8F12206   2.261   0.628   9.950 -0.8576  3.4305 -1.4736
  116OSM    H8G12207   2.097   0.708   9.966  1.5991  1.0536 -1.1540
  116OSM    C9F12208   2.078   0.526   9.877  0.2150 -1.2464  0.5347
  116OSM    H9F12209   2.093   0.418   9.896 -0.5161 -1.3277  0.6926
  116OSM   C10F12210   1.995   0.561   9.777  0.1399  0.7875 -0.2467
  116OSM   H10F12211   1.950   0.476   9.722  1.5431 -0.5077  0.5950
  116OSM   C11F12212   1.964   0.705   9.731 -0.2972  0.2553 -1.0879
  116OSM   H11F12213   1.973   0.775   9.817 -0.5702 -1.7083  0.5945
  116OSM   H11G12214   1.860   0.694   9.693  0.4550  0.0067 -3.1510
  116OSM   C12F12215   2.047   0.740   9.606 -0.3218 -0.3279  0.3773
  116OSM   H12F12216   2.154   0.730   9.633 -0.3094 -0.6477  0.2080
  116OSM   H12G12217   2.034   0.841   9.561 -0.8080 -0.4830  0.1627
  116OSM   C13F12218   2.023   0.653   9.477  0.8893 -0.0143 -0.2837
  116OSM   H13F12219   1.916   0.625   9.463  0.3460  3.0676 -2.9370
  116OSM   H13G12220   2.083   0.561   9.468  0.5517 -0.3354  0.6776
  116OSM   C14F12221   2.063   0.723   9.346 -0.8094 -0.1321  0.0219
  116OSM   H14F12222   2.172   0.740   9.351 -0.7494  0.3131 -2.3170
  116OSM   H14G12223   2.003   0.816   9.340 -0.6318 -0.0513 -0.4906
  116OSM   C15F12224   2.036   0.637   9.224  0.2078 -0.5005 -0.2776
  116OSM   H15F12225   1.931   0.600   9.225 -0.2725  0.7007 -2.7184
  116OSM   H15G12226   2.099   0.546   9.224  3.0090  1.3808 -0.3399
  116OSM   C16F12227   2.080   0.722   9.107 -0.2875  0.0816 -0.4161
  116OSM   H16F12228   2.191   0.729   9.103 -0.2806  2.1358  2.0965
  116OSM   H16G12229   2.042   0.825   9.123 -0.2942  0.5328 -3.0719
  116OSM   C17F12230   2.028   0.669   8.976  0.0556  0.4821 -0.1087
  116OSM   H17F12231   1.923   0.636   8.992  0.1517  0.6878  0.9900
  116OSM   H17G12232   2.096   0.587   8.944  0.6918  0.8129  0.3712
  116OSM   C18F12233   2.042   0.765   8.861  0.0927 -0.0623 -0.2696
  116OSM   H18F12234   2.052   0.700   8.771  0.8018 -2.1522  1.2739
  116OSM   H18G12235   2.143   0.809   8.878  0.0446 -0.9144  2.4247
  116OSM   H18H12236   1.967   0.845   8.847  1.4324  1.5853  1.6199
  117OSM      N12237   6.623   1.667  10.812 -0.1515 -0.0823 -0.1078
  117OSM    C1512238   6.627   1.557  10.916 -0.1830  0.3041  0.2778
  117OSM   H15A12239   6.605   1.595  11.014 -3.2883 -0.6025 -0.0224
  117OSM   H15B12240   6.721   1.504  10.921 -1.5890 -2.3446 -0.4526
  117OSM   H15C12241   6.547   1.490  10.889 -0.6461  1.6886 -1.8848
  117OSM    C1412242   6.745   1.747  10.791 -0.0106 -0.2330 -0.2847
  117OSM   H14A12243   6.827   1.688  10.754  0.9617  1.2593 -0.5893
  117OSM   H14B12244   6.784   1.782  10.886 -2.0922 -0.9331  0.8566
  117OSM   H14C12245   6.725   1.843  10.744  1.3362  0.5642  0.7209
  117OSM    C1312246   6.602   1.597  10.677  0.4133  0.3094 -0.4791
  117OSM   H13A12247   6.672   1.515  10.669 -0.7376 -0.5730 -1.7710
  117OSM   H13B12248   6.615   1.666  10.595  0.8825  0.4528 -0.2864
  117OSM   H13C12249   6.505   1.550  10.668  0.3954 -0.0240  1.1984
  117OSM    C1212250   6.510   1.765  10.847 -0.6911 -0.2019  0.5822
  117OSM   H12A12251   6.425   1.703  10.869  0.4766 -1.4370  1.7521
  117OSM   H12B12252   6.490   1.830  10.763 -2.1144 -0.1472  0.9493
  117OSM    C1112253   6.534   1.874  10.953 -0.3324 -0.7010  0.2298
  117OSM   H11A12254   6.585   1.825  11.038  1.4441 -0.4245 -0.6596
  117OSM   H11B12255   6.436   1.905  10.996 -0.7886 -2.6146  0.5946
  117OSM      P12256   6.596   2.127  10.940 -0.0604  0.3532 -0.4689
  117OSM    O1312257   6.454   2.177  10.944  0.2606  0.6831 -0.0765
  117OSM    O1412258   6.676   2.125  11.064  0.2310  0.7012 -0.4475
  117OSM    O1112259   6.674   2.219  10.834  0.1285  0.0628 -0.0920
  117OSM    O1212260   6.609   1.979  10.889 -0.6427  0.1672 -0.6724
  117OSM    C1S12261   6.801   2.182  10.775  0.1540  0.6090 -0.2130
  117OSM    H1S12262   6.838   2.083  10.808 -0.5781 -0.5224 -2.6827
  117OSM    H1T12263   6.881   2.252  10.807  0.4085  0.3352 -0.2442
  117OSM     NF12264   6.950   2.162  10.581  0.3773 -0.7205  0.0160
  117OSM    HNF12265   6.997   2.235  10.532  1.9592 -0.3264  2.0762
  117OSM    C2S12266   6.816   2.192  10.618 -0.5373  1.2289 -0.0967
  117OSM    H2S12267   6.744   2.131  10.559 -0.8280  2.2616 -0.8168
  117OSM    C3S12268   6.772   2.330  10.570  0.0540 -0.3432  0.3708
  117OSM    H3S12269   6.849   2.404  10.600 -0.7317  0.7607 -0.2954
  117OSM     O312270   6.645   2.372  10.624  0.1590 -0.2887  0.5579
  117OSM    HO312271   6.613   2.311  10.691  0.5056  1.3896  2.3357
  117OSM    C4S12272   6.762   2.344  10.424 -0.0023  0.0304  0.7703
  117OSM    H4S12273   6.730   2.257  10.365  1.7542 -0.5106  0.5847
  117OSM    C5S12274   6.813   2.447  10.355 -0.0332  0.2175 -0.6935
  117OSM    H5S12275   6.860   2.536  10.400 -1.5935  1.6685 -1.8780
  117OSM    C6S12276   6.798   2.458  10.203  0.8692  0.2428 -0.2057
  117OSM    H6S12277   6.770   2.560  10.172  2.4288  0.8252  0.2621
  117OSM    H6T12278   6.717   2.394  10.161 -0.0051  1.0249  0.2843
  117OSM    C7S12279   6.924   2.418  10.142 -0.1491 -0.6173 -0.2720
  117OSM    H7S12280   6.943   2.310  10.156 -0.2214 -1.0631 -3.2955
  117OSM    H7T12281   7.003   2.481  10.189  0.6767 -1.4811 -0.4744
  117OSM    C8S12282   6.920   2.437   9.987 -0.0970  0.5779 -0.0043
  117OSM    H8S12283   6.874   2.536   9.969 -0.1470  0.8914  1.7738
  117OSM    H8T12284   6.845   2.372   9.938 -0.1925 -0.0887  0.9985
  117OSM    C9S12285   7.056   2.415   9.920 -0.4597  0.3765 -0.2870
  117OSM    H9S12286   7.095   2.317   9.955 -0.5029 -0.2101 -1.8300
  117OSM    H9T12287   7.133   2.489   9.951 -1.1244  1.2780 -0.7603
  117OSM   C10S12288   7.040   2.417   9.775  0.8191 -0.3609 -0.1566
  117OSM   H10S12289   7.000   2.516   9.744  0.7708 -0.2028  0.4136
  117OSM   H10T12290   6.965   2.345   9.735  0.8273  0.2740 -1.3462
  117OSM   C11S12291   7.171   2.374   9.702 -0.2465 -0.8011 -0.2738
  117OSM   H11S12292   7.199   2.277   9.748  2.2212  0.0883  0.1958
  117OSM   H11T12293   7.250   2.450   9.722 -2.3974  1.0933  1.2958
  117OSM   C12S12294   7.159   2.359   9.551 -0.1620 -0.0145 -0.2344
  117OSM   H12S12295   7.116   2.457   9.520 -2.3015  0.0251  2.6885
  117OSM   H12T12296   7.079   2.284   9.530 -0.6809  1.0398 -2.1458
  117OSM   C13S12297   7.280   2.304   9.481  0.0481  0.4908 -0.7524
  117OSM   H13S12298   7.311   2.206   9.523  0.2006  0.7984 -0.1426
  117OSM   H13T12299   7.368   2.369   9.502 -0.0579  0.9160 -1.5742
  117OSM   C14S12300   7.261   2.299   9.330  0.6380  0.1259 -0.1052
  117OSM   H14S12301   7.352   2.254   9.285 -0.6592 -1.6392 -1.0147
  117OSM   H14T12302   7.270   2.403   9.292  0.6156  0.8785  1.9034
  117OSM   C15S12303   7.151   2.207   9.284  0.2552 -0.5533  0.4724
  117OSM   H15S12304   7.052   2.251   9.308  0.5708  0.8043 -0.6502
  117OSM   H15T12305   7.170   2.111   9.337 -0.9285  0.6235  3.0709
  117OSM   C16S12306   7.158   2.162   9.130  0.0787 -0.2260 -0.2944
  117OSM   H16S12307   7.241   2.089   9.120 -0.8316 -1.4007  0.5941
  117OSM   H16T12308   7.181   2.254   9.072  0.1646 -0.5234 -0.7333
  117OSM   C17S12309   7.040   2.094   9.069 -0.6158 -0.3278 -0.3611
  117OSM   H17S12310   7.035   1.988   9.103 -0.3492 -0.5646 -1.0461
  117OSM   H17T12311   7.068   2.080   8.963 -0.7913  0.5719 -0.5254
  117OSM   C18S12312   6.898   2.165   9.075  0.4889  0.5139 -0.2346
  117OSM   H18S12313   6.886   2.256   9.013  0.4761 -0.7060 -2.0410
  117OSM   H18T12314   6.881   2.181   9.184 -0.6400 -0.4935 -0.2465
  117OSM   H18U12315   6.825   2.090   9.037 -0.3518  0.6618  1.0607
  117OSM    C1F12316   7.000   2.039  10.594 -0.4461  0.7952 -0.1666
  117OSM     OF12317   6.923   1.947  10.625  0.1867 -0.5219  0.7920
  117OSM    C2F12318   7.146   2.016  10.573 -0.6930  0.0929 -1.3671
  117OSM    H2F12319   7.177   1.985  10.675 -1.8228 -0.4075 -1.1681
  117OSM    H2G12320   7.198   2.114  10.565 -0.6538  0.2465  0.6184
  117OSM    C3F12321   7.176   1.923  10.455  0.2065 -0.2087 -0.2769
  117OSM    H3F12322   7.107   1.837  10.465 -1.1595  0.6584 -1.8965
  117OSM    H3G12323   7.285   1.903  10.451  0.6283  2.2432 -1.9315
  117OSM    C4F12324   7.143   1.993  10.321  0.4514  0.6711 -0.3169
  117OSM    H4F12325   7.201   2.088  10.314 -1.1700  1.6349 -0.8661
  117OSM    H4G12326   7.034   2.013  10.311  1.1403  3.8024 -2.2035
  117OSM    C5F12327   7.182   1.902  10.206 -0.0763 -0.6609 -1.5876
  117OSM    H5F12328   7.116   1.813  10.206  0.2536 -0.9255  0.4125
  117OSM    H5G12329   7.287   1.866  10.210  0.4969  1.1834  0.3331
  117OSM    C6F12330   7.165   1.954  10.060  0.7504  0.0170 -0.9693
  117OSM    H6F12331   7.134   2.060  10.067  0.5817 -0.1305  0.6586
  117OSM    H6G12332   7.083   1.895  10.012 -1.5781  2.0669  0.3639
  117OSM    C7F12333   7.290   1.950   9.973 -0.1842  0.4182  0.5049
  117OSM    H7F12334   7.330   1.846   9.974 -0.8849  0.1420  0.3995
  117OSM    H7G12335   7.370   2.002  10.029  0.1527  1.6395 -1.0751
  117OSM    C8F12336   7.276   2.000   9.827 -0.3332 -0.8293  0.0856
  117OSM    H8F12337   7.279   2.111   9.833 -1.8845 -0.8078  0.5092
  117OSM    H8G12338   7.173   1.973   9.797 -0.2943 -2.2031  1.1124
  117OSM    C9F12339   7.384   1.942   9.740  0.1958 -0.0431  0.3642
  117OSM    H9F12340   7.460   2.015   9.708 -0.1358 -0.0369 -0.4264
  117OSM   C10F12341   7.396   1.807   9.709  0.3505 -0.4267  0.2998
  117OSM   H10F12342   7.483   1.782   9.646  2.6266 -1.6826  3.7524
  117OSM   C11F12343   7.292   1.700   9.737 -0.5168 -0.6460 -0.1806
  117OSM   H11F12344   7.193   1.740   9.767 -0.5925  0.3780 -1.7352
  117OSM   H11G12345   7.328   1.637   9.821 -0.0350 -0.3551 -0.1615
  117OSM   C12F12346   7.277   1.596   9.626 -0.4972  0.2166 -0.3810
  117OSM   H12F12347   7.205   1.517   9.658 -0.6000  0.2254 -0.5873
  117OSM   H12G12348   7.369   1.546   9.591 -0.9400  1.7113 -3.8658
  117OSM   C13F12349   7.210   1.663   9.503 -0.4175 -0.4978 -0.8714
  117OSM   H13F12350   7.281   1.742   9.470  0.0059 -0.8397 -0.7849
  117OSM   H13G12351   7.119   1.712   9.543 -0.7379 -1.1916 -0.7415
  117OSM   C14F12352   7.157   1.574   9.392  0.0239 -0.3775  0.0327
  117OSM   H14F12353   7.094   1.494   9.438 -0.4330 -0.8293 -1.3698
  117OSM   H14G12354   7.244   1.531   9.338 -0.6682 -2.8900  0.8484
  117OSM   C15F12355   7.073   1.645   9.290  0.3685  0.6389 -0.3159
  117OSM   H15F12356   7.069   1.755   9.302  1.7475  0.6470  0.1495
  117OSM   H15G12357   6.968   1.610   9.303  0.3773  1.0580  0.9761
  117OSM   C16F12358   7.108   1.599   9.147  0.4408 -0.1106 -0.5958
  117OSM   H16F12359   7.104   1.488   9.141  1.1290 -0.0703 -1.9400
  117OSM   H16G12360   7.209   1.637   9.120  0.0280  0.6195 -1.1425
  117OSM   C17F12361   7.004   1.643   9.042  0.7763  0.5074  0.1147
  117OSM   H17F12362   6.994   1.753   9.046  1.0201  0.5245  0.2169
  117OSM   H17G12363   6.905   1.601   9.070  1.1073  0.6938  1.5894
  117OSM   C18F12364   7.038   1.603   8.903 -0.0466 -0.2109  0.1600
  117OSM   H18F12365   7.135   1.650   8.877 -1.3822  1.0903 -2.7045
  117OSM   H18G12366   6.971   1.635   8.820  1.3662 -0.6819 -1.2082
  117OSM   H18H12367   7.054   1.495   8.884  0.5841  0.1632 -1.6050
  118OSM      N12368   0.084   3.859  11.091  0.2652 -0.2214 -0.0230
  118OSM    C1512369   0.099   3.777  11.217 -0.1729  0.5772  0.2228
  118OSM   H15A12370   0.150   3.826  11.299 -0.1889  1.5686 -0.3485
  118OSM   H15B12371   0.159   3.691  11.189 -0.0394  0.1197  1.8911
  118OSM   H15C12372   0.008   3.737  11.259  1.6574 -2.6929  1.2539
  118OSM    C1412373   0.020   3.987  11.127  0.0118  0.8318  0.8252
  118OSM   H14A12374   0.090   4.036  11.193  0.3548  0.9897  0.3536
  118OSM   H14B12375  -0.076   3.968  11.171  1.0834 -0.8032  2.5612
  118OSM   H14C12376   0.015   4.056  11.043  0.6299 -1.7799 -1.4405
  118OSM    C1312377   0.227   3.887  11.052  0.4444 -0.2946 -0.4666
  118OSM   H13A12378   0.289   3.935  11.127  0.7130 -0.4906 -0.5640
  118OSM   H13B12379   0.235   3.936  10.957 -1.9688 -0.9766 -1.0395
  118OSM   H13C12380   0.284   3.796  11.039  1.3592  0.4673 -1.8819
  118OSM    C1212381   0.011   3.787  10.980 -0.4781  0.0083 -0.7930
  118OSM   H12A12382   0.033   3.836  10.887 -2.0921 -0.6307 -1.5447
  118OSM   H12B12383  -0.097   3.797  10.984 -0.4066  0.9290 -1.2007
  118OSM    C1112384   0.043   3.637  10.968 -0.0466 -0.0765 -0.2285
  118OSM   H11A12385  -0.003   3.602  10.873 -0.3765  0.4995 -0.2809
  118OSM   H11B12386  -0.014   3.593  11.053 -3.1247 -1.2886 -2.8068
  118OSM      P12387   0.222   3.455  11.022 -0.2436  0.0977 -0.4205
  118OSM    O1312388   0.370   3.453  11.053 -0.3506 -0.3417 -0.5922
  118OSM    O1412389   0.139   3.423  11.140  0.6327  0.0300  0.0733
  118OSM    O1112390   0.200   3.363  10.901 -0.3015  0.7681  0.1317
  118OSM    O1212391   0.181   3.601  10.970 -0.0909  0.2649 -0.2682
  118OSM    C1S12392   0.285   3.359  10.787  0.0576  0.0674  0.5747
  118OSM    H1S12393   0.385   3.325  10.819  1.4618  1.2942 -2.3267
  118OSM    H1T12394   0.310   3.461  10.752  0.8302 -0.4844 -0.5019
  118OSM     NF12395   0.308   3.319  10.549  0.3579 -0.4597  0.2574
  118OSM    HNF12396   0.268   3.392  10.494  0.0421 -0.2616  0.7421
  118OSM    C2S12397   0.233   3.277  10.668 -0.2491  0.4288  0.7067
  118OSM    H2S12398   0.245   3.169  10.691  0.1617  0.1272 -0.8333
  118OSM    C3S12399   0.078   3.290  10.656 -0.1047 -0.3022  0.4684
  118OSM    H3S12400   0.044   3.396  10.665 -2.0084 -0.8375 -0.2601
  118OSM     O312401   0.010   3.220  10.763  0.3381 -0.4763 -0.3986
  118OSM    HO312402   0.071   3.222  10.837 -0.1857  3.8074  0.0427
  118OSM    C4S12403   0.040   3.243  10.520  0.5261  0.8369  0.2799
  118OSM    H4S12404   0.047   3.135  10.501  1.6507  1.1447 -1.1151
  118OSM    C5S12405  -0.011   3.322  10.425 -0.2778 -0.1815  0.0589
  118OSM    H5S12406  -0.007   3.429  10.452  1.1936 -0.4785  1.0889
  118OSM    C6S12407  -0.056   3.289  10.284  0.1341 -0.0127 -1.1706
  118OSM    H6S12408  -0.144   3.357  10.278 -0.6020 -0.5782  2.1210
  118OSM    H6T12409  -0.086   3.183  10.275 -0.6273 -0.4081  4.2257
  118OSM    C7S12410   0.048   3.318  10.177  0.4737 -0.1628 -1.1516
  118OSM    H7S12411   0.126   3.238  10.177  0.2201 -0.5398  3.4201
  118OSM    H7T12412   0.108   3.411  10.183  0.2936 -0.1361  0.4115
  118OSM    C8S12413  -0.010   3.320  10.037  0.0585  0.9686 -0.0796
  118OSM    H8S12414  -0.068   3.413  10.015  0.6129  1.3475  0.0383
  118OSM    H8T12415  -0.079   3.234  10.022  0.8525  0.4613 -0.8481
  118OSM    C9S12416   0.109   3.323   9.935 -0.1776 -0.1981  0.5949
  118OSM    H9S12417   0.187   3.250   9.966  0.7099  0.8779  0.9046
  118OSM    H9T12418   0.169   3.415   9.946  2.7347 -1.9506  0.0191
  118OSM   C10S12419   0.068   3.325   9.786 -0.1718 -0.1378 -0.8787
  118OSM   H10S12420  -0.013   3.250   9.779  0.1750 -0.5506 -0.4318
  118OSM   H10T12421   0.150   3.275   9.731 -0.6093 -0.3415 -1.3482
  118OSM   C11S12422   0.033   3.464   9.734 -0.1970 -0.1500 -0.2388
  118OSM   H11S12423   0.119   3.532   9.720 -0.4232  0.4225  1.0564
  118OSM   H11T12424  -0.034   3.513   9.808 -0.1717 -0.8613  0.2645
  118OSM   C12S12425  -0.009   3.467   9.583  0.1263 -0.0708  0.2188
  118OSM   H12S12426  -0.113   3.430   9.593  0.2580 -0.0823  1.7286
  118OSM   H12T12427   0.051   3.415   9.506  1.1510  3.4441 -1.4790
  118OSM   C13S12428  -0.027   3.608   9.532 -0.1486 -0.0347 -0.4737
  118OSM   H13S12429   0.071   3.660   9.522  0.4489 -0.5245  2.3300
  118OSM   H13T12430  -0.096   3.659   9.602 -0.9440 -0.0321 -1.2433
  118OSM   C14S12431  -0.085   3.629   9.390  0.8526 -0.0024  0.0668
  118OSM   H14S12432  -0.189   3.588   9.393  0.1324  1.6579 -1.3321
  118OSM   H14T12433  -0.033   3.567   9.314 -2.4913 -1.7658 -0.8945
  118OSM   C15S12434  -0.080   3.778   9.346 -0.2958  0.1062 -0.3807
  118OSM   H15S12435   0.025   3.816   9.340 -0.0958 -0.2372  0.7543
  118OSM   H15T12436  -0.137   3.849   9.409  2.0143  0.6641  1.1456
  118OSM   C16S12437  -0.144   3.798   9.211 -0.2513  0.4045  0.5907
  118OSM   H16S12438  -0.105   3.722   9.140 -1.1837 -0.2047  0.7253
  118OSM   H16T12439  -0.126   3.900   9.171  1.1444 -0.1941 -0.3137
  118OSM   C17S12440  -0.300   3.800   9.212  0.6451  0.3041 -0.4899
  118OSM   H17S12441  -0.339   3.857   9.299  1.5143 -1.0764  0.8124
  118OSM   H17T12442  -0.327   3.693   9.222  3.4815 -0.2077  2.1652
  118OSM   C18S12443  -0.355   3.874   9.094 -0.1977 -0.0842  0.0848
  118OSM   H18S12444  -0.332   3.837   8.992 -2.9407  1.2105 -1.0579
  118OSM   H18T12445  -0.314   3.977   9.086 -1.5129  0.4014 -0.5124
  118OSM   H18U12446  -0.466   3.878   9.104 -0.0500  0.6384  1.6636
  118OSM    C1F12447   0.434   3.285  10.532  0.1863 -0.1793  0.2173
  118OSM     OF12448   0.494   3.219  10.613  0.1329  0.4204 -0.0547
  118OSM    C2F12449   0.502   3.323  10.406  0.5393 -0.0135 -0.2449
  118OSM    H2F12450   0.576   3.244  10.380 -1.2680 -1.8616  0.0282
  118OSM    H2G12451   0.553   3.419  10.430 -0.4541  0.4307  0.1314
  118OSM    C3F12452   0.389   3.350  10.294  0.7044  0.2154 -1.1181
  118OSM    H3F12453   0.315   3.426  10.325 -2.3738 -2.7913 -0.7353
  118OSM    H3G12454   0.316   3.266  10.285 -0.9676  1.5414 -0.0563
  118OSM    C4F12455   0.430   3.385  10.151 -0.1685 -0.4744 -0.1033
  118OSM    H4F12456   0.487   3.480  10.155 -1.8957  0.5240  2.1832
  118OSM    H4G12457   0.345   3.409  10.084  0.2191 -1.5956 -0.9963
  118OSM    C5F12458   0.516   3.280  10.076 -0.1355 -0.1311 -0.0672
  118OSM    H5F12459   0.474   3.180  10.099 -1.1486 -0.1078 -1.7074
  118OSM    H5G12460   0.616   3.274  10.125  0.0132  2.9708  0.1090
  118OSM    C6F12461   0.509   3.295   9.921 -0.4174 -0.2494  0.1390
  118OSM    H6F12462   0.527   3.402   9.898 -3.1631  0.5895  1.6249
  118OSM    H6G12463   0.405   3.269   9.895  0.1724 -3.0231  0.3685
  118OSM    C7F12464   0.587   3.207   9.829  0.0152 -0.1880 -0.1971
  118OSM    H7F12465   0.558   3.103   9.852 -0.6970  0.1837  0.6417
  118OSM    H7G12466   0.695   3.208   9.857 -0.3689 -0.5495  1.3913
  118OSM    C8F12467   0.571   3.232   9.677 -0.4215  0.2053 -0.8530
  118OSM    H8F12468   0.640   3.155   9.636 -0.6397 -1.6809  2.1915
  118OSM    H8G12469   0.609   3.332   9.649  2.6777 -1.1703 -1.7000
  118OSM    C9F12470   0.440   3.203   9.613 -0.8025  0.7689  0.1005
  118OSM    H9F12471   0.386   3.134   9.679  2.2973 -1.0712  0.8183
  118OSM   C10F12472   0.380   3.265   9.511 -0.1672 -0.1670 -0.2646
  118OSM   H10F12473   0.274   3.239   9.495  0.2126 -2.3010  0.4688
  118OSM   C11F12474   0.440   3.374   9.426 -0.0920 -0.3660  0.4296
  118OSM   H11F12475   0.551   3.374   9.429 -0.1199  1.5369  1.7449
  118OSM   H11G12476   0.399   3.474   9.452  0.9765 -0.5289  2.8442
  118OSM   C12F12477   0.398   3.342   9.278 -0.2376  0.0187 -1.1779
  118OSM   H12F12478   0.432   3.241   9.249 -0.3575  0.3502 -2.4769
  118OSM   H12G12479   0.450   3.412   9.209 -0.8687 -0.5658 -2.2576
  118OSM   C13F12480   0.250   3.351   9.236 -0.7828 -0.0358 -0.2570
  118OSM   H13F12481   0.208   3.445   9.279  1.2691  0.3030  1.0696
  118OSM   H13G12482   0.188   3.267   9.274 -3.8491  2.4454  0.4499
  118OSM   C14F12483   0.234   3.351   9.085 -0.4334  0.3900 -0.3678
  118OSM   H14F12484   0.329   3.314   9.041 -1.2633 -1.5351 -0.6098
  118OSM   H14G12485   0.198   3.446   9.040  0.0461  1.9161  2.3716
  118OSM   C15F12486   0.137   3.247   9.032  0.2231 -0.5631 -0.0506
  118OSM   H15F12487   0.039   3.274   9.077 -0.3672 -0.9048 -1.1241
  118OSM   H15G12488   0.159   3.143   9.066 -0.7484 -0.9732 -0.6466
  118OSM   C16F12489   0.112   3.246   8.875 -0.4672  0.1244  0.4583
  118OSM   H16F12490   0.205   3.207   8.829 -0.5895 -1.2159  1.3303
  118OSM   H16G12491   0.086   3.348   8.838 -0.1695  0.0667  0.0872
  118OSM   C17F12492  -0.006   3.151   8.848 -0.2484 -0.3311 -0.6014
  118OSM   H17F12493  -0.037   3.160   8.742  0.6522 -0.4746 -0.8860
  118OSM   H17G12494  -0.085   3.181   8.919 -0.1472 -1.9832  0.2415
  118OSM   C18F12495   0.023   2.997   8.872  0.5940  0.4306  0.1120
  118OSM   H18F12496  -0.015   2.925   8.797 -2.2521  0.6059  1.3148
  118OSM   H18G12497  -0.015   2.951   8.966  3.1494  0.4346  1.1996
  118OSM   H18H12498   0.132   2.977   8.865 -0.2026 -3.8035 -1.9396
  119OSM      N12499   0.729   2.608  11.158  0.5780 -0.6482 -0.0702
  119OSM    C1512500   0.829   2.558  11.251 -0.2739  0.5484  0.5703
  119OSM   H15A12501   0.871   2.480  11.190  1.7223  1.1226  1.1965
  119OSM   H15B12502   0.784   2.525  11.343 -2.0541  0.9576 -0.1156
  119OSM   H15C12503   0.916   2.621  11.265 -0.6108  0.8830  1.1871
  119OSM    C1412504   0.625   2.500  11.132  0.6136 -1.1080 -0.2735
  119OSM   H14A12505   0.540   2.541  11.080  1.2557  0.4218 -0.1338
  119OSM   H14B12506   0.586   2.472  11.229  1.8402  2.4833  1.3462
  119OSM   H14C12507   0.687   2.423  11.090  1.3248  0.4150 -2.0775
  119OSM    C1312508   0.663   2.726  11.220 -0.2892 -0.9146 -0.2327
  119OSM   H13A12509   0.727   2.811  11.201  0.6050 -1.4398  0.3857
  119OSM   H13B12510   0.651   2.714  11.326  3.4179 -2.5307  0.0834
  119OSM   H13C12511   0.564   2.740  11.178  1.0716  0.8965 -2.9931
  119OSM    C1212512   0.800   2.652  11.021 -0.1213  0.1707  0.5953
  119OSM   H12A12513   0.881   2.721  11.037  1.1044 -0.4348 -2.6311
  119OSM   H12B12514   0.728   2.698  10.955 -0.5235 -0.8010  0.3427
  119OSM    C1112515   0.873   2.539  10.956 -0.3357 -0.2387 -0.2275
  119OSM   H11A12516   0.905   2.566  10.853  0.2229 -1.2176 -0.3132
  119OSM   H11B12517   0.823   2.441  10.950 -2.5914  0.8568  0.2880
  119OSM      P12518   1.126   2.599  11.029 -0.1993 -0.1206  0.4503
  119OSM    O1312519   1.109   2.745  11.032 -0.5252 -0.3570  0.5592
  119OSM    O1412520   1.219   2.541  11.126 -0.5076 -0.4473 -0.2137
  119OSM    O1112521   1.184   2.561  10.891 -0.1585 -0.4423  0.1331
  119OSM    O1212522   0.990   2.516  11.024 -0.3890  0.0149  0.0771
  119OSM    C1S12523   1.197   2.423  10.844 -0.0649  0.1517 -0.3477
  119OSM    H1S12524   1.103   2.365  10.853 -0.4824  1.2352  2.8357
  119OSM    H1T12525   1.277   2.370  10.900  0.5210 -1.3934 -2.5905
  119OSM     NF12526   1.212   2.271  10.633  0.1616 -0.2577  0.1139
  119OSM    HNF12527   1.296   2.218  10.625  0.3859  0.1350 -0.1046
  119OSM    C2S12528   1.225   2.408  10.682  0.5824  0.5728  0.1159
  119OSM    H2S12529   1.147   2.467  10.630  0.8520 -0.1592 -1.1322
  119OSM    C3S12530   1.366   2.464  10.646  0.0941 -0.5203  0.8524
  119OSM    H3S12531   1.439   2.386  10.676  3.0081  2.8985  3.0731
  119OSM     O312532   1.408   2.575  10.725  0.0974 -0.0551 -0.3651
  119OSM    HO312533   1.348   2.586  10.799  0.1934  0.7700 -0.3977
  119OSM    C4S12534   1.375   2.505  10.495 -0.2885  0.2093 -0.3492
  119OSM    H4S12535   1.440   2.436  10.439  0.8885  1.6385 -0.7750
  119OSM    C5S12536   1.329   2.622  10.439 -0.5201 -0.0845 -0.5964
  119OSM    H5S12537   1.270   2.694  10.498  1.8044  0.0788  1.6443
  119OSM    C6S12538   1.360   2.659  10.293 -1.1415 -0.4792 -0.2435
  119OSM    H6S12539   1.410   2.572  10.246 -0.9682 -0.7018  0.3498
  119OSM    H6T12540   1.432   2.743  10.307 -1.6250  0.1549 -1.5316
  119OSM    C7S12541   1.235   2.707  10.213  0.1001 -0.4695  0.4424
  119OSM    H7S12542   1.167   2.777  10.267  0.2037  2.4237 -2.9874
  119OSM    H7T12543   1.160   2.629  10.186 -1.5541  0.6032  1.8283
  119OSM    C8S12544   1.290   2.757  10.080  0.2369  0.0112 -0.2643
  119OSM    H8S12545   1.366   2.681  10.050  1.9970  0.9982  1.5336
  119OSM    H8T12546   1.342   2.854  10.091  1.0913 -0.2355 -2.0001
  119OSM    C9S12547   1.187   2.779   9.969 -0.0384 -0.3396 -0.0527
  119OSM    H9S12548   1.122   2.865   9.998 -1.4770 -1.6244  0.6139
  119OSM    H9T12549   1.109   2.700   9.974 -0.6933  0.2685 -0.6355
  119OSM   C10S12550   1.253   2.785   9.833 -0.8130  0.7897 -0.0229
  119OSM   H10S12551   1.299   2.687   9.809 -0.3621  0.2422  2.9782
  119OSM   H10T12552   1.344   2.848   9.827 -0.7070  0.4907 -2.1407
  119OSM   C11S12553   1.164   2.820   9.714  0.5333  0.5137 -0.2850
  119OSM   H11S12554   1.168   2.930   9.697 -1.0993  0.6939  0.3607
  119OSM   H11T12555   1.063   2.781   9.742  0.5384  0.8885  0.2523
  119OSM   C12S12556   1.210   2.757   9.581 -0.2251 -0.0096  0.2086
  119OSM   H12S12557   1.225   2.648   9.597 -3.8465 -0.4144  1.4258
  119OSM   H12T12558   1.307   2.809   9.566 -0.1657 -0.0658  0.3952
  119OSM   C13S12559   1.109   2.786   9.467  0.3526 -1.3367 -0.1025
  119OSM   H13S12560   1.011   2.754   9.508 -0.9287  2.3216 -0.0581
  119OSM   H13T12561   1.139   2.733   9.374 -1.4564  0.7080 -1.9339
  119OSM   C14S12562   1.102   2.936   9.419  0.4820  0.2891 -0.2162
  119OSM   H14S12563   1.055   3.001   9.495  0.2532 -1.3363  1.0634
  119OSM   H14T12564   1.025   2.933   9.338 -1.7627  1.6145  1.8055
  119OSM   C15S12565   1.224   2.991   9.350  0.0980 -0.2070  0.6068
  119OSM   H15S12566   1.301   2.996   9.430 -0.3355 -0.5702  1.0533
  119OSM   H15T12567   1.206   3.097   9.324 -2.2808 -0.5387  0.7813
  119OSM   C16S12568   1.264   2.923   9.219  0.2682 -0.0703 -0.3977
  119OSM   H16S12569   1.190   2.926   9.136 -0.8957 -2.2135  0.5110
  119OSM   H16T12570   1.296   2.821   9.250 -1.4387  0.2203  2.4747
  119OSM   C17S12571   1.387   2.995   9.156 -0.1306  0.5159 -0.2349
  119OSM   H17S12572   1.463   3.003   9.236  0.4290  3.4619 -1.0297
  119OSM   H17T12573   1.355   3.095   9.122 -3.9514 -0.4213  0.3751
  119OSM   C18S12574   1.440   2.922   9.031 -0.0692 -0.1966 -0.9209
  119OSM   H18S12575   1.362   2.916   8.952 -0.1963  1.4012 -0.9242
  119OSM   H18T12576   1.468   2.816   9.049  2.4088  0.5534 -0.1765
  119OSM   H18U12577   1.528   2.977   8.992  0.6720 -1.5061 -1.1481
  119OSM    C1F12578   1.091   2.212  10.636 -0.6001  0.1433  0.1320
  119OSM     OF12579   0.999   2.285  10.643 -0.1260 -0.3058  0.1979
  119OSM    C2F12580   1.090   2.062  10.624 -0.1777  0.1565  0.0009
  119OSM    H2F12581   1.099   2.015  10.724  1.6022  2.0687  0.7783
  119OSM    H2G12582   1.178   2.023  10.570 -0.4483 -0.2322 -0.1628
  119OSM    C3F12583   0.963   2.010  10.560  0.2963  0.3150 -0.1305
  119OSM    H3F12584   0.867   2.038  10.609 -0.1271 -2.2192  0.5578
  119OSM    H3G12585   0.965   1.901  10.579 -1.3228 -0.1254 -2.2161
  119OSM    C4F12586   0.957   2.024  10.405  1.2546 -0.1221 -0.6591
  119OSM    H4F12587   1.050   1.967  10.382  0.7870 -0.2748 -2.1832
  119OSM    H4G12588   0.972   2.133  10.387  1.0854  0.0846  0.4057
  119OSM    C5F12589   0.834   1.958  10.338 -0.1160 -0.3692  0.6137
  119OSM    H5F12590   0.742   1.989  10.393  0.4550  2.2402  0.1190
  119OSM    H5G12591   0.832   1.847  10.351  1.0287 -0.6578 -1.5950
  119OSM    C6F12592   0.821   1.978  10.188 -0.2678  0.2809 -0.7192
  119OSM    H6F12593   0.792   2.085  10.186  2.8588  1.1709 -1.7737
  119OSM    H6G12594   0.743   1.915  10.141 -1.0460 -0.0907  1.0361
  119OSM    C7F12595   0.955   1.945  10.105 -0.5931 -0.3920 -0.2695
  119OSM    H7F12596   1.000   1.852  10.145  0.9618  1.6387  2.8197
  119OSM    H7G12597   1.024   2.028  10.132 -1.8961  0.9058 -0.8156
  119OSM    C8F12598   0.940   1.932   9.952 -0.4408  0.5260 -0.0337
  119OSM    H8F12599   0.890   2.018   9.903 -1.9393  0.0286  0.6206
  119OSM    H8G12600   0.881   1.840   9.931 -1.5655  1.4707 -1.0499
  119OSM    C9F12601   1.082   1.918   9.886 -0.3473 -0.1222  0.3713
  119OSM    H9F12602   1.165   1.922   9.958  2.9849 -0.1377 -3.3486
  119OSM   C10F12603   1.112   1.876   9.760  0.5867 -0.5749  0.0808
  119OSM   H10F12604   1.220   1.866   9.742  0.5182  0.7892 -1.1283
  119OSM   C11F12605   1.013   1.835   9.654 -0.4966 -0.5742  0.0246
  119OSM   H11F12606   0.929   1.905   9.675  2.5589  3.1976  0.3596
  119OSM   H11G12607   0.985   1.728   9.654 -1.8732 -0.2535  2.9244
  119OSM   C12F12608   1.074   1.872   9.518  0.5267  0.5858  0.0173
  119OSM   H12F12609   1.170   1.819   9.498  0.1332 -0.5836  1.1395
  119OSM   H12G12610   1.098   1.980   9.517  0.4233  0.6139  0.7723
  119OSM   C13F12611   0.971   1.845   9.405 -0.1239 -0.1223  0.1901
  119OSM   H13F12612   0.934   1.741   9.415  1.3743 -0.8476 -1.5961
  119OSM   H13G12613   1.024   1.852   9.307 -1.4317 -2.0892 -0.6782
  119OSM   C14F12614   0.848   1.944   9.396  0.1124 -0.6390  0.4607
  119OSM   H14F12615   0.895   2.044   9.406 -0.0245 -0.6280  1.0482
  119OSM   H14G12616   0.788   1.939   9.490 -0.4202 -0.5343  0.1277
  119OSM   C15F12617   0.759   1.945   9.275 -0.7710 -0.0947  0.4153
  119OSM   H15F12618   0.676   2.018   9.275  0.0293  0.8358  0.4650
  119OSM   H15G12619   0.721   1.842   9.282 -0.7491 -0.1733 -0.6043
  119OSM   C16F12620   0.831   1.967   9.139  0.3587  0.2229  0.6482
  119OSM   H16F12621   0.899   1.881   9.119 -1.0973 -0.0647 -3.5266
  119OSM   H16G12622   0.907   2.046   9.156 -0.4464  0.9452  0.8884
  119OSM   C17F12623   0.741   1.984   9.016 -0.5363 -0.6493  0.1834
  119OSM   H17F12624   0.670   2.067   9.032  2.3895  2.2141 -1.1169
  119OSM   H17G12625   0.672   1.897   9.012  0.0215 -1.1316  1.0049
  119OSM   C18F12626   0.807   2.002   8.878 -0.4568 -0.1603 -0.2518
  119OSM   H18F12627   0.856   2.102   8.867  0.9644 -0.5569  2.1386
  119OSM   H18G12628   0.742   1.988   8.789  1.2342  1.2549 -1.7540
  119OSM   H18H12629   0.888   1.927   8.868 -1.0106 -0.8544  0.4094
  120OSM      N12630   6.484   6.095  10.912  0.1983  0.0302 -0.3862
  120OSM    C1512631   6.560   6.190  10.999  0.7943 -0.2225 -0.0488
  120OSM   H15A12632   6.518   6.289  10.997 -1.6729 -1.2515 -1.1552
  120OSM   H15B12633   6.661   6.218  10.972  0.2140  2.1683  0.1216
  120OSM   H15C12634   6.565   6.159  11.103  0.8341 -0.5505 -0.1474
  120OSM    C1412635   6.553   5.961  10.931  0.4357  0.4465  0.1527
  120OSM   H14A12636   6.568   5.932  11.033  1.8734 -2.1734 -0.7624
  120OSM   H14B12637   6.653   5.977  10.893 -0.1476  2.2772 -0.6938
  120OSM   H14C12638   6.505   5.888  10.867 -0.0503  1.5066 -0.7122
  120OSM    C1312639   6.342   6.086  10.962  0.1386 -0.3407  0.1479
  120OSM   H13A12640   6.329   6.069  11.068 -0.1872 -0.2823  0.1170
  120OSM   H13B12641   6.280   6.025  10.899 -1.9625  0.2678  1.5609
  120OSM   H13C12642   6.296   6.183  10.947 -3.7923 -2.2902 -0.9542
  120OSM    C1212643   6.484   6.158  10.768  1.2943  0.5696 -0.6411
  120OSM   H12A12644   6.420   6.243  10.783 -3.3295 -3.1228  1.7393
  120OSM   H12B12645   6.428   6.094  10.701 -1.4533  0.7116  1.4541
  120OSM    C1112646   6.614   6.188  10.705  0.3246  0.6939  0.2490
  120OSM   H11A12647   6.662   6.276  10.752  1.4213 -0.0248  0.4884
  120OSM   H11B12648   6.607   6.225  10.600  0.1558 -1.2337 -0.4391
  120OSM      P12649   6.695   5.967  10.612  0.0031 -0.2252 -0.3565
  120OSM    O1312650   6.827   5.899  10.631  0.3621 -0.3898 -0.3373
  120OSM    O1412651   6.582   5.881  10.636 -0.0419  0.5194  0.2967
  120OSM    O1112652   6.677   6.040  10.472 -0.1879 -0.1824 -0.0862
  120OSM    O1212653   6.703   6.080  10.723 -0.2507 -0.5001 -0.0833
  120OSM    C1S12654   6.781   6.118  10.403  0.7204  0.3248 -0.2264
  120OSM    H1S12655   6.879   6.071  10.425  0.0464 -0.8562  0.3219
  120OSM    H1T12656   6.784   6.228  10.418 -0.0359  0.1914  0.9776
  120OSM     NF12657   6.878   6.167  10.189  0.2214  0.1352 -0.0734
  120OSM    HNF12658   6.855   6.254  10.148 -0.6087 -0.6334 -1.2697
  120OSM    C2S12659   6.767   6.104  10.251 -0.7459  0.9619 -0.1460
  120OSM    H2S12660   6.776   5.996  10.225  0.0839  0.9963 -0.0055
  120OSM    C3S12661   6.633   6.146  10.199 -0.2111 -0.5574 -0.1111
  120OSM    H3S12662   6.620   6.250  10.236  0.2413 -0.5333 -0.0147
  120OSM     O312663   6.520   6.077  10.242  0.0907  0.2756 -0.3177
  120OSM    HO312664   6.538   6.049  10.332  0.2995  1.2771 -0.0409
  120OSM    C4S12665   6.624   6.128  10.052  0.7073 -0.9322  0.4011
  120OSM    H4S12666   6.645   6.025  10.019 -1.6725 -0.9388 -1.1565
  120OSM    C5S12667   6.616   6.223   9.954 -0.4062 -0.2874 -0.2604
  120OSM    H5S12668   6.591   6.325   9.989  0.6440 -0.4065  0.8775
  120OSM    C6S12669   6.616   6.180   9.812 -0.1118 -0.3373  0.8222
  120OSM    H6S12670   6.676   6.087   9.804  0.9992  0.1377  2.9451
  120OSM    H6T12671   6.673   6.247   9.745 -1.3975  2.1810  2.1643
  120OSM    C7S12672   6.474   6.162   9.750  0.0685  0.1166 -0.5492
  120OSM    H7S12673   6.423   6.259   9.765  0.5962  0.0988  1.5366
  120OSM    H7T12674   6.431   6.090   9.824  0.8325  0.0347 -0.1794
  120OSM    C8S12675   6.479   6.105   9.611  0.4827 -0.2719 -0.2856
  120OSM    H8S12676   6.377   6.108   9.568  1.4976  3.0329 -2.6445
  120OSM    H8T12677   6.489   5.994   9.621 -0.0523 -0.2691  0.3457
  120OSM    C9S12678   6.584   6.162   9.515  0.5179 -0.0160 -0.0686
  120OSM    H9S12679   6.678   6.122   9.559  1.5674  0.9994 -1.3404
  120OSM    H9T12680   6.584   6.271   9.537 -1.2057 -0.0282  0.0709
  120OSM   C10S12681   6.569   6.109   9.368  0.4759 -0.3302 -0.4163
  120OSM   H10S12682   6.669   6.139   9.327  0.8005 -1.7056 -0.6680
  120OSM   H10T12683   6.476   6.154   9.327 -0.6569  0.2202  2.6722
  120OSM   C11S12684   6.553   5.957   9.344 -0.3627  0.2545 -0.3452
  120OSM   H11S12685   6.497   5.892   9.415  1.5539 -0.5017  0.5023
  120OSM   H11T12686   6.656   5.916   9.343 -0.5680 -0.2898  0.3000
  120OSM   C12S12687   6.505   5.925   9.200  0.1108 -0.4104  0.5480
  120OSM   H12S12688   6.398   5.949   9.187  0.2950  0.7516  1.0851
  120OSM   H12T12689   6.522   5.818   9.177 -3.7720 -1.3370  1.7431
  120OSM   C13S12690   6.583   5.996   9.077  0.0648 -0.1610  0.6412
  120OSM   H13S12691   6.685   6.010   9.119 -1.1610 -0.2380  3.7750
  120OSM   H13T12692   6.537   6.095   9.059  0.7584  0.2741  1.2143
  120OSM   C14S12693   6.595   5.905   8.953  0.0572  0.1035  0.0609
  120OSM   H14S12694   6.647   5.809   8.976 -0.9771 -0.1059  1.5752
  120OSM   H14T12695   6.657   5.952   8.873  1.4130 -0.4477  0.7642
  120OSM   C15S12696   6.457   5.869   8.900  0.0251 -1.2868 -0.5850
  120OSM   H15S12697   6.407   5.962   8.865  1.6609 -0.8779 -1.8600
  120OSM   H15T12698   6.395   5.826   8.982  1.5737 -2.2126  0.1246
  120OSM   C16S12699   6.448   5.765   8.782 -0.4335  0.1553 -0.4419
  120OSM   H16S12700   6.340   5.738   8.773  0.4772 -4.1858  0.5501
  120OSM   H16T12701   6.498   5.673   8.819 -1.3651 -0.9792 -1.9138
  120OSM   C17S12702   6.499   5.814   8.646  0.2089 -0.0980 -0.1817
  120OSM   H17S12703   6.507   5.729   8.574  2.9150 -0.5843  0.6617
  120OSM   H17T12704   6.603   5.852   8.637 -0.5300  2.1973  0.6183
  120OSM   C18S12705   6.405   5.923   8.592  0.1370  0.1994  0.6679
  120OSM   H18S12706   6.298   5.899   8.581  0.0462  1.0248 -0.2012
  120OSM   H18T12707   6.442   5.953   8.492  1.8685  0.3470  1.3205
  120OSM   H18U12708   6.415   6.001   8.670 -0.8326 -0.4715  1.4761
  120OSM    C1F12709   7.006   6.125  10.186  0.2675 -0.0288 -0.3533
  120OSM     OF12710   7.036   6.022  10.245 -0.5581  0.0427  0.1375
  120OSM    C2F12711   7.091   6.229  10.119 -0.3902  0.4371  0.3821
  120OSM    H2F12712   7.180   6.244  10.184  2.2748  1.2553 -3.2577
  120OSM    H2G12713   7.028   6.320  10.109 -2.1377 -0.7637  0.3785
  120OSM    C3F12714   7.137   6.185   9.975 -0.4084  0.2032  0.1186
  120OSM    H3F12715   7.200   6.096   9.994 -0.5876 -0.3853 -1.9755
  120OSM    H3G12716   7.212   6.251   9.927 -0.2931 -2.9284 -4.3273
  120OSM    C4F12717   7.030   6.165   9.871 -0.0636  0.3906  0.3502
  120OSM    H4F12718   6.983   6.262   9.845  0.3748 -0.0234 -2.0673
  120OSM    H4G12719   6.946   6.114   9.924 -1.0373  1.4394 -0.1666
  120OSM    C5F12720   7.077   6.089   9.754  0.3322  0.0525  0.1388
  120OSM    H5F12721   6.991   6.083   9.684  1.4735  2.0673 -1.4827
  120OSM    H5G12722   7.086   5.980   9.776  1.9716  0.0109 -0.6481
  120OSM    C6F12723   7.200   6.140   9.686 -0.4385 -0.2802  0.4761
  120OSM    H6F12724   7.295   6.124   9.741  0.7091  1.6294 -0.8727
  120OSM    H6G12725   7.188   6.250   9.674  1.2754 -0.0126  1.0511
  120OSM    C7F12726   7.226   6.076   9.544  0.3642  1.1220 -0.5632
  120OSM    H7F12727   7.209   5.966   9.543 -0.0626  1.1838 -0.1148
  120OSM    H7G12728   7.335   6.092   9.525  0.6472 -0.0400  0.0314
  120OSM    C8F12729   7.160   6.149   9.432 -0.7902  0.4334  0.3176
  120OSM    H8F12730   7.223   6.138   9.341 -1.4895 -1.1526  0.0110
  120OSM    H8G12731   7.149   6.259   9.438 -0.4167  0.6182 -1.9890
  120OSM    C9F12732   7.032   6.085   9.398  0.2767 -0.5806 -0.8326
  120OSM    H9F12733   6.984   6.037   9.485 -0.0377 -2.5353 -2.0636
  120OSM   C10F12734   6.964   6.092   9.285  0.4381 -0.5409 -0.3558
  120OSM   H10F12735   6.861   6.052   9.283  0.2864 -0.3596  2.2430
  120OSM   C11F12736   7.014   6.166   9.162  0.2474  0.3399  0.0490
  120OSM   H11F12737   7.083   6.250   9.182  1.2523 -0.1341 -1.2956
  120OSM   H11G12738   6.928   6.201   9.101  0.2143 -0.5673 -0.4404
  120OSM   C12F12739   7.090   6.066   9.071  0.3523  0.5275  0.3611
  120OSM   H12F12740   7.164   6.006   9.128  1.9108 -0.3984 -2.5067
  120OSM   H12G12741   7.145   6.123   8.993 -0.9136  2.0862  0.5734
  120OSM   C13F12742   6.997   5.966   8.995  0.4653 -0.4294 -0.5459
  120OSM   H13F12743   6.939   6.020   8.918  0.2706 -1.1949 -0.9416
  120OSM   H13G12744   6.914   5.912   9.046  0.3750  0.8749  0.7109
  120OSM   C14F12745   7.076   5.858   8.917 -0.6953 -0.2210 -0.4349
  120OSM   H14F12746   7.141   5.803   8.988  0.1523  1.7842  0.3668
  120OSM   H14G12747   7.132   5.902   8.831  0.5232 -3.2344 -1.2779
  120OSM   C15F12748   6.968   5.771   8.837  0.2560  0.4677  0.1044
  120OSM   H15F12749   6.906   5.836   8.772 -0.0564 -2.0039 -2.1592
  120OSM   H15G12750   6.900   5.724   8.911 -0.9549  2.7586  0.4621
  120OSM   C16F12751   7.037   5.672   8.740  0.0640 -0.0902 -0.3113
  120OSM   H16F12752   7.107   5.608   8.797 -2.2968 -2.8959 -0.4047
  120OSM   H16G12753   7.107   5.732   8.678  0.7598 -0.5116  0.0583
  120OSM   C17F12754   6.937   5.580   8.669  0.5511 -0.4369  0.0804
  120OSM   H17F12755   6.879   5.651   8.606  1.8618 -0.2859 -0.9968
  120OSM   H17G12756   6.869   5.525   8.737  0.4515 -0.1035  0.2519
  120OSM   C18F12757   7.008   5.479   8.586  0.1594 -0.1304 -0.2766
  120OSM   H18F12758   6.932   5.417   8.534  1.4584  0.7589 -3.3517
  120OSM   H18G12759   7.081   5.406   8.626  0.8449  1.3561  1.2349
  120OSM   H18H12760   7.069   5.534   8.510 -0.4382 -0.1755 -0.7937
  121OSM      N12761   5.887   2.177  10.943  0.2839 -0.3712  0.8607
  121OSM    C1512762   5.743   2.164  10.902 -0.1309  0.2058 -0.2582
  121OSM   H15A12763   5.700   2.260  10.878 -0.7943 -0.1778 -0.6352
  121OSM   H15B12764   5.685   2.116  10.979  1.2530 -1.2371 -0.0845
  121OSM   H15C12765   5.735   2.105  10.812  1.1582  0.9260 -0.8629
  121OSM    C1412766   5.884   2.225  11.083 -0.2805  0.1368  0.1639
  121OSM   H14A12767   5.821   2.310  11.109  1.3500  1.3434  0.2283
  121OSM   H14B12768   5.982   2.263  11.108 -0.2333 -0.7504  1.4078
  121OSM   H14C12769   5.845   2.144  11.143  0.8384 -1.9095 -1.7860
  121OSM    C1312770   5.957   2.048  10.932 -0.4106  0.3922  0.3770
  121OSM   H13A12771   6.059   2.074  10.955 -0.2526 -1.0764  1.3678
  121OSM   H13B12772   5.937   2.001  10.836  0.6123  0.9762 -0.1315
  121OSM   H13C12773   5.921   1.978  11.005  0.0713  2.0811  2.2624
  121OSM    C1212774   5.943   2.282  10.851 -0.0460  0.1607 -0.1784
  121OSM   H12A12775   5.925   2.269  10.746 -2.0107  1.6787 -0.0771
  121OSM   H12B12776   6.048   2.291  10.874  0.2865  0.0387 -1.6192
  121OSM    C1112777   5.896   2.434  10.876 -0.7961  0.0747 -0.9619
  121OSM   H11A12778   5.786   2.434  10.886 -0.4912 -1.6807  3.3979
  121OSM   H11B12779   5.925   2.498  10.790  0.5075 -0.3621 -0.8577
  121OSM      P12780   6.103   2.519  11.019 -0.4825 -0.0673 -0.4505
  121OSM    O1312781   6.112   2.635  11.108  0.8595 -0.3826 -0.2706
  121OSM    O1412782   6.170   2.396  11.065  0.7426  0.4798  0.2446
  121OSM    O1112783   6.156   2.553  10.874 -0.3809 -0.2167  0.9811
  121OSM    O1212784   5.948   2.483  10.995 -0.1979  0.2467 -0.2015
  121OSM    C1S12785   6.229   2.473  10.783 -0.2819  0.0368  0.4893
  121OSM    H1S12786   6.159   2.404  10.731  0.3802  0.9605 -1.6843
  121OSM    H1T12787   6.307   2.417  10.839  1.2568  0.9578 -0.6975
  121OSM     NF12788   6.366   2.455  10.571  0.1493 -0.4977  0.1204
  121OSM    HNF12789   6.465   2.441  10.570  0.2108 -0.0849  0.4642
  121OSM    C2S12790   6.302   2.551  10.664  0.0355  0.3494  0.0952
  121OSM    H2S12791   6.220   2.603  10.610 -1.0421 -0.3186  1.0896
  121OSM    C3S12792   6.399   2.655  10.727  0.9681 -0.0398  0.0978
  121OSM    H3S12793   6.471   2.597  10.787  0.7657  0.6178  0.9797
  121OSM     O312794   6.337   2.732  10.826 -0.5285 -0.0640 -0.4494
  121OSM    HO312795   6.250   2.695  10.843 -1.4469  2.1615 -0.1540
  121OSM    C4S12796   6.459   2.737  10.619 -0.0459  0.4497 -0.0968
  121OSM    H4S12797   6.390   2.747  10.533 -1.2068 -1.3368  0.5844
  121OSM    C5S12798   6.591   2.753  10.603 -0.0775  0.0156 -0.3414
  121OSM    H5S12799   6.661   2.705  10.673  0.2115  1.9476  0.7438
  121OSM    C6S12800   6.640   2.819  10.474 -0.1572 -0.4672  0.0703
  121OSM    H6S12801   6.748   2.800  10.461 -0.6978 -4.3785  0.6158
  121OSM    H6T12802   6.618   2.925  10.499  0.7745 -0.6239  1.6252
  121OSM    C7S12803   6.571   2.762  10.341  0.2976  0.0595  0.0612
  121OSM    H7S12804   6.461   2.778  10.347  0.4548  0.9050  0.7927
  121OSM    H7T12805   6.591   2.654  10.325 -1.3474  0.0356 -2.1015
  121OSM    C8S12806   6.617   2.832  10.214 -0.2278  0.3809 -0.6197
  121OSM    H8S12807   6.723   2.801  10.204  0.0849  0.9822  0.7156
  121OSM    H8T12808   6.618   2.941  10.236  3.4558  0.7175 -2.0488
  121OSM    C9S12809   6.540   2.780  10.092 -0.3418 -0.1785 -0.2026
  121OSM    H9S12810   6.433   2.811  10.098 -0.1701  0.3154  0.5067
  121OSM    H9T12811   6.550   2.671  10.078 -2.5085 -0.1987 -1.7761
  121OSM   C10S12812   6.592   2.848   9.969 -0.0264 -0.4027  0.7577
  121OSM   H10S12813   6.695   2.807   9.958 -0.7119 -2.0299  0.1946
  121OSM   H10T12814   6.603   2.957   9.985  0.5576 -0.3929  0.3254
  121OSM   C11S12815   6.494   2.823   9.844  0.3379 -0.3175  0.3900
  121OSM   H11S12816   6.392   2.845   9.882  0.7053  1.1849  0.4986
  121OSM   H11T12817   6.497   2.717   9.808  1.1099 -0.2531  0.2586
  121OSM   C12S12818   6.536   2.920   9.730 -0.0354  0.0730 -0.9389
  121OSM   H12S12819   6.507   2.877   9.632  2.5689  2.9083 -3.0231
  121OSM   H12T12820   6.647   2.924   9.721 -0.0469  1.3860 -0.4858
  121OSM   C13S12821   6.483   3.068   9.728  0.8605 -0.5376  0.3653
  121OSM   H13S12822   6.499   3.114   9.828 -2.3171  1.8889 -0.1293
  121OSM   H13T12823   6.377   3.070   9.695  1.1386  0.2357 -0.5266
  121OSM   C14S12824   6.543   3.150   9.618  0.6289 -0.8558  0.1530
  121OSM   H14S12825   6.652   3.132   9.608  0.9624  1.6444 -1.2343
  121OSM   H14T12826   6.524   3.260   9.622 -1.8011 -1.1125 -2.3295
  121OSM   C15S12827   6.496   3.113   9.480 -0.1937  0.2763 -0.1683
  121OSM   H15S12828   6.413   3.182   9.456 -0.4439  0.3262  0.8078
  121OSM   H15T12829   6.470   3.006   9.474  1.3004 -0.1915  1.2116
  121OSM   C16S12830   6.599   3.150   9.368  0.2493 -0.1411  0.4448
  121OSM   H16S12831   6.694   3.100   9.398 -1.1696 -0.6822  4.2939
  121OSM   H16T12832   6.633   3.256   9.372 -0.4171  0.1520 -1.3842
  121OSM   C17S12833   6.538   3.120   9.234 -0.7230  0.0509  0.3267
  121OSM   H17S12834   6.574   3.199   9.164 -0.7755 -1.4577 -1.4486
  121OSM   H17T12835   6.427   3.130   9.233 -0.7610 -0.3854  0.2059
  121OSM   C18S12836   6.584   2.982   9.175 -0.3320  0.0515 -0.8177
  121OSM   H18S12837   6.589   2.993   9.065  2.4186  0.1818 -0.7232
  121OSM   H18T12838   6.515   2.895   9.186  1.0031 -1.0172 -0.6685
  121OSM   H18U12839   6.686   2.954   9.210  1.6193  2.2905 -4.4381
  121OSM    C1F12840   6.293   2.361  10.508 -0.4770 -0.2133 -0.9924
  121OSM     OF12841   6.174   2.376  10.494  0.0211  0.4217 -0.0425
  121OSM    C2F12842   6.379   2.246  10.466 -0.5329 -0.5710 -0.2272
  121OSM    H2F12843   6.356   2.169  10.542  0.2799  0.9386  1.5834
  121OSM    H2G12844   6.486   2.274  10.474 -1.8682  4.7050  1.3132
  121OSM    C3F12845   6.342   2.197  10.321  0.0927  0.0996  0.1829
  121OSM    H3F12846   6.237   2.161  10.322 -1.1647  3.5058 -1.6218
  121OSM    H3G12847   6.406   2.107  10.306  1.1258  0.9560 -0.6074
  121OSM    C4F12848   6.375   2.299  10.211  0.4069 -0.0360  0.3176
  121OSM    H4F12849   6.465   2.359  10.237 -0.2684  0.4424  1.5657
  121OSM    H4G12850   6.281   2.358  10.209 -0.8225 -1.8215  2.5424
  121OSM    C5F12851   6.417   2.234  10.073  0.1705 -0.7759 -0.2201
  121OSM    H5F12852   6.339   2.159  10.047 -0.5771 -0.5060  1.1796
  121OSM    H5G12853   6.507   2.170  10.079 -1.3891 -3.0028  0.1550
  121OSM    C6F12854   6.421   2.336   9.965  0.0849 -0.2212  0.1388
  121OSM    H6F12855   6.489   2.422   9.983 -1.0988  0.5369  1.1415
  121OSM    H6G12856   6.316   2.372   9.951  0.0532 -0.7931 -1.2220
  121OSM    C7F12857   6.466   2.281   9.830  0.6667 -0.1898  0.1558
  121OSM    H7F12858   6.384   2.209   9.808  0.5243 -0.1959  0.7113
  121OSM    H7G12859   6.553   2.215   9.849  1.9106  0.8461 -1.8779
  121OSM    C8F12860   6.483   2.389   9.721  0.1026 -0.0270  0.0498
  121OSM    H8F12861   6.391   2.451   9.709 -0.0298 -0.0299  1.0760
  121OSM    H8G12862   6.489   2.333   9.625 -0.0315  0.1540 -0.0634
  121OSM    C9F12863   6.605   2.470   9.744  0.1908  0.3726 -0.1862
  121OSM    H9F12864   6.624   2.499   9.848 -1.9099 -1.1377  0.6670
  121OSM   C10F12865   6.687   2.522   9.653 -0.5376 -0.0184  0.5365
  121OSM   H10F12866   6.751   2.605   9.688 -1.7281  0.3643  1.8565
  121OSM   C11F12867   6.684   2.507   9.502 -0.3908  0.4319 -0.1717
  121OSM   H11F12868   6.672   2.608   9.457 -0.3717  0.9628  0.9981
  121OSM   H11G12869   6.595   2.450   9.468  0.3343 -1.6519  1.2614
  121OSM   C12F12870   6.798   2.439   9.427  0.0314 -0.0964  0.6080
  121OSM   H12F12871   6.797   2.328   9.431 -0.0749 -0.1065  0.3229
  121OSM   H12G12872   6.897   2.455   9.476 -0.2968 -0.9060  1.5448
  121OSM   C13F12873   6.812   2.494   9.282 -0.0877 -0.3655 -0.8682
  121OSM   H13F12874   6.881   2.418   9.238 -1.1614 -3.4000  2.4381
  121OSM   H13G12875   6.857   2.595   9.276 -0.1522 -0.3357 -0.8473
  121OSM   C14F12876   6.688   2.487   9.186  0.0059 -0.1856  0.0099
  121OSM   H14F12877   6.606   2.425   9.228 -0.5836 -1.8195 -3.3869
  121OSM   H14G12878   6.725   2.428   9.100  2.2705  2.7046 -1.0884
  121OSM   C15F12879   6.636   2.624   9.139 -0.3660  0.1464  0.1868
  121OSM   H15F12880   6.720   2.679   9.091 -0.3809  0.5521  0.6227
  121OSM   H15G12881   6.587   2.688   9.215  1.2488  1.3864  0.2046
  121OSM   C16F12882   6.533   2.598   9.026  0.0662  0.4441  0.3519
  121OSM   H16F12883   6.484   2.692   8.993 -0.6143 -0.8841 -2.6448
  121OSM   H16G12884   6.460   2.526   9.070  2.4966 -1.2667  1.6919
  121OSM   C17F12885   6.582   2.530   8.895 -0.3379 -0.1018 -0.0771
  121OSM   H17F12886   6.605   2.423   8.915  3.5465  0.7166  0.3665
  121OSM   H17G12887   6.681   2.576   8.873 -0.5660  0.2120 -0.4466
  121OSM   C18F12888   6.489   2.535   8.782 -0.3185  0.2551  0.3999
  121OSM   H18F12889   6.473   2.642   8.755  1.0464  0.4169  0.1930
  121OSM   H18G12890   6.395   2.484   8.813  0.4583 -1.5634 -0.1676
  121OSM   H18H12891   6.524   2.478   8.694  1.9765  1.6307  0.3743
  122OSM      N12892   6.693   0.500  11.147 -0.3645 -0.3495 -0.8355
  122OSM    C1512893   6.757   0.371  11.183 -0.0405 -1.1031 -0.3880
  122OSM   H15A12894   6.738   0.332  11.281 -0.1971 -1.0088 -0.3794
  122OSM   H15B12895   6.864   0.386  11.178  0.1492 -1.5416  2.1639
  122OSM   H15C12896   6.729   0.296  11.110 -2.2320 -0.2353 -0.4895
  122OSM    C1412897   6.549   0.490  11.151  0.0065  0.3338  0.1704
  122OSM   H14A12898   6.517   0.428  11.069 -1.2372 -1.3548  1.8856
  122OSM   H14B12899   6.504   0.585  11.127 -2.3588  0.1663  3.5193
  122OSM   H14C12900   6.507   0.462  11.247 -0.8805 -0.8238 -0.5415
  122OSM    C1312901   6.734   0.598  11.247  0.2952  0.0418 -1.2376
  122OSM   H13A12902   6.701   0.558  11.342 -1.5141  1.7260 -1.1221
  122OSM   H13B12903   6.681   0.692  11.247  2.0663  1.0692  0.8401
  122OSM   H13C12904   6.841   0.610  11.241  0.2997 -0.7286 -3.1043
  122OSM    C1212905   6.738   0.538  11.000  0.2401  1.2086 -0.3933
  122OSM   H12A12906   6.841   0.570  11.006  0.1420  1.3482  0.6981
  122OSM   H12B12907   6.688   0.628  10.966 -2.1516 -0.5981 -1.7736
  122OSM    C1112908   6.720   0.428  10.890  0.3655 -0.4016  0.0155
  122OSM   H11A12909   6.766   0.483  10.805  3.9779 -0.5458  1.7679
  122OSM   H11B12910   6.611   0.410  10.879  0.6025 -0.4910 -2.5198
  122OSM      P12911   6.738   0.174  10.842  0.5247  0.0015  0.0544
  122OSM    O1312912   6.850   0.079  10.821 -0.3097  0.1028 -0.5233
  122OSM    O1412913   6.625   0.127  10.928  0.1744 -0.5490  0.1203
  122OSM    O1112914   6.674   0.220  10.712  0.0671 -0.1587 -0.0647
  122OSM    O1212915   6.790   0.311  10.909 -0.3315 -0.2159  0.4288
  122OSM    C1S12916   6.754   0.241  10.596  0.0905  0.2029 -0.5317
  122OSM    H1S12917   6.795   0.140  10.574  0.3316  0.0295  0.6736
  122OSM    H1T12918   6.831   0.318  10.615  1.6237 -1.4526  0.0786
  122OSM     NF12919   6.759   0.272  10.357 -0.4763  0.4749  0.2532
  122OSM    HNF12920   6.799   0.353  10.314  0.1556 -0.6570 -1.3589
  122OSM    C2S12921   6.670   0.287  10.475  0.7569 -0.4186  0.6688
  122OSM    H2S12922   6.582   0.222  10.455  1.5227 -2.0619  2.4117
  122OSM    C3S12923   6.609   0.427  10.499  0.0089  0.1588 -0.0866
  122OSM    H3S12924   6.694   0.494  10.525  0.5558 -1.0880  1.4505
  122OSM     O312925   6.503   0.427  10.600  0.3602  0.9791  0.0035
  122OSM    HO312926   6.519   0.341  10.640  0.4772  0.8438 -0.3310
  122OSM    C4S12927   6.539   0.468  10.369  0.4083  0.2611 -0.0647
  122OSM    H4S12928   6.454   0.403  10.345 -1.2414  2.1326  0.6335
  122OSM    C5S12929   6.586   0.553  10.275  0.2758 -0.2059 -0.2450
  122OSM    H5S12930   6.678   0.611  10.289  0.1429 -0.4126  1.6838
  122OSM    C6S12931   6.522   0.575  10.143 -0.0026 -0.2036  0.3683
  122OSM    H6S12932   6.425   0.527  10.119 -0.6730  0.8639  0.9132
  122OSM    H6T12933   6.590   0.534  10.065  2.4597 -1.6096  3.1399
  122OSM    C7S12934   6.500   0.730  10.118  0.4818 -0.2314 -0.3796
  122OSM    H7S12935   6.594   0.785  10.140  1.5955 -1.9596 -0.6637
  122OSM    H7T12936   6.418   0.759  10.186  1.2736  2.1039 -0.3739
  122OSM    C8S12937   6.455   0.755   9.978  0.0883  1.0871  0.0707
  122OSM    H8S12938   6.366   0.700   9.939 -0.2622  3.3033 -2.3948
  122OSM    H8T12939   6.544   0.722   9.921 -0.3711 -2.9452  1.5238
  122OSM    C9S12940   6.423   0.899   9.947 -0.4464 -0.9215  0.2653
  122OSM    H9S12941   6.492   0.970   9.998 -2.0951  0.3194  0.8411
  122OSM    H9T12942   6.319   0.914   9.984 -0.5862 -0.0492 -0.4631
  122OSM   C10S12943   6.433   0.941   9.799 -0.1848  0.2361  0.2142
  122OSM   H10S12944   6.540   0.944   9.769 -0.3211 -1.3471 -0.4909
  122OSM   H10T12945   6.390   1.042   9.782  0.2975  0.5516  0.8644
  122OSM   C11S12946   6.363   0.838   9.700 -0.4720 -0.4068  0.4327
  122OSM   H11S12947   6.254   0.822   9.713 -0.5870 -1.6465 -1.7619
  122OSM   H11T12948   6.417   0.742   9.686 -0.0024  0.0826 -1.2526
  122OSM   C12S12949   6.382   0.897   9.557 -0.0128  0.6085  0.5922
  122OSM   H12S12950   6.490   0.905   9.536 -0.0308 -2.0985 -0.8287
  122OSM   H12T12951   6.337   0.998   9.560 -1.9791 -0.2629  1.8478
  122OSM   C13S12952   6.316   0.808   9.446  1.0140 -0.0347 -0.7060
  122OSM   H13S12953   6.211   0.786   9.475  0.6771 -0.1232 -1.9587
  122OSM   H13T12954   6.368   0.710   9.436 -0.7098 -1.2793  1.9782
  122OSM   C14S12955   6.312   0.888   9.307 -0.5025  0.6412  0.0496
  122OSM   H14S12956   6.278   0.810   9.236  1.0251 -1.6218  1.7141
  122OSM   H14T12957   6.418   0.916   9.291  0.1041 -0.5793  1.7351
  122OSM   C15S12958   6.217   1.012   9.306 -0.0665 -0.2406  0.4010
  122OSM   H15S12959   6.268   1.094   9.362  0.9503 -0.0112 -0.8401
  122OSM   H15T12960   6.124   0.997   9.364 -0.6334 -0.2104 -0.5016
  122OSM   C16S12961   6.174   1.061   9.166 -0.1224 -0.0509  0.0102
  122OSM   H16S12962   6.119   0.976   9.119  1.8006 -0.6995 -1.1125
  122OSM   H16T12963   6.262   1.077   9.101 -0.5690 -0.1216 -0.6125
  122OSM   C17S12964   6.097   1.192   9.176 -0.2283 -0.1575  0.1776
  122OSM   H17S12965   6.176   1.260   9.214  1.3564 -1.7435 -0.2260
  122OSM   H17T12966   6.020   1.186   9.256 -1.0044 -1.5416 -0.6446
  122OSM   C18S12967   6.033   1.242   9.046 -0.1345 -0.1366 -0.1895
  122OSM   H18S12968   6.097   1.231   8.956 -1.2245 -0.9789 -0.8835
  122OSM   H18T12969   6.013   1.351   9.053 -0.7026 -0.3375  1.7230
  122OSM   H18U12970   5.942   1.178   9.037 -1.3384  1.3234  1.2958
  122OSM    C1F12971   6.782   0.155  10.294 -0.3935 -0.4017 -0.6494
  122OSM     OF12972   6.742   0.054  10.349  0.0926  0.2354  0.3673
  122OSM    C2F12973   6.849   0.150  10.159  0.4243 -0.1833  0.1044
  122OSM    H2F12974   6.782   0.084  10.101  0.3281 -2.4029  2.6135
  122OSM    H2G12975   6.953   0.112  10.171  0.2447 -1.1477 -1.3970
  122OSM    C3F12976   6.853   0.283  10.081  0.0721  0.1936  0.3871
  122OSM    H3F12977   6.921   0.361  10.122 -0.1206 -0.3521  1.7588
  122OSM    H3G12978   6.749   0.321  10.072  1.1084  3.7120  2.4857
  122OSM    C4F12979   6.903   0.264   9.938 -0.1641  0.6869  0.4188
  122OSM    H4F12980   6.857   0.172   9.895  1.3774 -1.1183  2.4838
  122OSM    H4G12981   7.009   0.233   9.932 -0.2519  0.2608  1.0082
  122OSM    C5F12982   6.872   0.388   9.851  0.1659 -0.5363  0.5884
  122OSM    H5F12983   6.884   0.489   9.895 -1.8765 -0.1145  0.2365
  122OSM    H5G12984   6.767   0.383   9.816 -0.3864  1.8680  1.7982
  122OSM    C6F12985   6.960   0.394   9.718 -0.2866 -1.0340 -0.4808
  122OSM    H6F12986   7.061   0.425   9.751 -0.5824 -0.2312 -0.3171
  122OSM    H6G12987   6.914   0.476   9.658  0.1426  0.0862  0.7008
  122OSM    C7F12988   6.973   0.258   9.643  0.2843  0.1585  0.1040
  122OSM    H7F12989   6.869   0.222   9.629 -0.3821  1.2273  2.0915
  122OSM    H7G12990   7.025   0.183   9.706 -0.6592 -0.4745  0.1321
  122OSM    C8F12991   7.045   0.263   9.510  0.2497 -0.2581  0.7582
  122OSM    H8F12992   7.028   0.166   9.459  0.2243 -0.1943  0.6471
  122OSM    H8G12993   7.155   0.274   9.526  0.1878 -0.2809  1.1957
  122OSM    C9F12994   6.998   0.375   9.424 -0.2916 -0.2447 -0.1527
  122OSM    H9F12995   7.039   0.473   9.454  1.6990 -0.7326 -1.1784
  122OSM   C10F12996   6.939   0.360   9.303 -0.3444  0.7492  1.0026
  122OSM   H10F12997   6.918   0.449   9.242 -1.1539 -0.2475 -0.1840
  122OSM   C11F12998   6.895   0.235   9.229 -0.4815 -0.3060  0.0884
  122OSM   H11F12999   6.790   0.260   9.202 -0.0892 -0.6797 -1.9235
  122OSM   H11G13000   6.891   0.150   9.301 -1.3626  0.5783  1.0925
  122OSM   C12F13001   6.965   0.201   9.104 -0.0453 -0.5112  0.4883
  122OSM   H12F13002   6.936   0.102   9.064  1.4546 -2.1924  3.3674
  122OSM   H12G13003   7.072   0.192   9.132  0.3699  0.7754 -0.6325
  122OSM   C13F13004   6.934   0.306   8.998  0.5838 -0.0471  0.0083
  122OSM   H13F13005   6.948   0.411   9.030  0.1658 -0.4947  1.7227
  122OSM   H13G13006   6.826   0.291   8.974  0.4276  0.3158  0.4786
  122OSM   C14F13007   7.021   0.292   8.876 -0.3232 -0.2254  0.4227
  122OSM   H14F13008   7.007   0.193   8.826 -1.2525  0.5853 -0.9614
  122OSM   H14G13009   7.130   0.300   8.895 -0.4008  2.6297 -0.1507
  122OSM   C15F13010   6.974   0.387   8.765  0.4769 -0.0855  0.3915
  122OSM   H15F13011   6.877   0.436   8.788  1.0026  1.8870 -1.4823
  122OSM   H15G13012   6.970   0.325   8.673  2.8554 -0.6164  0.6102
  122OSM   C16F13013   7.082   0.489   8.748  0.2067 -0.8189 -0.6175
  122OSM   H16F13014   7.185   0.449   8.732  0.7813  0.3286  0.1992
  122OSM   H16G13015   7.086   0.532   8.850 -3.2957  1.2695 -1.2868
  122OSM   C17F13016   7.049   0.597   8.646 -0.2968  0.3254  0.2618
  122OSM   H17F13017   6.941   0.621   8.656 -0.7148 -0.9475 -1.0463
  122OSM   H17G13018   7.068   0.553   8.546 -1.8890  0.4930 -0.1355
  122OSM   C18F13019   7.129   0.720   8.683 -0.4439  0.0515 -0.1374
  122OSM   H18F13020   7.111   0.755   8.787 -0.4140 -1.9923  0.5944
  122OSM   H18G13021   7.117   0.806   8.614  0.9510  1.6184  1.5334
  122OSM   H18H13022   7.235   0.688   8.674  0.6094  3.3423 -0.0942
  123OSM      N13023   4.241   6.126   5.740 -1.0123 -0.2985  0.1838
  123OSM    C1513024   4.106   6.052   5.748 -0.4963  1.0992  0.0645
  123OSM   H15A13025   4.028   6.125   5.763  1.3718  2.8998  1.2246
  123OSM   H15B13026   4.106   5.994   5.840  2.5701  1.4727  0.3470
  123OSM   H15C13027   4.085   6.001   5.655 -0.5856 -3.2748  2.3196
  123OSM    C1413028   4.350   6.028   5.733  0.1287 -0.3314 -0.1761
  123OSM   H14A13029   4.443   6.067   5.771 -0.6962 -2.3749  4.3803
  123OSM   H14B13030   4.367   5.991   5.633 -1.3892 -0.1059 -0.5357
  123OSM   H14C13031   4.321   5.950   5.802  2.2716 -1.1700 -0.2007
  123OSM    C1313032   4.250   6.211   5.617  0.0536 -0.4331 -0.4523
  123OSM   H13A13033   4.235   6.152   5.528 -0.6149  0.1596 -0.7379
  123OSM   H13B13034   4.348   6.256   5.621  0.6766 -1.6848 -1.4445
  123OSM   H13C13035   4.174   6.287   5.615 -1.4832 -1.9470 -0.6900
  123OSM    C1213036   4.256   6.216   5.861  0.2477 -0.0484  0.2837
  123OSM   H12A13037   4.173   6.284   5.869 -0.0070 -0.1312 -1.3875
  123OSM   H12B13038   4.343   6.278   5.842  1.2331 -1.4237  0.2184
  123OSM    C1113039   4.253   6.143   5.998  0.3685 -0.3064 -0.2338
  123OSM   H11A13040   4.170   6.070   6.007  1.1763 -1.5701 -2.5738
  123OSM   H11B13041   4.245   6.223   6.074 -0.4575 -0.0745 -0.5625
  123OSM      P13042   4.491   6.123   6.090  0.1051 -0.0776 -0.1501
  123OSM    O1313043   4.591   6.017   6.079  0.1160  0.1642  0.1023
  123OSM    O1413044   4.532   6.239   6.008  0.3860  0.3423 -0.2920
  123OSM    O1113045   4.449   6.159   6.242  0.3090 -0.0937  0.2100
  123OSM    O1213046   4.367   6.063   6.017  0.2461 -0.0569 -0.7554
  123OSM    C1S13047   4.361   6.081   6.319 -0.5614  0.7033 -0.3900
  123OSM    H1S13048   4.348   5.979   6.277 -1.8306  0.7299 -0.0806
  123OSM    H1T13049   4.255   6.116   6.322 -0.6966  0.4045 -1.3889
  123OSM     NF13050   4.312   6.000   6.539 -0.3900 -0.0135  0.0158
  123OSM    HNF13051   4.228   6.040   6.575  0.5796  1.5751  0.5896
  123OSM    C2S13052   4.403   6.083   6.468 -0.4251 -0.4083  0.2099
  123OSM    H2S13053   4.505   6.038   6.467 -0.2180  0.0456 -1.8050
  123OSM    C3S13054   4.401   6.225   6.519 -0.3172 -0.2568 -0.3648
  123OSM    H3S13055   4.294   6.253   6.522 -0.4997 -1.0776  2.8517
  123OSM     O313056   4.458   6.321   6.434 -0.0842 -0.2506  0.5483
  123OSM    HO313057   4.472   6.276   6.350  0.1840 -1.8657  1.4370
  123OSM    C4S13058   4.468   6.252   6.653 -0.2570 -0.0043  0.0143
  123OSM    H4S13059   4.409   6.324   6.711 -0.1174  0.8864 -0.9440
  123OSM    C5S13060   4.599   6.231   6.690 -0.6465  0.8875  1.1728
  123OSM    H5S13061   4.664   6.178   6.619 -0.2841  2.9930 -0.1211
  123OSM    C6S13062   4.658   6.256   6.821 -0.0759  0.7405 -0.2099
  123OSM    H6S13063   4.599   6.299   6.904 -0.5240  0.7327 -0.5220
  123OSM    H6T13064   4.742   6.327   6.806  0.7915  0.2678  2.3216
  123OSM    C7S13065   4.731   6.131   6.882 -0.2631  0.2180 -0.0709
  123OSM    H7S13066   4.791   6.066   6.814 -0.1419  0.6360 -0.3604
  123OSM    H7T13067   4.651   6.063   6.920  2.4130 -1.8531  2.1301
  123OSM    C8S13068   4.825   6.156   6.996  0.1839 -0.0364  1.0155
  123OSM    H8S13069   4.832   6.070   7.066  1.1813 -0.3026  0.5844
  123OSM    H8T13070   4.779   6.239   7.055 -0.0038  0.0249  0.7830
  123OSM    C9S13071   4.968   6.206   6.956  0.1362 -0.5065  0.1764
  123OSM    H9S13072   4.966   6.304   6.905 -0.4062 -0.0795  1.0116
  123OSM    H9T13073   4.995   6.126   6.884 -0.1274  0.4467 -0.9958
  123OSM   C10S13074   5.073   6.200   7.070 -0.5737 -0.7132 -0.9658
  123OSM   H10S13075   5.177   6.213   7.035  0.0859  1.3702  1.5378
  123OSM   H10T13076   5.067   6.099   7.116 -0.0623 -0.9592 -1.4394
  123OSM   C11S13077   5.052   6.302   7.186  0.1163  0.3472  0.4659
  123OSM   H11S13078   4.962   6.274   7.246 -1.1506 -1.2440 -2.1056
  123OSM   H11T13079   5.043   6.406   7.149  0.9047  0.0771 -0.4878
  123OSM   C12S13080   5.172   6.307   7.280 -0.5142  0.3088  0.0253
  123OSM   H12S13081   5.169   6.412   7.317 -1.7904  0.8264 -1.5058
  123OSM   H12T13082   5.267   6.299   7.223 -0.5265  2.2108 -0.2845
  123OSM   C13S13083   5.176   6.201   7.397  0.4457  0.2402  0.3631
  123OSM   H13S13084   5.282   6.189   7.427  1.6258  0.0605 -3.5565
  123OSM   H13T13085   5.136   6.106   7.356 -1.5566  1.5441 -0.7920
  123OSM   C14S13086   5.093   6.250   7.518  0.0046  0.0906  0.4967
  123OSM   H14S13087   4.983   6.247   7.502  0.2468 -0.0978 -1.1748
  123OSM   H14T13088   5.107   6.360   7.528 -1.2748  0.3499 -0.3947
  123OSM   C15S13089   5.133   6.185   7.651  0.4731  0.0224 -0.1612
  123OSM   H15S13090   5.149   6.077   7.634 -1.8098 -0.2793 -0.5097
  123OSM   H15T13091   5.057   6.215   7.726  0.5096 -1.3602  0.4338
  123OSM   C16S13092   5.277   6.243   7.682 -0.2024  0.2493 -0.1465
  123OSM   H16S13093   5.276   6.353   7.666  0.0968  0.0388 -1.7686
  123OSM   H16T13094   5.351   6.196   7.613 -0.1976 -0.2330  0.1875
  123OSM   C17S13095   5.309   6.223   7.832  0.1310 -0.9217  0.2518
  123OSM   H17S13096   5.328   6.115   7.853  2.3990 -0.2459  1.8870
  123OSM   H17T13097   5.219   6.259   7.884 -0.0942  1.6596 -1.8173
  123OSM   C18S13098   5.434   6.299   7.876 -0.0228  0.9929 -0.4865
  123OSM   H18S13099   5.507   6.268   7.799 -0.1304  2.3833 -1.1557
  123OSM   H18T13100   5.478   6.269   7.974 -2.6559  1.2460  0.7975
  123OSM   H18U13101   5.438   6.410   7.878  0.9972  0.9558  2.2967
  123OSM    C1F13102   4.311   5.865   6.529 -0.0246 -1.3191  0.5589
  123OSM     OF13103   4.389   5.803   6.454 -0.4535  0.4757  0.1098
  123OSM    C2F13104   4.203   5.800   6.603 -1.1300 -0.3854 -0.5437
  123OSM    H2F13105   4.207   5.693   6.571  1.4808 -0.4320 -0.1779
  123OSM    H2G13106   4.100   5.833   6.580 -0.7487  1.1301 -0.1101
  123OSM    C3F13107   4.232   5.810   6.754  0.5857  1.0489 -0.2114
  123OSM    H3F13108   4.306   5.889   6.780  1.3943 -0.8004  3.4374
  123OSM    H3G13109   4.273   5.713   6.790 -0.0198  0.6781 -0.5120
  123OSM    C4F13110   4.111   5.855   6.849  0.3319  0.3499  0.0443
  123OSM    H4F13111   4.018   5.800   6.824 -0.0904  0.9208  0.3444
  123OSM    H4G13112   4.081   5.960   6.829 -0.1128 -0.3476 -3.2228
  123OSM    C5F13113   4.140   5.839   6.999 -0.2479  0.8721 -0.1852
  123OSM    H5F13114   4.181   5.739   7.027 -0.0501  1.1221  0.4094
  123OSM    H5G13115   4.044   5.857   7.050  0.8668 -0.1366  2.3439
  123OSM    C6F13116   4.236   5.949   7.055 -0.0661  0.2253 -0.3860
  123OSM    H6F13117   4.172   6.039   7.072  0.7732  1.3530 -2.9244
  123OSM    H6G13118   4.318   5.973   6.984  1.5564 -2.3601  0.5249
  123OSM    C7F13119   4.297   5.917   7.198  0.1785  0.3374 -0.5850
  123OSM    H7F13120   4.367   5.831   7.192 -0.4644 -0.1117 -1.5603
  123OSM    H7G13121   4.204   5.892   7.252  0.4477  2.1906  0.8282
  123OSM    C8F13122   4.359   6.037   7.276 -0.1696  0.5438  0.8112
  123OSM    H8F13123   4.377   6.019   7.384  0.3122 -0.0126  0.6422
  123OSM    H8G13124   4.288   6.122   7.267 -2.1241 -1.1072  0.2202
  123OSM    C9F13125   4.490   6.082   7.211  0.1834  1.1111  0.0982
  123OSM    H9F13126   4.474   6.111   7.106 -0.3510  2.1938  0.4670
  123OSM   C10F13127   4.608   6.100   7.275 -0.5377 -0.5496  0.5664
  123OSM   H10F13128   4.688   6.161   7.231 -0.7309 -1.3169 -0.9032
  123OSM   C11F13129   4.641   6.064   7.416 -0.3033  0.7692  0.1738
  123OSM   H11F13130   4.750   6.041   7.425 -0.1311  1.1384 -0.8350
  123OSM   H11G13131   4.593   5.969   7.447  1.9643  0.1548  1.9642
  123OSM   C12F13132   4.618   6.172   7.522  0.0025  0.4249  0.2292
  123OSM   H12F13133   4.507   6.178   7.527  0.0773  1.0256  1.2614
  123OSM   H12G13134   4.673   6.264   7.494  3.0909 -1.2460  0.5710
  123OSM   C13F13135   4.656   6.133   7.662  0.5793 -0.6757 -0.2858
  123OSM   H13F13136   4.767   6.132   7.671  0.5355 -1.8264  0.2109
  123OSM   H13G13137   4.622   6.030   7.683 -0.5760 -0.3582 -0.5560
  123OSM   C14F13138   4.590   6.212   7.774 -0.3597 -0.2627  0.4290
  123OSM   H14F13139   4.481   6.210   7.755 -0.0809  0.0183 -1.2288
  123OSM   H14G13140   4.636   6.313   7.771 -1.0182 -0.0003 -1.1720
  123OSM   C15F13141   4.631   6.153   7.913 -0.0327  0.2141 -0.2273
  123OSM   H15F13142   4.612   6.045   7.929  1.3965  0.0910  0.7065
  123OSM   H15G13143   4.573   6.204   7.992 -2.0979 -3.3646  0.6792
  123OSM   C16F13144   4.781   6.173   7.956  0.2690 -0.9132 -0.3552
  123OSM   H16F13145   4.808   6.279   7.971 -1.8249 -0.5936  1.5105
  123OSM   H16G13146   4.837   6.144   7.864  0.4936  0.4651 -0.6531
  123OSM   C17F13147   4.823   6.103   8.084 -0.0572 -0.1702 -0.4562
  123OSM   H17F13148   4.782   6.000   8.069  1.4437 -0.8552  0.0358
  123OSM   H17G13149   4.782   6.167   8.165  0.5488  0.6613 -0.8128
  123OSM   C18F13150   4.969   6.091   8.097  0.8687 -0.5729 -0.2712
  123OSM   H18F13151   5.002   6.012   8.169 -0.3980 -0.4919  0.4103
  123OSM   H18G13152   5.027   6.185   8.110 -0.0013  0.0730 -1.0012
  123OSM   H18H13153   5.006   6.064   7.996 -1.7920 -0.7725 -1.2161
  124OSM      N13154   0.167   3.950   6.135  0.5736 -0.8138 -0.3468
  124OSM    C1513155   0.193   3.803   6.109 -0.5269  0.2078 -0.5250
  124OSM   H15A13156   0.105   3.741   6.110 -0.4719  0.1244  1.4835
  124OSM   H15B13157   0.267   3.765   6.177 -1.9088 -2.0839 -0.2602
  124OSM   H15C13158   0.227   3.791   6.007  0.1022  0.0888 -0.2995
  124OSM    C1413159   0.293   4.033   6.107 -0.4800  0.0035 -0.1523
  124OSM   H14A13160   0.303   4.039   5.999  0.3487 -1.5609 -0.1742
  124OSM   H14B13161   0.376   3.974   6.141 -0.6189  0.5678  1.1769
  124OSM   H14C13162   0.298   4.129   6.155  1.7710 -2.3503  4.6255
  124OSM    C1313163   0.049   3.993   6.039 -0.0419  0.3340  0.0799
  124OSM   H13A13164  -0.044   3.953   6.077  0.1248 -0.5086 -0.3771
  124OSM   H13B13165   0.061   3.953   5.939  0.6344 -0.3003  0.4180
  124OSM   H13C13166   0.034   4.100   6.037  1.2441  0.6040  2.7849
  124OSM    C1213167   0.108   3.967   6.268  0.1859 -1.3415 -0.2463
  124OSM   H12A13168   0.028   3.896   6.275 -0.5042 -0.7234 -1.5344
  124OSM   H12B13169   0.057   4.062   6.280  1.8830 -0.5752  1.2457
  124OSM    C1113170   0.197   3.948   6.393 -0.2488 -0.4832  0.4752
  124OSM   H11A13171   0.136   3.993   6.474  0.2756 -1.1939  1.2685
  124OSM   H11B13172   0.286   4.014   6.392 -0.0948 -0.6816  0.8931
  124OSM      P13173   0.144   3.702   6.465 -0.0810  0.9537 -0.1339
  124OSM    O1313174   0.014   3.698   6.398 -0.2515  0.1722 -0.1518
  124OSM    O1413175   0.219   3.573   6.471 -0.5629  0.0317  0.0628
  124OSM    O1113176   0.120   3.774   6.605 -0.4550 -0.3561  0.0017
  124OSM    O1213177   0.237   3.811   6.396  0.0284  0.2553  0.5053
  124OSM    C1S13178   0.234   3.792   6.689  0.1040 -0.6292 -0.1634
  124OSM    H1S13179   0.292   3.876   6.646 -0.4422 -0.3637 -0.3892
  124OSM    H1T13180   0.298   3.702   6.678 -0.3784 -0.6696 -2.8481
  124OSM     NF13181   0.333   3.831   6.914 -0.3097 -0.1229  0.8062
  124OSM    HNF13182   0.363   3.752   6.968  0.0078  1.3642  2.9007
  124OSM    C2S13183   0.206   3.812   6.841 -0.3692 -0.1171 -0.1255
  124OSM    H2S13184   0.134   3.896   6.850 -0.5571 -0.0025 -2.4147
  124OSM    C3S13185   0.122   3.693   6.891  0.4359 -0.4119  0.4263
  124OSM    H3S13186   0.181   3.599   6.885 -0.1846 -0.7246 -1.0074
  124OSM     O313187   0.008   3.667   6.816  0.1874  0.5051  0.2092
  124OSM    HO313188   0.009   3.724   6.739  0.5755 -2.3189 -1.9536
  124OSM    C4S13189   0.087   3.708   7.034  0.3678  0.7693 -0.1869
  124OSM    H4S13190   0.149   3.654   7.107  3.5313  0.9772 -2.6208
  124OSM    C5S13191  -0.016   3.776   7.092 -0.8153  0.6098  0.2568
  124OSM    H5S13192  -0.074   3.826   7.013 -0.5904  0.7220  0.1653
  124OSM    C6S13193  -0.057   3.774   7.238 -0.4449  0.2787 -0.0191
  124OSM    H6S13194  -0.166   3.751   7.246 -0.2458 -0.6011  0.2616
  124OSM    H6T13195  -0.045   3.872   7.289  1.0962  0.6358 -1.0470
  124OSM    C7S13196   0.015   3.679   7.333 -0.3672  0.9125  0.1553
  124OSM    H7S13197   0.123   3.701   7.315 -0.3429  1.3679  0.8391
  124OSM    H7T13198  -0.010   3.574   7.306  2.3646  0.3336 -0.3658
  124OSM    C8S13199  -0.025   3.699   7.480  0.1281  0.4447 -0.5347
  124OSM    H8S13200  -0.132   3.673   7.486 -0.3091  1.9776 -1.3201
  124OSM    H8T13201  -0.002   3.806   7.502 -0.1323  0.1740  1.0993
  124OSM    C9S13202   0.056   3.611   7.574 -0.2862 -0.1059 -0.7711
  124OSM    H9S13203   0.165   3.635   7.572  0.3606 -2.8979 -1.3016
  124OSM    H9T13204   0.048   3.503   7.550 -0.0922 -0.1026 -0.8507
  124OSM   C10S13205   0.025   3.630   7.728  0.1259 -0.0013 -0.1818
  124OSM   H10S13206  -0.054   3.555   7.750 -1.5217  1.3653 -1.2281
  124OSM   H10T13207  -0.011   3.731   7.757  1.4026  0.7599 -1.2129
  124OSM   C11S13208   0.141   3.613   7.819 -0.3322  0.5156  0.5415
  124OSM   H11S13209   0.215   3.691   7.793 -0.8495  0.8594  0.0791
  124OSM   H11T13210   0.183   3.512   7.797 -0.0073  0.7568  0.0492
  124OSM   C12S13211   0.091   3.631   7.962 -0.6555 -0.0971 -0.3822
  124OSM   H12S13212   0.020   3.547   7.979  0.2881 -1.1476 -1.5468
  124OSM   H12T13213   0.040   3.729   7.974 -0.0273  0.1490  0.3130
  124OSM   C13S13214   0.204   3.622   8.058 -0.6806  0.2005 -0.4897
  124OSM   H13S13215   0.276   3.704   8.039  0.5895 -0.9417 -0.6963
  124OSM   H13T13216   0.260   3.527   8.055 -2.4414 -0.9033  0.3872
  124OSM   C14S13217   0.148   3.642   8.202 -0.4193 -0.4597  0.2688
  124OSM   H14S13218   0.113   3.540   8.230  2.9461 -1.3621  1.4577
  124OSM   H14T13219   0.070   3.721   8.205  0.0242 -0.0693  1.5188
  124OSM   C15S13220   0.266   3.683   8.296  1.0354  0.2239  0.4647
  124OSM   H15S13221   0.240   3.693   8.404  1.6348  0.7012  0.5653
  124OSM   H15T13222   0.297   3.785   8.267  0.7057  0.9003  2.4249
  124OSM   C16S13223   0.380   3.581   8.287  0.9296 -0.6011 -0.7120
  124OSM   H16S13224   0.438   3.597   8.194  0.9065  1.5719 -0.3733
  124OSM   H16T13225   0.347   3.475   8.294 -1.9032  0.3889  1.7761
  124OSM   C17S13226   0.482   3.608   8.403 -0.5889  0.3082 -0.5725
  124OSM   H17S13227   0.559   3.529   8.388  1.1819  1.6157  1.3520
  124OSM   H17T13228   0.429   3.584   8.498  1.1520 -1.0472  0.0775
  124OSM   C18S13229   0.545   3.743   8.399  0.1021  0.1505 -0.4241
  124OSM   H18S13230   0.584   3.762   8.296  0.8012  1.0141 -0.0135
  124OSM   H18T13231   0.634   3.749   8.466  1.5755 -1.7571 -2.1309
  124OSM   H18U13232   0.467   3.814   8.434  0.9805  0.7995  0.2453
  124OSM    C1F13233   0.420   3.931   6.898 -0.3772  0.0488 -0.2699
  124OSM     OF13234   0.397   4.023   6.828 -0.0840  0.6009 -0.8563
  124OSM    C2F13235   0.552   3.919   6.978 -0.2327 -0.2644  0.1617
  124OSM    H2F13236   0.635   3.888   6.912  0.7451  2.9641 -0.2213
  124OSM    H2G13237   0.528   3.847   7.059  0.2452  1.8743  2.2725
  124OSM    C3F13238   0.600   4.054   7.032 -0.0187  0.0674  0.1792
  124OSM    H3F13239   0.523   4.112   7.086  0.1313  1.2366 -0.8494
  124OSM    H3G13240   0.621   4.124   6.949 -0.1463 -0.5351 -0.3588
  124OSM    C4F13241   0.724   4.044   7.115 -0.0005 -0.3955  0.5992
  124OSM    H4F13242   0.778   4.141   7.114  3.1764 -2.0707  1.7205
  124OSM    H4G13243   0.787   3.972   7.059 -1.1192 -0.9121 -0.0067
  124OSM    C5F13244   0.703   4.003   7.258 -0.6084  0.4357  0.4828
  124OSM    H5F13245   0.658   3.902   7.263  0.0643  0.0821 -0.3776
  124OSM    H5G13246   0.619   4.062   7.299 -0.4896  0.0964  1.2175
  124OSM    C6F13247   0.817   4.015   7.355  0.5169 -0.2035  0.6297
  124OSM    H6F13248   0.767   3.993   7.452 -0.3940  0.9996  0.4378
  124OSM    H6G13249   0.854   4.120   7.354 -0.6499  0.2139  0.1163
  124OSM    C7F13250   0.945   3.937   7.327 -0.1350 -0.3974  0.2686
  124OSM    H7F13251   0.998   3.974   7.236 -0.7746  0.5181  0.2557
  124OSM    H7G13252   0.932   3.828   7.307  2.0979 -0.8209  1.0269
  124OSM    C8F13253   1.045   3.936   7.443 -0.2341 -0.8307 -0.3172
  124OSM    H8F13254   1.143   3.890   7.417 -0.7814 -1.8860 -0.5391
  124OSM    H8G13255   1.001   3.858   7.507 -0.1986 -0.1769  0.5137
  124OSM    C9F13256   1.077   4.069   7.514 -0.2134  0.4332  0.5722
  124OSM    H9F13257   1.117   4.151   7.453 -0.1723 -0.4264 -0.5771
  124OSM   C10F13258   1.063   4.101   7.649  0.6087 -0.5382  0.1205
  124OSM   H10F13259   1.091   4.201   7.686 -0.3666  0.1806 -1.0559
  124OSM   C11F13260   1.014   4.002   7.752 -0.1847 -0.7742 -0.0941
  124OSM   H11F13261   0.949   3.924   7.707 -0.5925  1.3932 -3.4501
  124OSM   H11G13262   0.946   4.049   7.826  0.9390  0.5775  0.0867
  124OSM   C12F13263   1.136   3.954   7.839  0.4182 -0.3800  0.4470
  124OSM   H12F13264   1.193   4.044   7.869 -0.2247  0.5665 -1.0821
  124OSM   H12G13265   1.204   3.893   7.775  0.5683  0.9361 -0.6765
  124OSM   C13F13266   1.101   3.878   7.964 -0.0134  0.5115 -0.0562
  124OSM   H13F13267   1.195   3.862   8.021  0.1666 -1.0375 -0.7644
  124OSM   H13G13268   1.066   3.779   7.929 -0.1824  0.9228 -1.0711
  124OSM   C14F13269   1.000   3.951   8.050  0.4952  0.4768  0.3128
  124OSM   H14F13270   0.912   3.998   8.001  1.5060 -1.3180 -3.4870
  124OSM   H14G13271   1.042   4.039   8.104  1.2422 -0.5216  1.3643
  124OSM   C15F13272   0.938   3.853   8.155  0.6523 -0.4299 -0.4408
  124OSM   H15F13273   1.021   3.785   8.182  0.7061  0.3852  1.4949
  124OSM   H15G13274   0.852   3.801   8.108  2.1516 -1.5399 -2.0236
  124OSM   C16F13275   0.871   3.914   8.286  0.1048 -0.5004 -0.3896
  124OSM   H16F13276   0.849   3.822   8.345  2.5310 -0.8115  0.0552
  124OSM   H16G13277   0.786   3.969   8.240 -0.8553 -0.7993  0.9868
  124OSM   C17F13278   0.951   4.016   8.369 -0.3588  0.7493 -0.1058
  124OSM   H17F13279   0.980   4.111   8.318  0.7642  0.0790 -0.7312
  124OSM   H17G13280   1.052   3.972   8.382 -0.2471  0.6166 -1.3654
  124OSM   C18F13281   0.901   4.058   8.510  0.4249 -0.9435  0.1869
  124OSM   H18F13282   0.870   3.963   8.558  0.8655 -1.4994 -0.6033
  124OSM   H18G13283   0.807   4.110   8.484  0.6866 -0.4230  0.2883
  124OSM   H18H13284   0.973   4.113   8.574 -0.5590 -1.6666  1.9245
  125OSM      N13285   6.703   5.164   6.392  0.3625  0.0146 -0.2933
  125OSM    C1513286   6.710   5.274   6.501 -0.2472  0.5223  0.1497
  125OSM   H15A13287   6.794   5.245   6.562  0.9212  2.8485 -0.2656
  125OSM   H15B13288   6.621   5.282   6.562 -0.7059  2.6698 -0.7407
  125OSM   H15C13289   6.718   5.369   6.449 -2.6015  0.7557  0.1477
  125OSM    C1413290   6.670   5.032   6.454 -0.3003 -0.1236  0.2977
  125OSM   H14A13291   6.578   5.024   6.509 -0.0653 -0.6640  0.6095
  125OSM   H14B13292   6.754   4.998   6.512  0.9443  0.8511 -0.9025
  125OSM   H14C13293   6.657   4.957   6.377 -1.9290  1.0728 -0.6250
  125OSM    C1313294   6.599   5.207   6.287 -0.1825  0.5883 -0.4918
  125OSM   H13A13295   6.514   5.257   6.332 -1.0110  0.5152 -1.9467
  125OSM   H13B13296   6.563   5.122   6.230  2.4665 -0.9500  0.0224
  125OSM   H13C13297   6.654   5.275   6.224 -0.1642  0.7170 -0.3384
  125OSM    C1213298   6.836   5.156   6.312 -0.0016 -0.0834  0.5197
  125OSM   H12A13299   6.855   5.250   6.262  0.6917 -1.9184 -2.8256
  125OSM   H12B13300   6.821   5.093   6.226  3.7389  0.2969 -0.4875
  125OSM    C1113301   6.962   5.100   6.381  0.1501 -0.2596 -0.3068
  125OSM   H11A13302   7.033   5.077   6.298  1.8705 -2.1089  1.5913
  125OSM   H11B13303   6.946   5.003   6.433  1.6017  0.4625  1.5672
  125OSM      P13304   7.133   5.286   6.427 -0.4511  0.1392 -0.2095
  125OSM    O1313305   7.127   5.322   6.284 -0.5626 -0.3786 -0.0960
  125OSM    O1413306   7.138   5.403   6.515 -0.0153 -0.1006 -0.2517
  125OSM    O1113307   7.244   5.173   6.452  0.1925 -0.3281  0.0815
  125OSM    O1213308   7.009   5.202   6.470  0.2486 -1.0994 -0.0306
  125OSM    C1S13309   7.304   5.165   6.584 -0.2781  0.8960  0.0217
  125OSM    H1S13310   7.291   5.252   6.652 -3.1145 -0.0307  0.7225
  125OSM    H1T13311   7.408   5.128   6.571  0.9431  3.5949  1.6205
  125OSM     NF13312   7.289   5.039   6.794  0.0244 -0.4133  0.0591
  125OSM    HNF13313   7.360   4.973   6.819  1.6329  1.1154 -0.3116
  125OSM    C2S13314   7.246   5.046   6.658 -0.0914  0.2247  0.3855
  125OSM    H2S13315   7.138   5.067   6.665  0.1777  1.9106 -0.3785
  125OSM    C3S13316   7.261   4.919   6.574 -0.0724  0.9577  0.2787
  125OSM    H3S13317   7.370   4.898   6.566 -0.5998 -1.7393 -0.5830
  125OSM     O313318   7.202   4.915   6.444  0.0948  0.0682  0.4774
  125OSM    HO313319   7.187   5.008   6.423  1.2641  0.0273 -0.6081
  125OSM    C4S13320   7.205   4.801   6.653 -0.0241 -0.4497  0.4744
  125OSM    H4S13321   7.272   4.750   6.723  2.7987  0.1613 -1.6874
  125OSM    C5S13322   7.073   4.755   6.660  0.3197 -0.5065  0.2450
  125OSM    H5S13323   7.004   4.813   6.596 -0.9780  0.1115  2.1485
  125OSM    C6S13324   7.017   4.646   6.745 -0.4596  0.8421 -0.4446
  125OSM    H6S13325   7.092   4.563   6.745 -0.3120  0.8866  4.2134
  125OSM    H6T13326   6.919   4.618   6.702  0.5567 -0.9450 -1.7099
  125OSM    C7S13327   6.984   4.701   6.886 -0.2610 -0.1671 -0.3106
  125OSM    H7S13328   6.912   4.783   6.867 -1.1514 -1.1920 -1.4029
  125OSM    H7T13329   7.076   4.749   6.926 -0.8043 -0.3036  1.1316
  125OSM    C8S13330   6.913   4.598   6.975  0.3574 -0.1424  0.3739
  125OSM    H8S13331   6.981   4.537   7.038  1.7791 -0.1828 -1.1660
  125OSM    H8T13332   6.861   4.526   6.907  1.3947  0.0373 -0.6223
  125OSM    C9S13333   6.823   4.649   7.086  0.3426 -0.2721  0.5246
  125OSM    H9S13334   6.747   4.716   7.040  0.6790 -1.4495 -1.7838
  125OSM    H9T13335   6.879   4.710   7.161 -0.3794  0.2724  0.6291
  125OSM   C10S13336   6.764   4.534   7.175  0.1313 -0.0509  0.1220
  125OSM   H10S13337   6.848   4.485   7.229  3.3081  3.0170 -1.8473
  125OSM   H10T13338   6.724   4.446   7.120 -0.2924  0.5668 -0.5606
  125OSM   C11S13339   6.647   4.589   7.267  0.0258  0.5290 -0.4198
  125OSM   H11S13340   6.574   4.648   7.208 -2.0013 -1.0400  0.4700
  125OSM   H11T13341   6.696   4.663   7.333  3.2799 -2.5176  0.7540
  125OSM   C12S13342   6.574   4.486   7.348 -0.0082  0.2683 -0.2142
  125OSM   H12S13343   6.553   4.402   7.279  2.2988  0.0972 -0.7568
  125OSM   H12T13344   6.480   4.533   7.383 -1.4967 -1.3336 -1.9661
  125OSM   C13S13345   6.643   4.430   7.480 -0.6190 -0.4660 -0.6951
  125OSM   H13S13346   6.563   4.373   7.532 -0.8882  0.8740  0.4131
  125OSM   H13T13347   6.665   4.510   7.554 -1.8051 -0.6972 -0.0698
  125OSM   C14S13348   6.766   4.339   7.472  0.2199  0.4372 -0.4687
  125OSM   H14S13349   6.857   4.402   7.464  2.7612 -2.8444  1.5462
  125OSM   H14T13350   6.757   4.280   7.378 -1.0521  1.2230 -0.8670
  125OSM   C15S13351   6.771   4.242   7.589 -0.1738 -0.7836  0.1908
  125OSM   H15S13352   6.846   4.162   7.570  0.9445 -0.0215  1.3227
  125OSM   H15T13353   6.675   4.198   7.621 -1.1490  2.5710  2.0741
  125OSM   C16S13354   6.805   4.314   7.729  0.3224 -0.0025  0.3723
  125OSM   H16S13355   6.734   4.396   7.749 -1.2028 -1.7793  2.5094
  125OSM   H16T13356   6.908   4.355   7.723 -0.2773  1.3102 -1.2057
  125OSM   C17S13357   6.787   4.208   7.845  0.5635 -0.8398  0.9991
  125OSM   H17S13358   6.680   4.190   7.868  0.2088  1.0787  0.9557
  125OSM   H17T13359   6.843   4.256   7.929  1.4581  0.1899 -0.1643
  125OSM   C18S13360   6.863   4.083   7.825 -0.4907  0.7413  0.0704
  125OSM   H18S13361   6.854   4.023   7.917  0.4367  1.9054  0.9365
  125OSM   H18T13362   6.970   4.093   7.795 -0.0214 -2.7404  0.3643
  125OSM   H18U13363   6.817   4.020   7.746  0.3983 -0.4104  0.4663
  125OSM    C1F13364   7.233   5.116   6.888  0.1077  0.6718 -0.2308
  125OSM     OF13365   7.126   5.169   6.865 -0.2474 -0.5359 -0.5107
  125OSM    C2F13366   7.291   5.118   7.021  0.2075 -0.1630  0.0342
  125OSM    H2F13367   7.340   5.218   7.031 -1.0886  0.5849 -1.0341
  125OSM    H2G13368   7.362   5.033   7.032 -0.8998 -1.0812  0.1158
  125OSM    C3F13369   7.190   5.091   7.141  0.5508  0.5054  0.3677
  125OSM    H3F13370   7.133   4.995   7.143 -0.4279  1.0837  0.3564
  125OSM    H3G13371   7.105   5.161   7.128  0.4565  0.5406  1.1457
  125OSM    C4F13372   7.258   5.107   7.275  0.2726  0.0682 -0.2782
  125OSM    H4F13373   7.326   5.195   7.275 -0.9922  1.0616 -2.1912
  125OSM    H4G13374   7.317   5.014   7.293  3.9210  2.3536  0.0754
  125OSM    C5F13375   7.172   5.098   7.402  1.6175  0.5171  0.8220
  125OSM    H5F13376   7.108   5.008   7.388  0.9443  1.4871 -2.9854
  125OSM    H5G13377   7.103   5.185   7.404  2.3674  1.3368 -3.4787
  125OSM    C6F13378   7.245   5.094   7.544  0.4068  0.5639  0.3644
  125OSM    H6F13379   7.302   5.189   7.550 -0.5855  0.9931  3.6998
  125OSM    H6G13380   7.305   5.000   7.553 -0.7684 -0.1158  1.0797
  125OSM    C7F13381   7.158   5.073   7.669  0.4686 -0.9680 -0.0808
  125OSM    H7F13382   7.122   4.968   7.663  0.2811 -0.7472 -3.3942
  125OSM    H7G13383   7.068   5.137   7.669  0.3507 -1.0208  3.3425
  125OSM    C8F13384   7.240   5.110   7.797 -0.2577 -0.1908  0.6384
  125OSM    H8F13385   7.168   5.140   7.877  0.9898 -0.4991  1.8913
  125OSM    H8G13386   7.300   5.200   7.770 -2.3101  0.5878 -1.5339
  125OSM    C9F13387   7.337   4.999   7.838 -0.2800  0.1387 -0.4735
  125OSM    H9F13388   7.382   4.940   7.757  1.4977 -0.6435  1.0543
  125OSM   C10F13389   7.371   4.957   7.967 -0.2097 -0.5440  0.0280
  125OSM   H10F13390   7.447   4.878   7.980  1.1197  0.7862  0.5261
  125OSM   C11F13391   7.326   5.019   8.100  0.8403 -0.2666  0.2815
  125OSM   H11F13392   7.235   5.083   8.095  2.3005  1.9570  1.7105
  125OSM   H11G13393   7.408   5.084   8.137 -1.3411  1.7299  1.7126
  125OSM   C12F13394   7.275   4.913   8.206 -0.5917 -0.4373  0.2172
  125OSM   H12F13395   7.342   4.826   8.220  0.5629  0.5388  0.8709
  125OSM   H12G13396   7.181   4.884   8.155  0.2067  0.9382 -2.1497
  125OSM   C13F13397   7.242   4.976   8.344  0.1871  0.0242 -0.3479
  125OSM   H13F13398   7.187   5.073   8.340 -1.0138 -0.6737 -1.1787
  125OSM   H13G13399   7.343   4.999   8.382 -0.2453  0.2246  0.6841
  125OSM   C14F13400   7.147   4.892   8.431  0.5839 -0.4144  0.3203
  125OSM   H14F13401   7.050   4.891   8.376  1.3045  2.4162 -1.1175
  125OSM   H14G13402   7.138   4.942   8.530 -0.3777  1.1365 -0.5309
  125OSM   C15F13403   7.186   4.746   8.459 -0.3425 -0.8476  0.0233
  125OSM   H15F13404   7.294   4.743   8.485 -0.7455 -2.6762  1.6654
  125OSM   H15G13405   7.187   4.679   8.371  0.1202 -1.0021  0.1427
  125OSM   C16F13406   7.101   4.689   8.582 -0.2726 -0.0977 -0.1956
  125OSM   H16F13407   6.994   4.676   8.558 -0.0684 -1.1323 -0.5530
  125OSM   H16G13408   7.106   4.760   8.668  1.0015  1.3785 -1.4509
  125OSM   C17F13409   7.144   4.547   8.638  0.7609  0.5034 -0.4591
  125OSM   H17F13410   7.154   4.468   8.561 -2.7105 -0.3428 -0.0901
  125OSM   H17G13411   7.062   4.517   8.706 -1.2250 -0.4555 -3.2011
  125OSM   C18F13412   7.275   4.557   8.715 -0.2038  0.1513  0.1834
  125OSM   H18F13413   7.292   4.644   8.781  0.8989  0.1343 -0.0793
  125OSM   H18G13414   7.360   4.565   8.646  0.4182  1.9353  1.1354
  125OSM   H18H13415   7.283   4.463   8.775  1.0395 -0.8113 -1.4807
  126OSM      N13416   4.912   5.064   6.342  0.4097  0.9542  0.2555
  126OSM    C1513417   4.908   5.169   6.246 -0.0327  0.6841  0.2354
  126OSM   H15A13418   4.974   5.145   6.164 -2.0517 -1.2483 -0.8894
  126OSM   H15B13419   4.937   5.261   6.295 -0.5811  0.5304  0.8489
  126OSM   H15C13420   4.808   5.180   6.205  1.0831  2.7036 -2.0768
  126OSM    C1413421   4.926   4.931   6.270  0.5573  0.2675  0.3139
  126OSM   H14A13422   5.017   4.926   6.212 -0.7056  1.3166 -1.8069
  126OSM   H14B13423   4.847   4.907   6.201 -1.5260  3.0336  1.6233
  126OSM   H14C13424   4.932   4.851   6.342  1.2193  0.2446  0.2327
  126OSM    C1313425   5.032   5.083   6.423 -0.6204  0.4406 -0.3704
  126OSM   H13A13426   5.033   5.017   6.509 -1.0282 -0.5285 -1.1112
  126OSM   H13B13427   5.041   5.184   6.461  0.6171 -0.0929  0.7791
  126OSM   H13C13428   5.124   5.059   6.372 -0.6878  2.3144 -1.4251
  126OSM    C1213429   4.777   5.064   6.421  0.1400 -0.2394  0.5275
  126OSM   H12A13430   4.699   5.065   6.346  0.9795  0.1474 -0.3492
  126OSM   H12B13431   4.772   5.156   6.477 -1.8384  1.0520 -1.6490
  126OSM    C1113432   4.754   4.946   6.517 -0.3136  0.6655  0.2739
  126OSM   H11A13433   4.733   4.849   6.467 -1.0130  0.4581  0.9505
  126OSM   H11B13434   4.658   4.973   6.565 -1.2815  0.0660 -1.2729
  126OSM      P13435   4.915   4.774   6.629 -0.0689 -0.1703  0.2028
  126OSM    O1313436   4.958   4.704   6.501  0.1261 -0.0632 -0.4567
  126OSM    O1413437   5.024   4.768   6.738  0.5255  0.5666 -0.1697
  126OSM    O1113438   4.786   4.702   6.697 -0.5347 -0.2907  0.4929
  126OSM    O1213439   4.859   4.925   6.606  0.0781 -0.2741 -0.4959
  126OSM    C1S13440   4.751   4.752   6.830 -0.7712 -0.2396  0.7558
  126OSM    H1S13441   4.706   4.854   6.836 -0.1730  0.0334  0.5865
  126OSM    H1T13442   4.838   4.741   6.897  0.9017 -1.5688 -1.5528
  126OSM     NF13443   4.577   4.712   7.009  0.1047  0.0564 -0.1758
  126OSM    HNF13444   4.609   4.704   7.103 -1.1107  4.2394  0.6859
  126OSM    C2S13445   4.647   4.650   6.895 -0.4697  0.3302  0.1623
  126OSM    H2S13446   4.565   4.625   6.824 -1.2335 -2.1321  1.8521
  126OSM    C3S13447   4.716   4.520   6.937  0.4329 -0.1656  0.0941
  126OSM    H3S13448   4.778   4.536   7.028  0.5303  2.5201 -0.3938
  126OSM     O313449   4.806   4.469   6.844  0.0540 -0.5186 -0.0961
  126OSM    HO313450   4.810   4.536   6.775  1.1890  0.3169  0.7760
  126OSM    C4S13451   4.613   4.421   6.975 -0.3491  0.1222  0.1706
  126OSM    H4S13452   4.589   4.415   7.082  3.0084  0.8104  1.0024
  126OSM    C5S13453   4.544   4.333   6.898  0.1918 -0.1869 -0.3306
  126OSM    H5S13454   4.562   4.318   6.790 -3.8120 -2.8268 -0.7498
  126OSM    C6S13455   4.443   4.230   6.953 -0.5124 -0.4741 -0.2994
  126OSM    H6S13456   4.460   4.125   6.921  0.7772  0.2985 -2.2464
  126OSM    H6T13457   4.337   4.250   6.923 -0.8770  0.1683  1.3670
  126OSM    C7S13458   4.445   4.227   7.109 -0.6040 -0.6647 -0.3712
  126OSM    H7S13459   4.427   4.329   7.149  1.9628 -0.3285 -0.0036
  126OSM    H7T13460   4.543   4.196   7.151 -0.7733  0.2646  0.7292
  126OSM    C8S13461   4.320   4.143   7.158  0.2110 -0.4562  0.5190
  126OSM    H8S13462   4.328   4.037   7.124  1.3242 -0.0737 -0.4234
  126OSM    H8T13463   4.233   4.184   7.102  0.4953  1.9465  1.7801
  126OSM    C9S13464   4.303   4.139   7.308 -0.5094  0.2468  0.1464
  126OSM    H9S13465   4.202   4.103   7.338 -0.7128  1.0520  0.4493
  126OSM    H9T13466   4.305   4.248   7.331  0.7607  0.4132 -0.7430
  126OSM   C10S13467   4.413   4.064   7.387  0.4048  0.1143 -0.1997
  126OSM   H10S13468   4.506   4.123   7.370 -0.0768  1.1068  0.5709
  126OSM   H10T13469   4.433   3.961   7.351 -0.8747 -0.0755 -0.3883
  126OSM   C11S13470   4.384   4.071   7.539  0.1918  0.4186 -0.7841
  126OSM   H11S13471   4.289   4.015   7.556 -0.1376  1.5394  1.2501
  126OSM   H11T13472   4.365   4.176   7.568 -1.6469 -0.2127  0.4244
  126OSM   C12S13473   4.492   4.006   7.626  0.1718  0.5008 -0.4084
  126OSM   H12S13474   4.585   4.019   7.566  0.2016 -0.2173 -0.5196
  126OSM   H12T13475   4.468   3.898   7.618  0.5159  0.5329 -1.9706
  126OSM   C13S13476   4.499   4.070   7.768  0.0050  0.6062  0.1793
  126OSM   H13S13477   4.399   4.063   7.815  0.6252 -0.8548  1.2850
  126OSM   H13T13478   4.514   4.179   7.752 -0.5850  0.9729  2.0102
  126OSM   C14S13479   4.606   4.002   7.860 -0.3282 -0.2726 -0.5003
  126OSM   H14S13480   4.703   4.026   7.811  0.6837  0.8831  1.9597
  126OSM   H14T13481   4.592   3.892   7.859  1.6015 -0.5418  0.3736
  126OSM   C15S13482   4.605   4.054   8.003  0.2391  0.4124  0.0487
  126OSM   H15S13483   4.522   4.008   8.060  0.5672 -0.5551 -0.2491
  126OSM   H15T13484   4.591   4.164   8.000  0.1098  0.4090  0.5033
  126OSM   C16S13485   4.729   4.022   8.077  0.0059  0.0173 -0.8305
  126OSM   H16S13486   4.820   4.049   8.020  0.0104  1.1039 -0.3126
  126OSM   H16T13487   4.734   3.911   8.091  0.1883  0.0087 -0.9638
  126OSM   C17S13488   4.728   4.095   8.222  0.4116  0.0339 -0.0153
  126OSM   H17S13489   4.632   4.082   8.276  0.0824  0.4812 -0.4916
  126OSM   H17T13490   4.735   4.204   8.201  2.3430 -0.2897 -1.2312
  126OSM   C18S13491   4.845   4.054   8.315  0.3447  0.1383  0.4730
  126OSM   H18S13492   4.837   4.129   8.397 -0.0966 -0.6063  1.1106
  126OSM   H18T13493   4.942   4.067   8.262 -0.0756  0.7228 -0.1544
  126OSM   H18U13494   4.845   3.949   8.350  0.4387  0.2260  0.7438
  126OSM    C1F13495   4.488   4.808   6.985 -0.0952  0.0672  0.1682
  126OSM     OF13496   4.432   4.816   6.880 -0.0594  0.1940  0.2284
  126OSM    C2F13497   4.454   4.907   7.094  0.3657 -1.1103 -0.0397
  126OSM    H2F13498   4.386   4.858   7.167 -0.2459  1.4928  1.2128
  126OSM    H2G13499   4.396   4.993   7.055  2.1533 -0.3701 -1.1370
  126OSM    C3F13500   4.577   4.968   7.180  0.5267  0.3019  0.5643
  126OSM    H3F13501   4.614   5.051   7.115 -1.2385  0.3062 -0.4787
  126OSM    H3G13502   4.656   4.892   7.196 -1.0458 -1.3053  0.7810
  126OSM    C4F13503   4.540   5.033   7.315 -0.1830 -0.2644  0.1266
  126OSM    H4F13504   4.510   4.947   7.379 -0.5416  1.3439  2.1663
  126OSM    H4G13505   4.462   5.112   7.322  0.3276  0.1169  1.5057
  126OSM    C5F13506   4.648   5.091   7.406  0.0511  0.2289  0.1326
  126OSM    H5F13507   4.648   5.202   7.395 -0.5740 -0.1114 -4.4577
  126OSM    H5G13508   4.751   5.057   7.380  0.9572  0.7867  2.7998
  126OSM    C6F13509   4.636   5.052   7.555  0.2211 -0.2520  0.1567
  126OSM    H6F13510   4.692   4.961   7.585 -0.5466  0.7708  5.1667
  126OSM    H6G13511   4.530   5.024   7.570  0.6690 -0.9167  2.2227
  126OSM    C7F13512   4.672   5.165   7.649 -0.0791  0.9513  0.7407
  126OSM    H7F13513   4.760   5.222   7.611 -0.2153 -0.5449 -1.9474
  126OSM    H7G13514   4.695   5.126   7.750 -0.5701  0.4358  0.6521
  126OSM    C8F13515   4.561   5.271   7.668  0.3176  0.3211 -0.0717
  126OSM    H8F13516   4.467   5.218   7.695  0.4661 -0.9605 -2.0204
  126OSM    H8G13517   4.549   5.316   7.568  0.3896 -0.0430 -0.2448
  126OSM    C9F13518   4.596   5.388   7.759  0.0646  0.5199  0.2569
  126OSM    H9F13519   4.658   5.464   7.709  0.0847 -0.1795 -0.8161
  126OSM   C10F13520   4.534   5.413   7.878 -0.3944 -0.2054  0.0870
  126OSM   H10F13521   4.576   5.499   7.932  1.2683 -1.4282  0.7902
  126OSM   C11F13522   4.434   5.323   7.947 -0.6361 -0.1705  0.1190
  126OSM   H11F13523   4.488   5.274   8.031  1.7818 -1.5339 -2.1409
  126OSM   H11G13524   4.402   5.233   7.889  1.2164  0.2037 -1.5480
  126OSM   C12F13525   4.303   5.377   7.998 -0.5325 -0.1431 -0.6620
  126OSM   H12F13526   4.235   5.295   8.027 -0.9412  0.6222  0.5927
  126OSM   H12G13527   4.249   5.429   7.916  0.0060  1.8308  0.2109
  126OSM   C13F13528   4.310   5.461   8.121 -0.4952 -0.1185 -0.1201
  126OSM   H13F13529   4.389   5.539   8.118 -1.2170  0.6380  0.2266
  126OSM   H13G13530   4.337   5.397   8.207  1.7673 -3.3181 -3.0855
  126OSM   C14F13531   4.174   5.528   8.143 -0.3207  0.6487 -0.6873
  126OSM   H14F13532   4.132   5.541   8.041 -0.1883 -0.7322 -0.9195
  126OSM   H14G13533   4.193   5.624   8.195  2.5329 -0.8956  1.2319
  126OSM   C15F13534   4.079   5.444   8.226 -0.9897  0.6417 -0.0974
  126OSM   H15F13535   4.058   5.351   8.168 -0.8770  1.1484 -0.9505
  126OSM   H15G13536   3.979   5.493   8.237 -1.5841 -0.9232  1.7131
  126OSM   C16F13537   4.128   5.414   8.369 -0.2967  0.3308 -0.6011
  126OSM   H16F13538   4.157   5.505   8.425 -1.9664  0.4644  0.0833
  126OSM   H16G13539   4.226   5.362   8.365 -0.7207 -0.7216  1.9823
  126OSM   C17F13540   4.025   5.349   8.462  0.0660 -0.3665  1.2081
  126OSM   H17F13541   3.935   5.410   8.442  0.4441 -0.0967  0.3430
  126OSM   H17G13542   4.051   5.365   8.569  0.9395 -1.5803  1.1986
  126OSM   C18F13543   4.012   5.196   8.433 -0.1571  0.2762 -0.2193
  126OSM   H18F13544   3.986   5.176   8.326  3.5316 -0.1674 -1.1050
  126OSM   H18G13545   3.943   5.161   8.513 -0.1259 -2.5024 -1.3543
  126OSM   H18H13546   4.113   5.157   8.456 -0.0357  1.4342  1.2894
  127OSM      N13547   6.229   3.398   6.020  0.1083  0.3230  0.8381
  127OSM    C1513548   6.087   3.401   5.977  0.2127  0.0234  0.1443
  127OSM   H15A13549   6.049   3.309   5.937 -0.7885  0.5609 -0.1693
  127OSM   H15B13550   6.087   3.479   5.902 -0.6719 -1.1154 -1.0556
  127OSM   H15C13551   6.019   3.437   6.053 -0.6524 -1.3761  0.0307
  127OSM    C1413552   6.322   3.347   5.913 -0.2206  0.4157 -0.2022
  127OSM   H14A13553   6.318   3.407   5.824  0.5456  1.2085  0.2880
  127OSM   H14B13554   6.307   3.245   5.883 -1.0348  0.2839  0.6127
  127OSM   H14C13555   6.419   3.360   5.957  0.0394 -0.7944 -0.4021
  127OSM    C1313556   6.273   3.540   6.039  0.4860  0.6172  0.6125
  127OSM   H13A13557   6.210   3.589   6.111 -0.8431  0.3726 -0.3763
  127OSM   H13B13558   6.257   3.593   5.946  0.8328 -3.1142 -1.6895
  127OSM   H13C13559   6.375   3.561   6.069  0.6396 -0.8339  1.1758
  127OSM    C1213560   6.238   3.320   6.142  0.0449  0.1031 -0.6169
  127OSM   H12A13561   6.335   3.343   6.183 -0.7683  1.4241  0.5760
  127OSM   H12B13562   6.247   3.217   6.108  1.0646  0.1384 -0.4889
  127OSM    C1113563   6.128   3.338   6.251 -0.0187  0.1006 -0.1576
  127OSM   H11A13564   6.088   3.438   6.225  1.7637  0.3033 -2.3259
  127OSM   H11B13565   6.176   3.333   6.351  0.9305 -0.3550 -0.6183
  127OSM      P13566   6.049   3.086   6.259  0.4255 -0.1886  0.1991
  127OSM    O1313567   5.920   3.021   6.232 -0.1294  0.4787 -0.2725
  127OSM    O1413568   6.167   3.026   6.186  0.2422 -0.3876  0.2756
  127OSM    O1113569   6.072   3.060   6.410  0.1167  0.3761 -0.3462
  127OSM    O1213570   6.031   3.238   6.235  0.0608 -0.2819  0.6989
  127OSM    C1S13571   6.028   3.140   6.519  0.0050 -0.2156 -0.5908
  127OSM    H1S13572   5.926   3.182   6.503  0.3914  1.8405  2.0062
  127OSM    H1T13573   6.102   3.219   6.543 -0.0418 -1.0377  2.4805
  127OSM     NF13574   5.955   3.106   6.751 -0.1022  0.3112 -0.0521
  127OSM    HNF13575   6.003   3.145   6.829 -0.9609 -2.5143  1.9926
  127OSM    C2S13576   6.024   3.043   6.646  0.1933 -0.1862 -0.2738
  127OSM    H2S13577   5.970   2.953   6.610  0.7196 -0.0559 -1.4237
  127OSM    C3S13578   6.164   2.993   6.676 -0.5814  0.1080  0.1911
  127OSM    H3S13579   6.225   3.085   6.688 -1.8229  1.4150 -2.8184
  127OSM     O313580   6.233   2.925   6.578  0.4333 -0.4089 -0.5707
  127OSM    HO313581   6.190   2.959   6.499  0.5601 -0.1934 -0.5471
  127OSM    C4S13582   6.160   2.915   6.809  0.2780  0.1494  0.1216
  127OSM    H4S13583   6.177   2.980   6.896  0.7386 -0.0769  0.2045
  127OSM    C5S13584   6.141   2.781   6.820  0.2909 -0.1682  0.0765
  127OSM    H5S13585   6.114   2.716   6.735 -1.1702 -1.4124  1.4634
  127OSM    C6S13586   6.125   2.721   6.962 -0.6068 -0.2467 -0.4733
  127OSM    H6S13587   6.026   2.673   6.976 -1.6713  2.4399  1.7113
  127OSM    H6T13588   6.138   2.794   7.044 -1.5515 -1.1117  0.4673
  127OSM    C7S13589   6.234   2.622   6.984 -1.2071  0.7701 -1.1938
  127OSM    H7S13590   6.328   2.682   6.990 -1.0503  0.5333 -1.2741
  127OSM    H7T13591   6.247   2.549   6.901 -1.7451 -1.5590  0.7220
  127OSM    C8S13592   6.228   2.545   7.116 -0.2428  0.0241  0.5077
  127OSM    H8S13593   6.322   2.488   7.132  1.3885  2.2072 -1.0260
  127OSM    H8T13594   6.144   2.472   7.121 -0.5361  0.4029  1.1106
  127OSM    C9S13595   6.194   2.643   7.228  0.5216 -0.5419  0.1593
  127OSM    H9S13596   6.086   2.665   7.223  0.3725 -1.1912  0.4728
  127OSM    H9T13597   6.255   2.735   7.224 -1.1602  0.4994 -2.3571
  127OSM   C10S13598   6.238   2.596   7.371 -0.1336  0.5682 -0.1106
  127OSM   H10S13599   6.215   2.677   7.443 -0.7491  0.3280 -0.0381
  127OSM   H10T13600   6.349   2.589   7.365 -0.0190  1.7234  0.6214
  127OSM   C11S13601   6.166   2.473   7.421 -0.6550  0.2818 -0.1840
  127OSM   H11S13602   6.158   2.394   7.343  0.3655  0.6646 -0.6808
  127OSM   H11T13603   6.058   2.496   7.436 -1.2473 -1.1197 -2.0656
  127OSM   C12S13604   6.216   2.422   7.555  0.0888  0.0811  0.5217
  127OSM   H12S13605   6.317   2.386   7.527  0.2519 -0.4443  1.7681
  127OSM   H12T13606   6.156   2.334   7.589 -1.1512  0.4630 -0.6409
  127OSM   C13S13607   6.214   2.524   7.665  0.1242  0.3916  0.8376
  127OSM   H13S13608   6.119   2.581   7.655 -0.4815 -0.8796 -0.9715
  127OSM   H13T13609   6.293   2.601   7.651 -0.0600  0.6008  0.9390
  127OSM   C14S13610   6.225   2.458   7.796 -0.2668  0.6947  0.6761
  127OSM   H14S13611   6.320   2.402   7.806 -0.6200 -0.1911 -0.8085
  127OSM   H14T13612   6.139   2.388   7.810 -1.7564  1.8505 -2.2346
  127OSM   C15S13613   6.218   2.565   7.912 -0.2927  0.5751 -0.6776
  127OSM   H15S13614   6.123   2.621   7.896 -0.6920  0.8137  2.3207
  127OSM   H15T13615   6.284   2.651   7.886  0.0071  0.7212  0.5362
  127OSM   C16S13616   6.231   2.497   8.052 -0.1758 -1.0036 -0.0438
  127OSM   H16S13617   6.176   2.400   8.058 -0.1415 -1.0479 -0.4366
  127OSM   H16T13618   6.181   2.558   8.130 -0.6005 -0.6070 -0.6200
  127OSM   C17S13619   6.378   2.494   8.098  0.9007 -0.0755  0.1866
  127OSM   H17S13620   6.417   2.598   8.095 -0.1676  0.2992 -1.4466
  127OSM   H17T13621   6.444   2.455   8.018 -0.5185 -1.7786 -0.2013
  127OSM   C18S13622   6.400   2.420   8.225  0.6273  0.0572 -0.2737
  127OSM   H18S13623   6.504   2.419   8.264 -0.1904  0.2205  1.9819
  127OSM   H18T13624   6.390   2.312   8.200  3.3802 -0.4348  0.6176
  127OSM   H18U13625   6.341   2.450   8.314  0.4479  0.8777 -0.6710
  127OSM    C1F13626   5.833   3.140   6.729  0.5224  0.1833 -0.4488
  127OSM     OF13627   5.755   3.073   6.660 -0.6633 -0.2540  0.3313
  127OSM    C2F13628   5.784   3.266   6.792 -0.0733  0.3425  0.2606
  127OSM    H2F13629   5.674   3.275   6.782 -0.0884 -0.2579 -0.1516
  127OSM    H2G13630   5.821   3.349   6.729 -1.6192 -0.0737 -1.2291
  127OSM    C3F13631   5.803   3.281   6.948 -0.3952  0.0766  0.5798
  127OSM    H3F13632   5.783   3.390   6.956 -1.2197 -0.0243 -0.0855
  127OSM    H3G13633   5.910   3.256   6.965 -0.4932 -0.1427  0.8809
  127OSM    C4F13634   5.709   3.197   7.026  0.3356  0.3260 -0.1167
  127OSM    H4F13635   5.708   3.088   7.002 -0.3271 -0.4717  3.1826
  127OSM    H4G13636   5.603   3.228   7.015  0.4193  1.2968  1.5972
  127OSM    C5F13637   5.740   3.202   7.175 -0.2459 -0.0555  0.9655
  127OSM    H5F13638   5.740   3.309   7.204 -0.0305  0.3472 -0.4565
  127OSM    H5G13639   5.845   3.174   7.198  0.3622  2.0785  0.8563
  127OSM    C6F13640   5.647   3.133   7.254  0.2230  0.5831  0.4778
  127OSM    H6F13641   5.653   3.023   7.238 -2.1573  0.4077  0.5410
  127OSM    H6G13642   5.547   3.155   7.210  0.5015 -0.0463 -0.4642
  127OSM    C7F13643   5.655   3.172   7.401 -0.2128 -0.0427 -0.2683
  127OSM    H7F13644   5.619   3.277   7.409 -1.9805 -0.5776 -0.9174
  127OSM    H7G13645   5.762   3.165   7.430 -0.6083 -0.7927  1.0747
  127OSM    C8F13646   5.560   3.089   7.486  0.3052 -0.0108 -0.5151
  127OSM    H8F13647   5.606   2.989   7.501  0.9015  0.3871  0.3277
  127OSM    H8G13648   5.463   3.088   7.431 -0.7405  0.7836  1.2674
  127OSM    C9F13649   5.548   3.160   7.624  0.6374  0.1104  0.5952
  127OSM    H9F13650   5.639   3.188   7.678  0.2294  0.3872  1.1430
  127OSM   C10F13651   5.437   3.173   7.701 -0.1129  0.3586  0.7858
  127OSM   H10F13652   5.457   3.219   7.799 -0.6089  1.7486  0.2616
  127OSM   C11F13653   5.294   3.126   7.682 -0.8751  0.0049 -0.3689
  127OSM   H11F13654   5.287   3.092   7.576 -1.5928 -1.6963  0.1966
  127OSM   H11G13655   5.224   3.211   7.696 -1.0120 -0.7547  4.2424
  127OSM   C12F13656   5.273   3.022   7.794 -0.2116 -0.8706 -0.3426
  127OSM   H12F13657   5.347   2.940   7.781  1.4658  0.2433  1.7843
  127OSM   H12G13658   5.174   2.980   7.771 -0.8513  1.9921 -3.2964
  127OSM   C13F13659   5.287   3.060   7.939  0.0150  0.3340 -0.4230
  127OSM   H13F13660   5.232   3.155   7.959  0.3267  0.4947 -0.3117
  127OSM   H13G13661   5.392   3.088   7.963 -0.7198  3.8161 -1.0082
  127OSM   C14F13662   5.233   2.955   8.036 -0.4546  0.1684 -0.2465
  127OSM   H14F13663   5.275   2.854   8.018  0.5374  0.8029 -1.5408
  127OSM   H14G13664   5.124   2.948   8.018 -0.6643  0.0306  0.9985
  127OSM   C15F13665   5.251   3.002   8.185  0.0443 -0.4201 -0.3087
  127OSM   H15F13666   5.356   3.028   8.209  0.5840  0.3605 -3.3353
  127OSM   H15G13667   5.215   2.925   8.257  4.0007 -1.1229  1.0342
  127OSM   C16F13668   5.186   3.133   8.235  0.3663  0.1768 -0.3632
  127OSM   H16F13669   5.222   3.210   8.165  1.8762 -1.5431 -1.5164
  127OSM   H16G13670   5.220   3.170   8.334 -0.4256 -1.5737  0.5891
  127OSM   C17F13671   5.031   3.129   8.218 -0.1681  0.5916  0.7912
  127OSM   H17F13672   4.994   3.042   8.277  1.2838 -0.0332  0.7976
  127OSM   H17G13673   5.012   3.118   8.109 -0.6406 -0.4697  0.9819
  127OSM   C18F13674   4.963   3.257   8.265  0.2792  0.0646  0.3060
  127OSM   H18F13675   5.026   3.347   8.253  0.4905 -0.0428  0.5982
  127OSM   H18G13676   4.953   3.246   8.375  1.0815  1.3498  0.5070
  127OSM   H18H13677   4.869   3.266   8.207  0.5784 -1.2627 -0.4007
  128OSM      N13678   1.370   6.287   5.991 -0.3741  0.3612 -0.1143
  128OSM    C1513679   1.420   6.339   5.859  0.1470 -0.4034  0.0820
  128OSM   H15A13680   1.391   6.270   5.781 -1.7140  1.4731 -0.9509
  128OSM   H15B13681   1.522   6.370   5.874  0.2598  0.3942 -2.1581
  128OSM   H15C13682   1.351   6.417   5.827  0.1538 -0.0337  0.9587
  128OSM    C1413683   1.422   6.148   6.005  0.4085 -0.1030 -0.3662
  128OSM   H14A13684   1.408   6.085   5.918  0.5949 -2.1371  1.0362
  128OSM   H14B13685   1.367   6.099   6.085 -2.9782  0.5918 -2.1656
  128OSM   H14C13686   1.529   6.144   6.018  0.0818  0.2616  2.9843
  128OSM    C1313687   1.436   6.358   6.107 -0.0058 -0.4376  0.0037
  128OSM   H13A13688   1.418   6.309   6.202  1.5294  0.0407  0.5486
  128OSM   H13B13689   1.390   6.455   6.119  0.4448 -0.4105  1.7667
  128OSM   H13C13690   1.542   6.372   6.094 -0.1427 -0.7031 -1.4153
  128OSM    C1213691   1.222   6.289   5.993 -0.3116  0.2559  0.1360
  128OSM   H12A13692   1.193   6.224   5.912  0.4291 -0.8290  0.7301
  128OSM   H12B13693   1.187   6.388   5.968 -0.3493  0.2064 -0.0042
  128OSM    C1113694   1.143   6.247   6.118  0.3675  0.3057  0.2494
  128OSM   H11A13695   1.038   6.281   6.103  0.5094  0.4880 -0.3816
  128OSM   H11B13696   1.183   6.311   6.200  3.8216 -1.1652 -0.2221
  128OSM      P13697   1.090   6.005   6.060 -0.0853  0.3183 -0.0109
  128OSM    O1313698   1.019   6.077   5.953 -0.0343  0.1073 -0.0418
  128OSM    O1413699   1.180   5.905   6.005 -0.1916  0.5947 -0.0230
  128OSM    O1113700   0.992   5.942   6.162 -0.2550  0.3299 -0.7492
  128OSM    O1213701   1.163   6.112   6.149  0.1212 -0.0239  0.2363
  128OSM    C1S13702   1.024   5.862   6.276 -0.1510 -0.4142  0.7370
  128OSM    H1S13703   1.121   5.813   6.252 -0.1611  0.2480 -0.7635
  128OSM    H1T13704   0.954   5.778   6.292 -0.8467  0.2246  1.0769
  128OSM     NF13705   1.081   5.865   6.517  0.1840  0.2580 -0.4837
  128OSM    HNF13706   1.023   5.836   6.593 -0.4062  2.7639  0.0980
  128OSM    C2S13707   1.015   5.941   6.411 -0.2902 -0.3658  0.2484
  128OSM    H2S13708   1.070   6.036   6.395 -1.0657  0.4241  2.0890
  128OSM    C3S13709   0.875   5.982   6.454 -0.0311  1.0784 -0.0644
  128OSM    H3S13710   0.823   5.891   6.491  0.2326  1.3652  1.0382
  128OSM     O313711   0.798   6.019   6.338 -0.0245  0.2832 -0.3971
  128OSM    HO313712   0.848   5.979   6.267 -2.4778 -0.9365 -1.5303
  128OSM    C4S13713   0.873   6.086   6.566  0.1609 -0.3155 -0.2929
  128OSM    H4S13714   0.848   6.046   6.666 -0.2701 -0.6189 -0.5210
  128OSM    C5S13715   0.897   6.220   6.562  0.2988  0.5815 -0.1346
  128OSM    H5S13716   0.921   6.269   6.467  2.6224 -0.7897 -0.2631
  128OSM    C6S13717   0.889   6.304   6.688  0.2381  0.3904  0.2869
  128OSM    H6S13718   0.781   6.325   6.705 -0.7016 -2.9442 -1.1308
  128OSM    H6T13719   0.947   6.396   6.668  1.0397 -0.9416 -4.0181
  128OSM    C7S13720   0.943   6.236   6.819 -1.4092 -0.0304  0.0877
  128OSM    H7S13721   0.895   6.137   6.834 -0.9421  0.0719  2.6106
  128OSM    H7T13722   0.919   6.308   6.901 -2.2470 -0.7598  0.4839
  128OSM    C8S13723   1.097   6.208   6.832  0.4633 -0.4908  0.2292
  128OSM    H8S13724   1.160   6.299   6.836  1.1929 -1.0452  2.4601
  128OSM    H8T13725   1.120   6.152   6.739 -0.4888  1.2356 -1.0626
  128OSM    C9S13726   1.134   6.138   6.963  0.9507  0.1762  0.0522
  128OSM    H9S13727   1.236   6.095   6.952 -0.0388 -2.0197 -0.7052
  128OSM    H9T13728   1.074   6.045   6.972  1.7142 -0.4114 -0.8646
  128OSM   C10S13729   1.124   6.229   7.089 -0.0132  0.0919 -0.5384
  128OSM   H10S13730   1.017   6.260   7.084 -1.4059 -4.3733 -0.2660
  128OSM   H10T13731   1.185   6.321   7.073 -0.0215  0.4716  1.3963
  128OSM   C11S13732   1.162   6.159   7.219  0.0235 -0.3437  0.1796
  128OSM   H11S13733   1.267   6.124   7.229  0.0735  0.0997  1.3150
  128OSM   H11T13734   1.090   6.075   7.231 -1.0784  0.8085  1.8216
  128OSM   C12S13735   1.136   6.265   7.341 -0.0300 -0.3760  0.0788
  128OSM   H12S13736   1.033   6.302   7.325 -0.9050 -3.1521 -1.0887
  128OSM   H12T13737   1.213   6.344   7.331  0.8615 -1.2523 -0.1498
  128OSM   C13S13738   1.131   6.198   7.477 -0.2371 -0.8083  0.2065
  128OSM   H13S13739   1.231   6.172   7.516  0.4070 -0.5862 -1.2467
  128OSM   H13T13740   1.077   6.101   7.469 -0.8480 -0.4410 -0.2550
  128OSM   C14S13741   1.043   6.292   7.566 -0.6270  1.1869  0.4612
  128OSM   H14S13742   0.950   6.319   7.511 -0.4842  0.7718  0.0142
  128OSM   H14T13743   1.108   6.380   7.587  1.4852 -0.2002 -0.1172
  128OSM   C15S13744   0.987   6.233   7.694  1.1051 -0.2833  0.2095
  128OSM   H15S13745   1.068   6.181   7.751  2.3821  3.8221  2.3427
  128OSM   H15T13746   0.903   6.165   7.670  0.2415  0.3142  1.4624
  128OSM   C16S13747   0.925   6.342   7.795 -0.1335  0.2747  0.1697
  128OSM   H16S13748   0.851   6.402   7.736 -1.0994 -0.8115  0.2565
  128OSM   H16T13749   1.011   6.409   7.816  0.1972  0.3095 -1.2154
  128OSM   C17S13750   0.859   6.292   7.920 -0.4343  0.8799  0.5187
  128OSM   H17S13751   0.825   6.383   7.973  0.3210  3.0552 -2.5683
  128OSM   H17T13752   0.935   6.239   7.981 -0.9455 -0.6273 -0.1358
  128OSM   C18S13753   0.752   6.188   7.887 -0.2974 -0.6065 -0.4231
  128OSM   H18S13754   0.696   6.174   7.983 -1.2779 -0.0512 -0.9064
  128OSM   H18T13755   0.783   6.092   7.842 -1.1981 -1.2338  0.2645
  128OSM   H18U13756   0.680   6.221   7.810 -0.3533  0.7816  0.2078
  128OSM    C1F13757   1.216   5.854   6.532 -0.2252 -0.1632 -0.0962
  128OSM     OF13758   1.282   5.894   6.436 -0.2069  0.4334 -0.4017
  128OSM    C2F13759   1.275   5.806   6.660  0.3231 -0.7499  0.6604
  128OSM    H2F13760   1.228   5.713   6.700 -1.6953  0.0275  0.1731
  128OSM    H2G13761   1.260   5.891   6.730  1.9396  1.2045 -1.2843
  128OSM    C3F13762   1.429   5.782   6.665  0.0732 -0.4388 -0.1862
  128OSM    H3F13763   1.478   5.872   6.622 -1.1592 -0.0170 -0.7532
  128OSM    H3G13764   1.464   5.697   6.604  1.7762  2.1590 -2.9786
  128OSM    C4F13765   1.472   5.761   6.810 -0.9382  0.2424 -0.0123
  128OSM    H4F13766   1.450   5.855   6.864  0.8569  0.9651 -0.5146
  128OSM    H4G13767   1.582   5.752   6.820 -0.7333  0.1518 -2.0478
  128OSM    C5F13768   1.410   5.644   6.890 -0.3889  0.0164 -0.4214
  128OSM    H5F13769   1.418   5.540   6.851 -0.4356 -0.6835  1.3758
  128OSM    H5G13770   1.301   5.667   6.892 -0.8006 -1.8630  2.4930
  128OSM    C6F13771   1.438   5.636   7.035 -0.2489 -0.1404  0.7513
  128OSM    H6F13772   1.401   5.725   7.091 -0.1312  0.2428  0.2161
  128OSM    H6G13773   1.545   5.640   7.065 -0.1499 -0.6735  0.4672
  128OSM    C7F13774   1.370   5.511   7.101  0.2952  0.0876 -0.1600
  128OSM    H7F13775   1.430   5.422   7.073 -3.2111 -2.3272 -0.2881
  128OSM    H7G13776   1.264   5.503   7.069  0.9054 -4.5774 -1.3584
  128OSM    C8F13777   1.389   5.505   7.258  0.4440 -0.2881  1.0269
  128OSM    H8F13778   1.343   5.409   7.289  1.6617 -0.2062  3.1770
  128OSM    H8G13779   1.331   5.586   7.308 -1.8808 -1.1316 -0.1986
  128OSM    C9F13780   1.540   5.510   7.301 -0.1573  0.1603  0.7309
  128OSM    H9F13781   1.607   5.558   7.228 -1.3327 -1.0948 -1.2174
  128OSM   C10F13782   1.598   5.459   7.411 -0.6213 -0.0285  0.3335
  128OSM   H10F13783   1.702   5.492   7.422 -0.3479 -1.1243  1.1593
  128OSM   C11F13784   1.525   5.380   7.517  0.5121 -0.8286 -0.1022
  128OSM   H11F13785   1.544   5.272   7.504  0.0498 -0.8727 -0.3930
  128OSM   H11G13786   1.416   5.390   7.503  0.8664  1.8904 -1.3434
  128OSM   C12F13787   1.567   5.407   7.668 -0.0096 -0.8812 -0.1528
  128OSM   H12F13788   1.573   5.516   7.687 -3.5403  0.3009 -4.7162
  128OSM   H12G13789   1.663   5.353   7.683  0.4132 -0.6571 -1.8806
  128OSM   C13F13790   1.456   5.367   7.765  0.3649 -0.0312  0.2970
  128OSM   H13F13791   1.446   5.256   7.770 -3.2977  0.3291  2.9422
  128OSM   H13G13792   1.358   5.409   7.733  1.5402  0.5309 -2.6996
  128OSM   C14F13793   1.515   5.407   7.902 -0.6512  0.0481 -0.0975
  128OSM   H14F13794   1.533   5.517   7.908  0.0504 -0.1678  2.1395
  128OSM   H14G13795   1.607   5.345   7.900 -0.6698  0.0316 -2.3988
  128OSM   C15F13796   1.413   5.367   8.011 -0.6689 -0.3710 -0.5932
  128OSM   H15F13797   1.342   5.289   7.975 -2.8803  1.2535  0.1612
  128OSM   H15G13798   1.357   5.463   8.018 -0.2074  0.0659 -2.5589
  128OSM   C16F13799   1.460   5.339   8.147  0.2117 -0.0084 -0.1821
  128OSM   H16F13800   1.398   5.374   8.232  1.5001 -0.0938  0.8092
  128OSM   H16G13801   1.554   5.397   8.157 -0.2122  0.3293  2.1560
  128OSM   C17F13802   1.506   5.197   8.165  0.4912  0.4698  0.6253
  128OSM   H17F13803   1.574   5.177   8.079 -2.1331 -0.4536 -1.3342
  128OSM   H17G13804   1.420   5.127   8.155  1.5359 -0.6456 -0.6702
  128OSM   C18F13805   1.597   5.186   8.289  0.2535  0.0093 -0.6290
  128OSM   H18F13806   1.665   5.273   8.308  1.1135 -0.8665  0.4035
  128OSM   H18G13807   1.653   5.090   8.283 -0.4985 -0.2421 -4.2424
  128OSM   H18H13808   1.527   5.173   8.374  0.9298  0.4872  0.0084
  129OSM      N13809   5.505   2.147   6.234  1.2172 -0.3288 -0.3354
  129OSM    C1513810   5.640   2.167   6.277  0.0625  0.2994 -0.4929
  129OSM   H15A13811   5.678   2.268   6.283 -0.8817  0.6153  0.4605
  129OSM   H15B13812   5.708   2.103   6.223  0.9553 -1.0301  2.1484
  129OSM   H15C13813   5.643   2.139   6.381  2.7784 -1.1293 -0.9338
  129OSM    C1413814   5.505   2.185   6.092 -0.1383 -0.4372  0.1705
  129OSM   H14A13815   5.403   2.193   6.058  0.0338  0.2199 -0.2029
  129OSM   H14B13816   5.550   2.107   6.032  0.6217  1.8327 -2.3171
  129OSM   H14C13817   5.561   2.275   6.071 -2.5466  0.7090 -1.4867
  129OSM    C1313818   5.472   2.002   6.249  0.7451 -0.4430 -0.3402
  129OSM   H13A13819   5.506   1.973   6.348 -4.4401  0.3039  1.8183
  129OSM   H13B13820   5.534   1.946   6.181 -0.2935 -1.0040 -0.8374
  129OSM   H13C13821   5.366   1.985   6.238  1.0490 -1.9806 -1.0451
  129OSM    C1213822   5.405   2.223   6.313 -0.2405 -0.5770 -0.3039
  129OSM   H12A13823   5.381   2.174   6.407 -2.2375 -1.1229 -1.0656
  129OSM   H12B13824   5.308   2.208   6.268 -1.2497 -0.5267  1.7659
  129OSM    C1113825   5.426   2.376   6.347 -0.3859 -0.3865  0.8379
  129OSM   H11A13826   5.514   2.386   6.413 -0.6422 -0.8103  1.2456
  129OSM   H11B13827   5.343   2.411   6.411 -1.1934 -0.8943  0.0903
  129OSM      P13828   5.555   2.547   6.199 -0.2606 -0.0726  0.5123
  129OSM    O1313829   5.666   2.471   6.143 -0.2382  0.1066  0.2704
  129OSM    O1413830   5.511   2.663   6.121 -0.4649  0.3150  0.3819
  129OSM    O1113831   5.595   2.599   6.344  0.0795  0.0610 -0.0932
  129OSM    O1213832   5.432   2.452   6.225  0.1413  0.1240  0.0008
  129OSM    C1S13833   5.513   2.698   6.406  0.1130  0.1538 -0.5173
  129OSM    H1S13834   5.410   2.700   6.365 -0.5726  0.4530  1.1849
  129OSM    H1T13835   5.562   2.797   6.391 -0.4225  0.1987 -2.0656
  129OSM     NF13836   5.396   2.751   6.623 -0.4243  0.7265  0.1081
  129OSM    HNF13837   5.413   2.832   6.679 -1.6871  0.6115  0.6830
  129OSM    C2S13838   5.506   2.676   6.564 -0.3419 -0.5393  0.0493
  129OSM    H2S13839   5.493   2.566   6.576 -0.9412 -0.3314  1.3962
  129OSM    C3S13840   5.643   2.714   6.629  0.6132 -0.2393  0.3799
  129OSM    H3S13841   5.662   2.819   6.598 -0.2203  0.5670  2.4940
  129OSM     O313842   5.748   2.636   6.577 -0.1863  0.2674 -0.7103
  129OSM    HO313843   5.717   2.597   6.495  1.1555 -1.9951 -0.1754
  129OSM    C4S13844   5.640   2.697   6.777  0.3412  0.6407 -0.4023
  129OSM    H4S13845   5.593   2.604   6.812  0.2036  0.9977  0.3763
  129OSM    C5S13846   5.701   2.776   6.868  0.3667 -0.2403 -0.8635
  129OSM    H5S13847   5.757   2.865   6.837 -0.7894  1.1818  1.0346
  129OSM    C6S13848   5.698   2.754   7.021 -0.0034 -0.9850  0.4913
  129OSM    H6S13849   5.644   2.841   7.066 -1.3453 -1.6933  0.2725
  129OSM    H6T13850   5.803   2.729   7.047  0.1392  1.3384  2.3745
  129OSM    C7S13851   5.618   2.632   7.088  0.0958 -0.5662  0.3332
  129OSM    H7S13852   5.652   2.533   7.053 -1.7635 -0.6718 -1.2618
  129OSM    H7T13853   5.513   2.635   7.052 -0.4447 -1.9057  1.7706
  129OSM    C8S13854   5.626   2.641   7.243  0.1560  0.3752  0.2113
  129OSM    H8S13855   5.561   2.562   7.287 -1.1944  0.7102 -1.1227
  129OSM    H8T13856   5.584   2.740   7.268 -0.0365  0.3849 -0.1438
  129OSM    C9S13857   5.766   2.619   7.294 -0.6391  1.2583 -0.2610
  129OSM    H9S13858   5.837   2.693   7.251  1.9593 -1.8675 -1.4855
  129OSM    H9T13859   5.800   2.523   7.252 -0.4858  1.9776 -1.8160
  129OSM   C10S13860   5.785   2.604   7.447 -0.1534  0.1353  0.8335
  129OSM   H10S13861   5.884   2.558   7.468  0.3564  0.8881  0.1102
  129OSM   H10T13862   5.700   2.544   7.487 -0.2883  0.8967  1.7089
  129OSM   C11S13863   5.774   2.735   7.515  0.0997  0.1207 -1.0283
  129OSM   H11S13864   5.676   2.782   7.491 -1.2587 -1.7383  0.7855
  129OSM   H11T13865   5.864   2.800   7.501  0.2947  0.8301  2.9959
  129OSM   C12S13866   5.756   2.724   7.670  0.0920  0.4878  0.0171
  129OSM   H12S13867   5.852   2.701   7.720 -0.9196 -1.9727  0.8825
  129OSM   H12T13868   5.689   2.639   7.696  0.1935  0.9303  1.7874
  129OSM   C13S13869   5.697   2.849   7.734 -0.3517  0.3195 -0.7632
  129OSM   H13S13870   5.589   2.853   7.709 -1.1559  0.5798  2.5254
  129OSM   H13T13871   5.747   2.942   7.700 -2.4618  0.7589 -2.7868
  129OSM   C14S13872   5.723   2.858   7.886  0.4250  0.0440  0.0203
  129OSM   H14S13873   5.832   2.878   7.890  0.3893  0.1102  0.6296
  129OSM   H14T13874   5.696   2.760   7.932  0.7749 -1.7942 -3.4744
  129OSM   C15S13875   5.655   2.974   7.949 -0.4597 -0.4516  0.1859
  129OSM   H15S13876   5.547   2.950   7.949  0.0590 -3.0313 -0.5549
  129OSM   H15T13877   5.664   3.058   7.878 -0.2353 -0.7576 -0.1512
  129OSM   C16S13878   5.685   3.005   8.094  0.2647 -0.3914 -0.0996
  129OSM   H16S13879   5.593   3.056   8.131  0.6463 -0.7984  1.4415
  129OSM   H16T13880   5.759   3.088   8.104 -0.5735  0.3894 -0.3090
  129OSM   C17S13881   5.720   2.881   8.182  0.4464  0.6242  0.4095
  129OSM   H17S13882   5.755   2.923   8.279 -1.9213  1.5814  0.8793
  129OSM   H17T13883   5.808   2.830   8.137 -0.2571  2.0126 -2.6517
  129OSM   C18S13884   5.610   2.781   8.210  0.3016 -0.1120 -0.1419
  129OSM   H18S13885   5.528   2.832   8.264 -1.0812 -2.1256 -0.2783
  129OSM   H18T13886   5.646   2.697   8.274 -1.5136 -1.5072 -0.9246
  129OSM   H18U13887   5.569   2.744   8.114 -0.2920  1.2660 -0.4374
  129OSM    C1F13888   5.268   2.707   6.597 -0.3427  0.4465  0.3402
  129OSM     OF13889   5.260   2.596   6.546  0.2825  0.5652  0.3344
  129OSM    C2F13890   5.140   2.781   6.635 -0.2351  0.0827 -0.1067
  129OSM    H2F13891   5.056   2.770   6.562  0.8392 -1.3126 -1.1634
  129OSM    H2G13892   5.163   2.885   6.666  2.0816 -0.2586 -0.6072
  129OSM    C3F13893   5.083   2.712   6.757 -0.3656  0.2357  0.3400
  129OSM    H3F13894   5.065   2.604   6.736  0.5575  0.3253 -0.9495
  129OSM    H3G13895   4.981   2.744   6.788 -0.2428  0.1252  0.8726
  129OSM    C4F13896   5.166   2.736   6.886 -0.6633  0.1266 -0.5532
  129OSM    H4F13897   5.215   2.835   6.878 -0.8019  0.4545  2.1811
  129OSM    H4G13898   5.254   2.669   6.874 -2.1949 -2.1666  0.5609
  129OSM    C5F13899   5.092   2.712   7.024  0.5852 -0.6137  0.6992
  129OSM    H5F13900   5.057   2.606   7.022  1.2840 -0.8414 -1.0559
  129OSM    H5G13901   5.009   2.785   7.029  1.2008  0.2754 -1.5079
  129OSM    C6F13902   5.180   2.737   7.149 -0.4421 -0.3981 -0.2918
  129OSM    H6F13903   5.263   2.663   7.152  0.1630  0.3350  1.0193
  129OSM    H6G13904   5.114   2.734   7.238  0.7275  1.5638  0.6586
  129OSM    C7F13905   5.241   2.879   7.161 -0.0026 -0.5313  0.6176
  129OSM    H7F13906   5.164   2.959   7.154 -0.7332 -0.9020  3.8313
  129OSM    H7G13907   5.308   2.893   7.073  0.5424 -1.8826  0.8115
  129OSM    C8F13908   5.331   2.908   7.284  0.7467  0.1296  0.2443
  129OSM    H8F13909   5.383   3.003   7.264 -0.8623  0.5407 -2.1635
  129OSM    H8G13910   5.415   2.838   7.301  0.4720 -0.1256  0.5692
  129OSM    C9F13911   5.232   2.901   7.400 -0.1140 -0.6107  0.1560
  129OSM    H9F13912   5.155   2.978   7.406  0.2949 -0.1628 -0.3322
  129OSM   C10F13913   5.221   2.794   7.482  0.4263  0.2238  0.7793
  129OSM   H10F13914   5.153   2.803   7.568 -0.4388  1.9033 -0.0571
  129OSM   C11F13915   5.301   2.666   7.472 -0.2776  0.3034 -0.4718
  129OSM   H11F13916   5.371   2.657   7.386  1.8225 -0.0392  1.2277
  129OSM   H11G13917   5.233   2.579   7.454  2.9472 -2.3293 -0.3135
  129OSM   C12F13918   5.387   2.644   7.591  0.2679  0.3159 -0.0224
  129OSM   H12F13919   5.463   2.724   7.602  0.8213  0.0147 -1.4921
  129OSM   H12G13920   5.438   2.546   7.576  1.3821  1.0451 -1.0368
  129OSM   C13F13921   5.307   2.626   7.726  0.1118 -0.6164  0.1551
  129OSM   H13F13922   5.216   2.563   7.710 -1.3223  1.6089 -0.7412
  129OSM   H13G13923   5.278   2.724   7.769 -0.0702 -0.1094 -1.1013
  129OSM   C14F13924   5.387   2.554   7.836  0.1451  0.1264  0.1085
  129OSM   H14F13925   5.476   2.618   7.854  0.0834  0.5017 -0.8802
  129OSM   H14G13926   5.413   2.452   7.801 -0.9192  0.2054 -0.9338
  129OSM   C15F13927   5.311   2.542   7.972 -0.3823 -0.4835  0.0987
  129OSM   H15F13928   5.220   2.478   7.964  1.0997 -2.3863 -2.3233
  129OSM   H15G13929   5.283   2.648   7.987  0.6382  0.0198 -1.3948
  129OSM   C16F13930   5.395   2.481   8.079 -0.1135  0.3824  0.1877
  129OSM   H16F13931   5.452   2.551   8.144  1.7545  0.5972 -1.6287
  129OSM   H16G13932   5.481   2.429   8.032  0.2975  1.8234 -0.7068
  129OSM   C17F13933   5.327   2.381   8.180  0.4621 -0.2066  0.9123
  129OSM   H17F13934   5.293   2.293   8.120  0.5734 -1.1122  2.1473
  129OSM   H17G13935   5.234   2.423   8.224 -0.0148  1.8234 -1.9793
  129OSM   C18F13936   5.431   2.340   8.289  0.3892  0.5109  0.3171
  129OSM   H18F13937   5.450   2.430   8.351 -0.1119  2.0638 -1.7427
  129OSM   H18G13938   5.523   2.311   8.234 -1.6422 -0.9204 -2.4866
  129OSM   H18H13939   5.381   2.255   8.340 -0.3999 -0.7436 -2.4200
  130OSM      N13940   2.232   4.764   6.343 -0.5789  0.1851 -0.1683
  130OSM    C1513941   2.344   4.672   6.310  0.0306  0.2638 -0.2579
  130OSM   H15A13942   2.314   4.570   6.326  1.0155  0.0744  0.4733
  130OSM   H15B13943   2.417   4.684   6.389  0.5853 -0.3038 -0.6771
  130OSM   H15C13944   2.391   4.673   6.213  2.5032  1.3843  0.9083
  130OSM    C1413945   2.115   4.728   6.244  0.4184  0.6151 -0.3813
  130OSM   H14A13946   2.144   4.735   6.141  1.0299 -0.0371 -0.2523
  130OSM   H14B13947   2.037   4.801   6.262 -0.8173 -0.0419 -2.8564
  130OSM   H14C13948   2.068   4.634   6.270 -0.1391  0.7660 -0.8200
  130OSM    C1313949   2.189   4.737   6.486  0.4363  0.1811 -0.3749
  130OSM   H13A13950   2.252   4.781   6.561 -0.6384  0.5003  0.3560
  130OSM   H13B13951   2.175   4.632   6.505  2.8451  0.1856  1.6309
  130OSM   H13C13952   2.095   4.791   6.493  1.3057  1.5552  0.9842
  130OSM    C1213953   2.274   4.913   6.313 -0.3238  0.5355  0.3223
  130OSM   H12A13954   2.264   4.936   6.208  0.7539  0.2329  0.1519
  130OSM   H12B13955   2.377   4.926   6.342  0.2229  1.9409 -2.1484
  130OSM    C1113956   2.180   5.015   6.379  0.2260 -0.3766 -0.1704
  130OSM   H11A13957   2.234   5.112   6.378 -1.4461  0.5797  0.6558
  130OSM   H11B13958   2.164   4.996   6.487 -0.4864  0.2297 -0.1648
  130OSM      P13959   2.022   5.147   6.217  0.4210 -0.1111 -0.2015
  130OSM    O1313960   2.131   5.152   6.116 -0.1393 -0.0177 -0.0072
  130OSM    O1413961   1.883   5.131   6.164 -0.2403 -0.1783 -0.3036
  130OSM    O1113962   2.032   5.278   6.314 -0.0452 -0.3824  0.5934
  130OSM    O1213963   2.053   5.020   6.313  0.2402  0.1928  0.8959
  130OSM    C1S13964   1.926   5.305   6.409  0.0801  0.0944  0.1131
  130OSM    H1S13965   1.824   5.268   6.383 -0.3384 -0.0262  1.8571
  130OSM    H1T13966   1.904   5.413   6.419 -0.7310 -0.2680  2.4674
  130OSM     NF13967   1.883   5.294   6.653  0.3290  0.2025 -0.1319
  130OSM    HNF13968   1.879   5.379   6.705 -2.3420 -0.0890  0.1901
  130OSM    C2S13969   1.973   5.269   6.550 -0.0177  0.2676 -0.2147
  130OSM    H2S13970   1.996   5.160   6.547  1.3343  0.5590 -1.1960
  130OSM    C3S13971   2.110   5.335   6.584 -0.6376 -0.6043 -0.3554
  130OSM    H3S13972   2.088   5.439   6.617 -1.2109 -0.6770 -0.5023
  130OSM     O313973   2.202   5.349   6.479 -0.2088  0.4595 -0.1050
  130OSM    HO313974   2.148   5.322   6.405 -1.3236 -0.2744  0.9481
  130OSM    C4S13975   2.172   5.277   6.707 -0.3274  0.3442  0.4141
  130OSM    H4S13976   2.182   5.352   6.787 -1.4023 -0.6480  1.5124
  130OSM    C5S13977   2.234   5.158   6.727 -0.4756 -0.5380 -0.5385
  130OSM    H5S13978   2.225   5.085   6.645  0.5178  0.1374 -1.2748
  130OSM    C6S13979   2.287   5.121   6.864 -0.1360 -0.0307  0.6135
  130OSM    H6S13980   2.397   5.104   6.862 -0.4183 -2.0415  1.3166
  130OSM    H6T13981   2.254   5.022   6.902 -1.6601 -0.2073 -1.1281
  130OSM    C7S13982   2.264   5.220   6.980  0.1110 -0.3180 -0.1118
  130OSM    H7S13983   2.155   5.240   6.986 -0.0381 -0.9311 -0.7512
  130OSM    H7T13984   2.316   5.316   6.961 -0.4188 -0.1743 -0.8681
  130OSM    C8S13985   2.308   5.172   7.120 -0.0272 -0.5588 -1.1687
  130OSM    H8S13986   2.413   5.137   7.130 -0.2597 -0.9196  0.0828
  130OSM    H8T13987   2.253   5.079   7.148  0.2239  0.2212  2.1498
  130OSM    C9S13988   2.282   5.266   7.239 -0.5761  0.0367 -0.3629
  130OSM    H9S13989   2.178   5.305   7.238 -0.3241  0.7110 -0.4148
  130OSM    H9T13990   2.350   5.351   7.219 -1.0324  0.2149 -1.1610
  130OSM   C10S13991   2.313   5.197   7.375  0.2670 -0.3645  1.0906
  130OSM   H10S13992   2.414   5.153   7.356  0.7688  0.9639  0.6579
  130OSM   H10T13993   2.242   5.115   7.400 -1.3307  0.4508 -0.6547
  130OSM   C11S13994   2.325   5.295   7.495  0.8148  0.2953 -0.6673
  130OSM   H11S13995   2.220   5.324   7.515  0.8260 -0.1039 -0.0020
  130OSM   H11T13996   2.384   5.387   7.474  2.0631 -0.9024 -2.5498
  130OSM   C12S13997   2.367   5.215   7.621  0.0973 -0.3124  0.1109
  130OSM   H12S13998   2.467   5.167   7.614  0.2819  0.0278  0.4043
  130OSM   H12T13999   2.294   5.131   7.629  1.6516 -1.6426  0.7042
  130OSM   C13S14000   2.358   5.298   7.753  0.1932 -0.6636  0.1578
  130OSM   H13S14001   2.250   5.310   7.777  0.5108 -0.1306  1.3932
  130OSM   H13T14002   2.398   5.402   7.752 -0.8660 -0.2467  0.4957
  130OSM   C14S14003   2.407   5.227   7.874 -0.2114 -0.0691 -0.1518
  130OSM   H14S14004   2.516   5.206   7.870 -0.3958 -1.0861 -0.1155
  130OSM   H14T14005   2.359   5.127   7.884 -1.9552  0.8113  0.3515
  130OSM   C15S14006   2.383   5.312   8.006  0.4078  0.3813  0.2910
  130OSM   H15S14007   2.274   5.332   8.012  0.1277 -0.4701 -1.5749
  130OSM   H15T14008   2.423   5.415   7.995  0.1874  0.3164 -1.2412
  130OSM   C16S14009   2.457   5.241   8.125  0.1319  0.0112 -0.0220
  130OSM   H16S14010   2.567   5.258   8.125  0.0095  0.8024  1.1470
  130OSM   H16T14011   2.435   5.132   8.122  2.0274 -0.3952  0.2447
  130OSM   C17S14012   2.397   5.290   8.259 -0.2940  0.5403  0.1767
  130OSM   H17S14013   2.287   5.278   8.270 -0.0126 -1.9965  0.4062
  130OSM   H17T14014   2.414   5.399   8.247 -1.1260  1.0191  2.9226
  130OSM   C18S14015   2.458   5.233   8.391 -0.2814  0.0188 -0.1259
  130OSM   H18S14016   2.567   5.245   8.376 -0.2222 -2.0822 -1.4360
  130OSM   H18T14017   2.430   5.127   8.406  2.6023 -0.5298  1.8805
  130OSM   H18U14018   2.432   5.293   8.481 -1.1705 -0.1239 -0.2880
  130OSM    C1F14019   1.764   5.228   6.664  0.6009 -0.6990  0.2294
  130OSM     OF14020   1.762   5.121   6.605 -0.2744 -0.0744  0.0105
  130OSM    C2F14021   1.649   5.284   6.740  0.4923 -0.3359 -0.9460
  130OSM    H2F14022   1.592   5.354   6.674  1.5066  1.1152 -0.3165
  130OSM    H2G14023   1.699   5.356   6.809 -0.6149  1.6847 -2.1999
  130OSM    C3F14024   1.559   5.186   6.811  0.3269 -0.0367  0.0070
  130OSM    H3F14025   1.499   5.130   6.736  0.8643  0.3141 -0.6952
  130OSM    H3G14026   1.473   5.232   6.863 -0.0898 -0.6638 -0.1223
  130OSM    C4F14027   1.648   5.100   6.911 -0.2899  0.6745  0.2722
  130OSM    H4F14028   1.701   5.168   6.982  0.8037 -1.1450  1.2258
  130OSM    H4G14029   1.731   5.054   6.853  0.6329  1.7049  0.7450
  130OSM    C5F14030   1.577   5.005   6.997  0.1918  1.6526 -0.1542
  130OSM    H5F14031   1.642   4.928   7.044 -1.0968  0.4999 -0.2404
  130OSM    H5G14032   1.493   4.961   6.938  0.5463  0.8974 -0.0984
  130OSM    C6F14033   1.512   5.089   7.115 -1.3794 -0.2932 -0.0875
  130OSM    H6F14034   1.451   5.176   7.083  0.6477  0.7328 -1.2455
  130OSM    H6G14035   1.589   5.126   7.186 -2.4718 -0.3469  1.1346
  130OSM    C7F14036   1.409   4.993   7.190 -0.3135  0.3224 -0.6813
  130OSM    H7F14037   1.463   4.899   7.216 -0.8196  0.1970 -0.0773
  130OSM    H7G14038   1.335   4.960   7.114 -1.3640 -2.3904  1.4668
  130OSM    C8F14039   1.355   5.068   7.309 -0.1896 -0.0670  0.7278
  130OSM    H8F14040   1.276   5.140   7.278  0.7192  0.6498  0.0333
  130OSM    H8G14041   1.425   5.136   7.363 -1.9344  2.8259 -0.5095
  130OSM    C9F14042   1.294   4.966   7.408 -0.3237  0.2135  0.2685
  130OSM    H9F14043   1.202   4.917   7.372 -0.2162 -1.0954  1.7002
  130OSM   C10F14044   1.365   4.916   7.515 -0.1844  0.2346  0.4612
  130OSM   H10F14045   1.311   4.852   7.587 -3.8500  1.5049 -1.0061
  130OSM   C11F14046   1.511   4.955   7.552 -0.3031  0.4906  0.1613
  130OSM   H11F14047   1.547   5.055   7.520 -0.7203  0.7930  0.6230
  130OSM   H11G14048   1.578   4.876   7.513 -1.0433  1.0826 -2.4093
  130OSM   C12F14049   1.525   4.963   7.710 -0.9136 -0.2951  0.5536
  130OSM   H12F14050   1.439   5.016   7.755 -0.7624 -0.3512  0.9065
  130OSM   H12G14051   1.618   5.017   7.737 -1.2189 -0.1109  1.2312
  130OSM   C13F14052   1.520   4.827   7.783  0.6521  0.2475 -0.7093
  130OSM   H13F14053   1.614   4.770   7.761  0.2606 -0.0462 -1.6684
  130OSM   H13G14054   1.432   4.766   7.752  0.1456  0.2022  0.8119
  130OSM   C14F14055   1.511   4.847   7.934 -0.5960  0.1599  0.0578
  130OSM   H14F14056   1.417   4.898   7.964  0.6557  3.0143 -0.7909
  130OSM   H14G14057   1.590   4.922   7.952 -1.4236  1.4271 -1.5231
  130OSM   C15F14058   1.541   4.717   8.010  0.6714  0.0790 -0.1298
  130OSM   H15F14059   1.649   4.707   7.986  0.5811  3.7054 -2.5294
  130OSM   H15G14060   1.472   4.637   7.978  0.8200 -0.2537  0.3797
  130OSM   C16F14061   1.529   4.716   8.165 -0.1336 -0.3813 -0.6085
  130OSM   H16F14062   1.559   4.814   8.205 -4.8372  0.3758  1.3807
  130OSM   H16G14063   1.589   4.628   8.196  0.8599 -0.4059 -2.4949
  130OSM   C17F14064   1.391   4.674   8.209  0.2471  0.1960 -0.5545
  130OSM   H17F14065   1.353   4.591   8.146 -0.2234  0.0652 -0.1043
  130OSM   H17G14066   1.327   4.758   8.174 -1.5234 -1.6633 -1.8638
  130OSM   C18F14067   1.389   4.647   8.356 -0.0969 -0.8588 -0.3979
  130OSM   H18F14068   1.447   4.559   8.389  0.3682 -0.6341 -0.6065
  130OSM   H18G14069   1.289   4.634   8.401  0.4320 -1.9274  0.4869
  130OSM   H18H14070   1.426   4.731   8.418 -2.0062 -1.5012  1.6470
  131OSM      N14071   6.180   1.358   5.559 -1.0968  0.1101 -1.0749
  131OSM    C1514072   6.203   1.500   5.573 -0.4445 -0.2519  0.8599
  131OSM   H15A14073   6.131   1.555   5.632 -1.4802  0.9196 -1.4173
  131OSM   H15B14074   6.198   1.539   5.473  2.6248  2.0658  1.5266
  131OSM   H15C14075   6.300   1.519   5.618 -0.4628 -0.3360  0.9337
  131OSM    C1414076   6.042   1.339   5.501  0.2028 -0.8961 -0.4631
  131OSM   H14A14077   6.022   1.386   5.407  0.3253 -0.9785 -0.5298
  131OSM   H14B14078   5.971   1.369   5.577  1.3068 -2.4517  1.2288
  131OSM   H14C14079   6.029   1.234   5.477  1.9244 -0.5502 -3.0651
  131OSM    C1314080   6.268   1.303   5.454  0.4787  0.0263  0.5188
  131OSM   H13A14081   6.250   1.364   5.367  1.0075  1.2338  1.2429
  131OSM   H13B14082   6.253   1.199   5.428 -0.8616  1.0820 -3.1881
  131OSM   H13C14083   6.371   1.310   5.486  0.8988  0.9240 -1.0175
  131OSM    C1214084   6.202   1.287   5.695  0.5106  0.3591  0.3871
  131OSM   H12A14085   6.309   1.285   5.708  0.5023  1.4385  0.6805
  131OSM   H12B14086   6.179   1.182   5.683 -0.3415  0.8802 -3.1635
  131OSM    C1114087   6.134   1.330   5.828 -0.0685 -0.0925 -0.1312
  131OSM   H11A14088   6.178   1.431   5.845  1.9194 -0.9758  0.1170
  131OSM   H11B14089   6.177   1.269   5.911 -0.3058 -0.3151 -0.1715
  131OSM      P14090   5.917   1.197   5.818  0.5968  0.0860  0.0979
  131OSM    O1314091   5.794   1.221   5.738  0.7817  0.5553 -0.4262
  131OSM    O1414092   6.006   1.088   5.770 -0.1705  0.2082 -0.4705
  131OSM    O1114093   5.879   1.171   5.970  0.0706 -0.4370  0.1307
  131OSM    O1214094   5.996   1.336   5.818 -0.2328  0.6815 -0.1333
  131OSM    C1S14095   5.970   1.187   6.072  0.7489  0.1484 -0.3290
  131OSM    H1S14096   6.007   1.292   6.071 -2.3693  1.3419  2.5800
  131OSM    H1T14097   6.056   1.118   6.056  0.4507  0.4226 -3.3704
  131OSM     NF14098   6.005   1.200   6.316 -0.5192  0.0814  0.0159
  131OSM    HNF14099   6.077   1.135   6.339  3.0700  3.4335 -1.1853
  131OSM    C2S14100   5.915   1.158   6.215 -0.8585  0.1748  0.8399
  131OSM    H2S14101   5.828   1.227   6.228 -1.4190 -0.5357  0.8742
  131OSM    C3S14102   5.880   1.012   6.224  0.1344  0.3871  0.2353
  131OSM    H3S14103   5.974   0.962   6.193 -0.9415 -0.5486 -1.5564
  131OSM     O314104   5.773   0.973   6.131  0.0718  0.4416 -0.0421
  131OSM    HO314105   5.766   1.051   6.076  2.8215  0.6043 -0.2319
  131OSM    C4S14106   5.838   0.981   6.366 -0.3098 -0.3003 -0.2846
  131OSM    H4S14107   5.932   0.962   6.421 -0.6433 -2.7082 -0.4942
  131OSM    C5S14108   5.723   0.976   6.431 -0.4746 -0.0526  0.1886
  131OSM    H5S14109   5.632   1.002   6.375 -0.5093 -0.3556  0.1021
  131OSM    C6S14110   5.701   0.945   6.576 -0.4898  1.0772 -0.6408
  131OSM    H6S14111   5.681   0.839   6.604 -1.3241  1.8562  1.8303
  131OSM    H6T14112   5.604   0.995   6.594  0.0567  2.7035 -2.0631
  131OSM    C7S14113   5.810   0.989   6.678 -0.1359  0.5562 -0.4565
  131OSM    H7S14114   5.825   1.099   6.668 -0.7524  0.7395  0.6234
  131OSM    H7T14115   5.904   0.933   6.658 -0.6049 -0.3147 -0.2319
  131OSM    C8S14116   5.764   0.957   6.820  0.6220 -0.6997  0.3442
  131OSM    H8S14117   5.735   0.851   6.831 -0.5352 -0.6784 -2.2181
  131OSM    H8T14118   5.675   1.020   6.842 -0.7692 -1.6782 -2.3289
  131OSM    C9S14119   5.862   1.006   6.928 -0.3525 -0.0026 -0.3879
  131OSM    H9S14120   5.895   1.109   6.904  4.0439 -1.0124  0.8586
  131OSM    H9T14121   5.951   0.939   6.933  0.7112  1.3352 -1.0196
  131OSM   C10S14122   5.795   1.001   7.065 -0.1171  0.2356  0.1324
  131OSM   H10S14123   5.804   0.897   7.102 -1.5185  0.4488  1.1142
  131OSM   H10T14124   5.689   1.034   7.059  0.1828  0.9058 -1.5884
  131OSM   C11S14125   5.874   1.083   7.174  0.2494 -0.0146  0.4557
  131OSM   H11S14126   5.855   1.192   7.162  2.2253  0.2382 -0.6080
  131OSM   H11T14127   5.982   1.061   7.159  0.1629 -1.0176  1.2644
  131OSM   C12S14128   5.834   1.030   7.316  0.0676  0.6809 -0.7311
  131OSM   H12S14129   5.872   0.929   7.338 -0.8981  0.1050 -1.6260
  131OSM   H12T14130   5.724   1.029   7.334  0.3788  1.3181  1.3413
  131OSM   C13S14131   5.904   1.124   7.421 -0.0424 -0.2479 -0.6819
  131OSM   H13S14132   5.898   1.231   7.394 -1.8774 -1.0947 -3.8683
  131OSM   H13T14133   6.013   1.099   7.420  0.1948  0.7779 -0.7118
  131OSM   C14S14134   5.862   1.106   7.569  1.0430 -0.3863 -0.3046
  131OSM   H14S14135   5.862   0.998   7.598  1.6536 -0.9292 -2.2536
  131OSM   H14T14136   5.759   1.144   7.579  2.1151  2.5442 -0.0366
  131OSM   C15S14137   5.956   1.189   7.659  0.3162  0.4581 -0.5412
  131OSM   H15S14138   5.934   1.297   7.645  1.1402  0.5666 -1.0605
  131OSM   H15T14139   6.060   1.167   7.628  0.9219 -1.4271  2.6245
  131OSM   C16S14140   5.953   1.152   7.808 -0.0242  0.6817 -1.0511
  131OSM   H16S14141   6.039   1.192   7.867  0.6966 -1.9055 -0.2441
  131OSM   H16T14142   5.970   1.043   7.822  0.1665  0.8047 -0.2841
  131OSM   C17S14143   5.829   1.192   7.873 -0.1578 -0.3960  0.1219
  131OSM   H17S14144   5.752   1.131   7.822 -0.6194 -0.1514  0.5274
  131OSM   H17T14145   5.821   1.303   7.867 -1.8730 -0.4515  1.2045
  131OSM   C18S14146   5.813   1.161   8.029  0.8326 -0.4299 -0.1452
  131OSM   H18S14147   5.739   1.238   8.060  2.8203  0.8425  1.5995
  131OSM   H18T14148   5.901   1.191   8.088 -0.3192 -2.9763  3.0261
  131OSM   H18U14149   5.761   1.064   8.048  2.3176 -1.0416  0.8132
  131OSM    C1F14150   6.019   1.330   6.342 -0.0213  0.5607 -0.3528
  131OSM     OF14151   5.970   1.419   6.275  0.5457  0.6993 -0.3438
  131OSM    C2F14152   6.105   1.364   6.456  0.0056 -0.5182 -0.9906
  131OSM    H2F14153   6.213   1.356   6.431  0.5390 -0.0992  1.0933
  131OSM    H2G14154   6.073   1.293   6.535  0.0815 -2.3617 -2.5778
  131OSM    C3F14155   6.087   1.513   6.508 -0.7836  0.1792  1.1503
  131OSM    H3F14156   5.979   1.524   6.534 -0.3363  0.6734  2.8394
  131OSM    H3G14157   6.115   1.582   6.425  1.6060 -2.6315 -0.4583
  131OSM    C4F14158   6.171   1.552   6.632  0.5649  0.2075  0.7211
  131OSM    H4F14159   6.170   1.660   6.656  1.2960  0.8572 -1.9416
  131OSM    H4G14160   6.274   1.541   6.593  0.5810  0.4344  0.6996
  131OSM    C5F14161   6.154   1.462   6.759  0.1301 -0.0207  1.1289
  131OSM    H5F14162   6.234   1.501   6.825 -0.6030  0.4605  1.7492
  131OSM    H5G14163   6.185   1.361   6.725 -3.8762 -1.1845  0.6321
  131OSM    C6F14164   6.014   1.454   6.816  0.1005  0.4894  0.6089
  131OSM    H6F14165   5.959   1.398   6.737  1.9330 -2.3604  1.2808
  131OSM    H6G14166   5.972   1.557   6.816 -0.3953  0.3022  1.9445
  131OSM    C7F14167   5.997   1.377   6.949  0.1161  0.0081  0.0268
  131OSM    H7F14168   6.041   1.276   6.934  0.3377  0.4016 -2.2544
  131OSM    H7G14169   5.890   1.358   6.974 -0.3681  1.3436 -0.9461
  131OSM    C8F14170   6.056   1.445   7.082 -0.2743 -0.1083  0.1977
  131OSM    H8F14171   6.164   1.468   7.068 -0.3793  0.7499  0.7373
  131OSM    H8G14172   6.049   1.370   7.163  0.5001  1.2277  1.5136
  131OSM    C9F14173   5.985   1.573   7.119  0.4355  0.0127 -0.2575
  131OSM    H9F14174   5.966   1.638   7.033 -2.2254 -0.9748 -0.4557
  131OSM   C10F14175   5.958   1.607   7.238 -0.1475 -0.5648  0.0590
  131OSM   H10F14176   5.911   1.705   7.251  2.2522  0.7027 -0.6078
  131OSM   C11F14177   5.991   1.532   7.365 -0.6093  0.1765  0.0162
  131OSM   H11F14178   6.074   1.461   7.348 -0.9258 -0.4504  1.0454
  131OSM   H11G14179   5.900   1.486   7.409 -0.8736  0.3291 -0.3638
  131OSM   C12F14180   6.036   1.648   7.461 -0.2343  0.1643  0.2345
  131OSM   H12F14181   5.957   1.725   7.471  0.1641  0.6246 -0.1406
  131OSM   H12G14182   6.123   1.696   7.412  1.3988 -0.7192  2.2043
  131OSM   C13F14183   6.081   1.604   7.601 -0.3976  0.2828  0.1059
  131OSM   H13F14184   6.147   1.686   7.636 -1.1475  1.2997 -0.8504
  131OSM   H13G14185   6.146   1.514   7.592  0.3992  0.9156 -0.5216
  131OSM   C14F14186   5.962   1.590   7.704 -0.6075  0.3971 -0.3055
  131OSM   H14F14187   5.894   1.508   7.672 -0.6460  0.6927 -0.9661
  131OSM   H14G14188   5.902   1.683   7.699 -1.7933 -0.3929 -0.9707
  131OSM   C15F14189   6.019   1.570   7.844 -0.0008 -0.4526  0.1259
  131OSM   H15F14190   6.090   1.649   7.876  2.0634 -1.9528 -0.6060
  131OSM   H15G14191   6.074   1.474   7.854 -1.2290 -1.2554 -0.6920
  131OSM   C16F14192   5.901   1.563   7.950 -0.8714 -0.2424  0.2941
  131OSM   H16F14193   5.819   1.494   7.919 -1.2374  2.0314 -4.3013
  131OSM   H16G14194   5.857   1.665   7.942 -0.9325 -0.1707  1.4715
  131OSM   C17F14195   5.956   1.523   8.087  0.3316  1.1410 -0.4671
  131OSM   H17F14196   6.048   1.582   8.110  0.8902  0.0176  0.2278
  131OSM   H17G14197   5.988   1.416   8.079  2.5159  1.6137  1.2412
  131OSM   C18F14198   5.862   1.543   8.209  0.5712 -0.1401  0.7208
  131OSM   H18F14199   5.833   1.650   8.216 -1.3748 -0.7740  2.8951
  131OSM   H18G14200   5.916   1.503   8.297  0.6178 -1.7681 -0.0287
  131OSM   H18H14201   5.780   1.472   8.185 -0.2206  0.5821  1.2563
  132OSM      N14202   1.343   2.136   6.337  0.4724 -0.2419 -0.3204
  132OSM    C1514203   1.456   2.172   6.236  0.5039  0.1115 -0.0349
  132OSM   H15A14204   1.474   2.278   6.234  0.4522  0.1054 -0.8909
  132OSM   H15B14205   1.433   2.137   6.137  0.9535  1.4318 -0.6067
  132OSM   H15C14206   1.544   2.118   6.269 -1.1232 -1.3688  2.0515
  132OSM    C1414207   1.212   2.199   6.300  0.3109  0.0766  0.5139
  132OSM   H14A14208   1.129   2.164   6.359 -0.2812  0.6307  0.0268
  132OSM   H14B14209   1.191   2.171   6.198  0.9341  0.7793  0.1839
  132OSM   H14C14210   1.214   2.306   6.317 -2.5154  0.1578  0.5213
  132OSM    C1314211   1.325   1.986   6.327 -0.2843 -0.2885  0.1920
  132OSM   H13A14212   1.311   1.943   6.229  1.9618  2.1959 -1.2572
  132OSM   H13B14213   1.231   1.957   6.372 -0.7520  0.3006 -0.4160
  132OSM   H13C14214   1.404   1.926   6.371 -2.3603 -1.5614  2.3091
  132OSM    C1214215   1.379   2.183   6.479  0.0309  0.1594  0.5131
  132OSM   H12A14216   1.467   2.130   6.512  0.9807 -0.1406 -2.3622
  132OSM   H12B14217   1.304   2.146   6.548 -1.2415  1.5927 -0.0715
  132OSM    C1114218   1.398   2.338   6.503 -0.1253 -0.1288 -0.0736
  132OSM   H11A14219   1.489   2.360   6.444  0.0282 -1.4319 -0.3279
  132OSM   H11B14220   1.421   2.367   6.607  1.7160  2.0661 -1.0434
  132OSM      P14221   1.301   2.580   6.470 -0.0469 -0.0966 -0.0732
  132OSM    O1314222   1.420   2.628   6.396  0.5198  0.1971 -0.1943
  132OSM    O1414223   1.165   2.637   6.436  0.2892 -0.1532 -0.0876
  132OSM    O1114224   1.332   2.615   6.622  0.2589 -0.2655 -0.0388
  132OSM    O1214225   1.294   2.420   6.464 -0.2832  0.4632  0.2232
  132OSM    C1S14226   1.269   2.556   6.736  0.2329  0.3113  0.7815
  132OSM    H1S14227   1.285   2.448   6.757 -0.0813  0.1373  0.1460
  132OSM    H1T14228   1.158   2.566   6.729  0.0419 -2.4742 -1.1064
  132OSM     NF14229   1.271   2.565   6.985 -0.4662 -0.1642 -0.2440
  132OSM    HNF14230   1.193   2.607   7.029  0.2029  0.3303  0.4892
  132OSM    C2S14231   1.318   2.629   6.869  0.7908 -0.2700 -0.4349
  132OSM    H2S14232   1.428   2.631   6.858  0.7916 -0.8354 -0.5855
  132OSM    C3S14233   1.268   2.773   6.856 -1.1850 -0.4098  0.2467
  132OSM    H3S14234   1.159   2.770   6.838 -1.4402  2.0457  1.1437
  132OSM     O314235   1.326   2.843   6.746  0.0551 -0.1929  1.0828
  132OSM    HO314236   1.357   2.770   6.693  1.4781  0.6117  0.7748
  132OSM    C4S14237   1.292   2.849   6.992 -0.0771 -0.7631 -0.7061
  132OSM    H4S14238   1.209   2.863   7.062  4.1889  0.2909  4.4039
  132OSM    C5S14239   1.414   2.893   7.027 -0.6120 -0.6802  0.4576
  132OSM    H5S14240   1.497   2.867   6.961 -0.6414  1.9555 -0.6783
  132OSM    C6S14241   1.442   2.974   7.154  0.1250  0.0855 -0.0381
  132OSM    H6S14242   1.357   2.978   7.225  2.2085  2.3499  2.4344
  132OSM    H6T14243   1.456   3.082   7.129  2.1700 -0.5141 -1.6766
  132OSM    C7S14244   1.569   2.935   7.236 -0.2568  0.2254  0.5140
  132OSM    H7S14245   1.654   2.954   7.166 -0.6072 -1.3509 -0.3499
  132OSM    H7T14246   1.566   2.827   7.259 -1.5924  0.0441 -0.5004
  132OSM    C8S14247   1.594   3.011   7.360  0.4024  0.6343 -0.1909
  132OSM    H8S14248   1.593   3.119   7.334 -1.8588  0.7812  0.4101
  132OSM    H8T14249   1.698   2.989   7.393  0.7750  0.5183 -1.4015
  132OSM    C9S14250   1.504   2.992   7.483 -0.2569  0.2036 -0.2809
  132OSM    H9S14251   1.403   2.958   7.451  0.1546 -1.5369  0.2510
  132OSM    H9T14252   1.495   3.096   7.523  0.1198  1.0771 -2.4104
  132OSM   C10S14253   1.557   2.906   7.592 -0.0493 -0.0560  0.4434
  132OSM   H10S14254   1.486   2.908   7.677  0.8278 -1.1352  1.2287
  132OSM   H10T14255   1.652   2.948   7.631 -0.4562  1.8142 -0.5287
  132OSM   C11S14256   1.578   2.759   7.557  0.5129 -0.1602 -0.6765
  132OSM   H11S14257   1.653   2.752   7.476  0.2992  0.4477 -0.9263
  132OSM   H11T14258   1.491   2.706   7.514  0.8041 -1.6342  0.4899
  132OSM   C12S14259   1.642   2.682   7.676 -0.3482 -0.1260  0.0012
  132OSM   H12S14260   1.719   2.738   7.733 -1.2491  0.6357  0.4749
  132OSM   H12T14261   1.688   2.589   7.636 -3.5070 -2.5121  1.7430
  132OSM   C13S14262   1.536   2.643   7.780  0.0136 -0.1398  0.5238
  132OSM   H13S14263   1.490   2.543   7.764  1.2323 -0.4221 -1.3290
  132OSM   H13T14264   1.455   2.716   7.798  2.1201  2.1053  1.0967
  132OSM   C14S14265   1.609   2.620   7.917 -0.0832 -0.4039  0.0867
  132OSM   H14S14266   1.710   2.581   7.892 -0.4581  0.4538 -3.0065
  132OSM   H14T14267   1.550   2.553   7.983 -1.0703 -1.0833 -1.4446
  132OSM   C15S14268   1.629   2.758   7.991 -0.5173  0.4198  0.2742
  132OSM   H15S14269   1.531   2.810   7.999 -0.6149  0.2609  0.1059
  132OSM   H15T14270   1.690   2.826   7.928  1.4801 -0.9130  0.7454
  132OSM   C16S14271   1.682   2.755   8.137  0.0672 -0.1588 -0.2618
  132OSM   H16S14272   1.611   2.686   8.188 -0.1108  1.3966  1.6449
  132OSM   H16T14273   1.684   2.849   8.196  1.5110 -1.8765  2.5735
  132OSM   C17S14274   1.817   2.696   8.156  0.6771  0.2733  0.0423
  132OSM   H17S14275   1.900   2.738   8.095  2.1420 -2.2205  0.2421
  132OSM   H17T14276   1.811   2.588   8.132 -1.8294  0.6963 -1.3378
  132OSM   C18S14277   1.869   2.699   8.304 -0.0634  0.3241  0.1234
  132OSM   H18S14278   1.823   2.618   8.364  1.4977 -0.5027  0.2221
  132OSM   H18T14279   1.834   2.795   8.348 -1.0718 -0.4422  1.0139
  132OSM   H18U14280   1.980   2.701   8.308 -0.0664  0.9277 -0.0616
  132OSM    C1F14281   1.325   2.454   7.027  0.5330 -1.2028  0.4819
  132OSM     OF14282   1.412   2.399   6.963  0.7445 -0.3813 -0.6298
  132OSM    C2F14283   1.261   2.400   7.149 -0.3982 -0.4052 -0.2461
  132OSM    H2F14284   1.209   2.304   7.128  0.3128 -1.2575  1.7251
  132OSM    H2G14285   1.189   2.473   7.191  0.1645 -1.5449  2.8022
  132OSM    C3F14286   1.374   2.392   7.256  0.0157 -0.6160  0.0178
  132OSM    H3F14287   1.430   2.488   7.267  1.2668 -1.2797 -0.3824
  132OSM    H3G14288   1.451   2.317   7.227 -0.2585 -0.6662 -0.5906
  132OSM    C4F14289   1.335   2.346   7.397  0.2235 -0.0694  0.3891
  132OSM    H4F14290   1.270   2.260   7.372  0.0522  0.1691  0.0056
  132OSM    H4G14291   1.271   2.416   7.454  2.0276  3.4351 -1.7046
  132OSM    C5F14292   1.448   2.276   7.472  0.5624 -0.1336 -0.2705
  132OSM    H5F14293   1.540   2.338   7.474  1.2064 -1.1119  1.8453
  132OSM    H5G14294   1.494   2.194   7.414  0.4736 -0.3333 -0.0596
  132OSM    C6F14295   1.408   2.211   7.609 -0.2633  0.0686 -0.4065
  132OSM    H6F14296   1.340   2.128   7.582 -2.2711  1.2468  0.9061
  132OSM    H6G14297   1.368   2.293   7.673  1.9069  0.3161  0.6990
  132OSM    C7F14298   1.533   2.139   7.673 -0.1497 -0.0224  0.3697
  132OSM    H7F14299   1.611   2.212   7.703 -1.2016  1.4120 -0.2540
  132OSM    H7G14300   1.573   2.073   7.594 -1.9943  0.1659 -0.7686
  132OSM    C8F14301   1.508   2.053   7.799 -0.0471 -0.3627  0.4545
  132OSM    H8F14302   1.603   2.004   7.826  0.1212  0.0085  0.5323
  132OSM    H8G14303   1.429   1.981   7.768 -0.2581  1.0892 -2.6719
  132OSM    C9F14304   1.440   2.118   7.911 -0.0081 -0.2095  0.6200
  132OSM    H9F14305   1.362   2.193   7.891 -0.5562 -0.6708  0.9769
  132OSM   C10F14306   1.440   2.090   8.040  0.0105  0.2282 -0.8866
  132OSM   H10F14307   1.378   2.156   8.102  0.4577 -0.2820  0.1351
  132OSM   C11F14308   1.526   1.994   8.117 -0.0263 -0.6002  0.2327
  132OSM   H11F14309   1.475   1.961   8.211 -1.2974 -0.4180 -0.3809
  132OSM   H11G14310   1.617   2.052   8.140  1.5995 -2.2804 -1.7309
  132OSM   C12F14311   1.539   1.856   8.050 -0.0315  0.2813  0.4322
  132OSM   H12F14312   1.620   1.868   7.975 -0.4914  0.0641 -0.0999
  132OSM   H12G14313   1.450   1.832   7.989  0.5422 -0.9448  0.0676
  132OSM   C13F14314   1.584   1.739   8.139 -0.4721  0.6323  0.0816
  132OSM   H13F14315   1.515   1.728   8.225 -2.4574 -0.0651 -1.5796
  132OSM   H13G14316   1.680   1.780   8.177  0.9434  0.9522 -3.6212
  132OSM   C14F14317   1.622   1.610   8.054 -0.0922 -0.2450 -0.1955
  132OSM   H14F14318   1.680   1.651   7.969 -0.6695 -0.1544 -0.5476
  132OSM   H14G14319   1.536   1.557   8.009 -2.6451  3.4004  0.2353
  132OSM   C15F14320   1.719   1.513   8.127 -0.4168  0.2008 -0.0527
  132OSM   H15F14321   1.662   1.453   8.200  0.3733 -1.2666 -0.6163
  132OSM   H15G14322   1.809   1.563   8.170 -1.8963  2.5362  0.4477
  132OSM   C16F14323   1.781   1.414   8.023  0.2007 -0.4534 -0.4078
  132OSM   H16F14324   1.815   1.486   7.945 -0.4343 -0.1447 -0.3995
  132OSM   H16G14325   1.700   1.349   7.983  1.0401 -1.3664 -0.6543
  132OSM   C17F14326   1.889   1.326   8.078 -0.4592  0.5332  0.1445
  132OSM   H17F14327   1.842   1.270   8.161 -2.8374 -0.5763 -1.8931
  132OSM   H17G14328   1.968   1.397   8.112 -1.4355  1.8246 -0.2703
  132OSM   C18F14329   1.958   1.220   7.989  0.7093 -0.5967 -0.1448
  132OSM   H18F14330   1.951   1.246   7.881 -0.1313 -1.1410 -0.2314
  132OSM   H18G14331   1.902   1.127   8.011  0.9148 -0.0707  2.7686
  132OSM   H18H14332   2.061   1.191   8.018  0.7521  0.5448  0.8924
  133OSM      N14333   1.706   2.806   6.441 -0.1153  0.4698 -0.1037
  133OSM    C1514334   1.628   2.780   6.563 -0.3828  0.7801 -0.5975
  133OSM   H15A14335   1.600   2.874   6.609  2.3871  1.5339 -0.3125
  133OSM   H15B14336   1.688   2.728   6.637  0.8429  2.6994 -0.1910
  133OSM   H15C14337   1.540   2.722   6.543 -1.4623  1.3516  2.1984
  133OSM    C1414338   1.635   2.904   6.355  0.2720 -0.3477 -0.0709
  133OSM   H14A14339   1.533   2.875   6.336 -0.0293 -0.3158  1.4670
  133OSM   H14B14340   1.693   2.922   6.265  0.3445  1.0066  0.2461
  133OSM   H14C14341   1.617   3.004   6.392 -0.4374  0.1383 -1.6628
  133OSM    C1314342   1.840   2.854   6.482 -0.9876  0.7035  0.1707
  133OSM   H13A14343   1.915   2.828   6.409 -0.8690 -0.2252  0.6097
  133OSM   H13B14344   1.873   2.808   6.574 -0.3971 -0.6184 -0.7003
  133OSM   H13C14345   1.836   2.962   6.495  0.0306  0.5491  2.0501
  133OSM    C1214346   1.721   2.669   6.369  0.2787 -0.2405 -0.1206
  133OSM   H12A14347   1.727   2.673   6.262 -0.2577 -1.3558 -0.1877
  133OSM   H12B14348   1.631   2.615   6.391 -0.4691  0.9963 -0.0684
  133OSM    C1114349   1.832   2.580   6.409 -0.2235 -0.5624 -0.1606
  133OSM   H11A14350   1.855   2.594   6.516 -0.0054  2.6310 -0.5542
  133OSM   H11B14351   1.926   2.618   6.362  0.4145 -0.3566  1.2639
  133OSM      P14352   1.868   2.323   6.412 -0.0981 -0.1173  0.5637
  133OSM    O1314353   1.807   2.212   6.334  0.0187 -0.1765  0.3828
  133OSM    O1414354   2.014   2.345   6.382  0.5993 -0.3293  0.0514
  133OSM    O1114355   1.837   2.305   6.568  0.1710  0.4618  0.7726
  133OSM    O1214356   1.790   2.450   6.368 -0.2910 -0.6617  0.3801
  133OSM    C1S14357   1.705   2.301   6.609 -0.0495  0.4184  0.1108
  133OSM    H1S14358   1.655   2.218   6.555 -1.0084  0.8873  0.2726
  133OSM    H1T14359   1.661   2.403   6.607  2.0334  1.3357 -0.2361
  133OSM     NF14360   1.569   2.214   6.813 -0.0996  0.0979  0.1755
  133OSM    HNF14361   1.539   2.272   6.889  1.7844  0.3401  0.7589
  133OSM    C2S14362   1.694   2.273   6.759  0.2289 -0.7856 -0.1028
  133OSM    H2S14363   1.769   2.193   6.781  1.6646  0.7359  0.7346
  133OSM    C3S14364   1.743   2.398   6.842  0.0035  0.3916 -0.2616
  133OSM    H3S14365   1.661   2.473   6.837  0.2962  1.0767  3.7783
  133OSM     O314366   1.858   2.468   6.793 -0.1169 -0.0238  0.8607
  133OSM    HO314367   1.874   2.435   6.704 -1.1446  1.0675  0.2542
  133OSM    C4S14368   1.776   2.366   6.984  0.4298 -0.4739  0.4532
  133OSM    H4S14369   1.856   2.293   7.001  2.3036  1.3607 -0.3209
  133OSM    C5S14370   1.728   2.427   7.095  0.1004  0.5090 -0.2277
  133OSM    H5S14371   1.651   2.502   7.076 -0.5370 -0.3237 -1.0049
  133OSM    C6S14372   1.770   2.394   7.237 -0.2493 -0.1393 -0.3074
  133OSM    H6S14373   1.686   2.432   7.299  0.9453 -0.3165  1.4556
  133OSM    H6T14374   1.844   2.470   7.270 -0.0702 -0.7774  0.7827
  133OSM    C7S14375   1.813   2.247   7.261  0.2227 -0.1978  0.2298
  133OSM    H7S14376   1.900   2.225   7.196 -0.9717 -1.3769 -1.0285
  133OSM    H7T14377   1.741   2.175   7.215  0.9410 -0.8624  0.1325
  133OSM    C8S14378   1.830   2.211   7.407  0.3905 -0.1890 -0.7181
  133OSM    H8S14379   1.865   2.105   7.406  0.9266 -0.1077  2.2851
  133OSM    H8T14380   1.728   2.208   7.451  1.2108  1.7160  1.4390
  133OSM    C9S14381   1.910   2.309   7.487 -0.1308 -0.7481 -0.9447
  133OSM    H9S14382   1.863   2.410   7.486  1.1252 -0.1613 -0.7701
  133OSM    H9T14383   2.007   2.326   7.436  0.3999  0.0146  0.2845
  133OSM   C10S14384   1.932   2.262   7.628 -0.4247 -0.5376 -0.3915
  133OSM   H10S14385   2.031   2.211   7.635  0.5083  1.3080  0.2296
  133OSM   H10T14386   1.847   2.194   7.647  0.3092 -1.0212  1.2207
  133OSM   C11S14387   1.935   2.374   7.739  0.4191 -0.2467 -0.2276
  133OSM   H11S14388   1.835   2.422   7.739  0.4104 -0.2619  0.3043
  133OSM   H11T14389   2.012   2.449   7.714 -2.4266  2.8195 -0.0700
  133OSM   C12S14390   1.956   2.315   7.877  0.2536 -0.0161 -0.3432
  133OSM   H12S14391   2.005   2.404   7.923  1.0834  0.4152 -1.9904
  133OSM   H12T14392   2.031   2.233   7.872  1.3262  1.0460 -2.6610
  133OSM   C13S14393   1.823   2.277   7.945  0.2198 -1.0794  0.3742
  133OSM   H13S14394   1.779   2.199   7.880  0.0964  0.3067 -1.2390
  133OSM   H13T14395   1.747   2.357   7.931  1.7888  0.8488  2.5048
  133OSM   C14S14396   1.842   2.239   8.095  0.4412  0.1274  0.9294
  133OSM   H14S14397   1.736   2.227   8.124  0.1134  1.1246  0.1750
  133OSM   H14T14398   1.894   2.324   8.145  0.4504  0.5478  0.2139
  133OSM   C15S14399   1.929   2.113   8.108 -0.2637 -0.7918  0.1684
  133OSM   H15S14400   2.031   2.143   8.077 -0.9697  1.0736 -0.3639
  133OSM   H15T14401   1.889   2.039   8.034  0.0069  1.1139 -1.9422
  133OSM   C16S14402   1.927   2.054   8.255 -0.0273  0.6220  0.2107
  133OSM   H16S14403   1.942   1.944   8.256 -0.3177  0.5857  1.4536
  133OSM   H16T14404   1.826   2.084   8.292 -0.5563  1.4722 -1.8487
  133OSM   C17S14405   2.028   2.114   8.343  0.2176  0.1172 -0.1667
  133OSM   H17S14406   2.025   2.226   8.343 -0.5255  0.0991  0.5966
  133OSM   H17T14407   2.130   2.090   8.305  1.2820 -1.2726  3.3764
  133OSM   C18S14408   2.038   2.063   8.490 -1.0149 -0.1038  0.7225
  133OSM   H18S14409   1.955   2.105   8.551  0.3016 -1.1722  3.3370
  133OSM   H18T14410   2.133   2.096   8.537 -0.2826  0.8392 -1.4133
  133OSM   H18U14411   2.035   1.952   8.498 -1.8842 -0.1974 -0.7657
  133OSM    C1F14412   1.504   2.103   6.771  0.3081  0.1748  0.1928
  133OSM     OF14413   1.544   2.028   6.682 -0.3648  0.0880  0.0371
  133OSM    C2F14414   1.363   2.102   6.827 -0.1504 -0.2553 -0.2426
  133OSM    H2F14415   1.294   2.137   6.748 -3.3937  0.9176  2.9494
  133OSM    H2G14416   1.341   2.167   6.915  1.3219  0.1129 -0.1318
  133OSM    C3F14417   1.313   1.964   6.875 -0.0781 -0.0513  0.3536
  133OSM    H3F14418   1.382   1.925   6.953 -0.5107 -1.5124  0.0324
  133OSM    H3G14419   1.317   1.898   6.786  2.0984  2.8039 -1.7279
  133OSM    C4F14420   1.170   1.974   6.931 -0.7165 -0.2556 -0.0082
  133OSM    H4F14421   1.127   2.047   6.860  2.0950  0.3616 -1.1406
  133OSM    H4G14422   1.182   2.032   7.025  1.1004 -0.0451 -0.3558
  133OSM    C5F14423   1.110   1.841   6.949 -0.3017  0.1086 -0.4528
  133OSM    H5F14424   1.103   1.779   6.857 -1.2984  2.3797 -1.9532
  133OSM    H5G14425   1.002   1.860   6.971 -0.5560 -0.2590 -1.3936
  133OSM    C6F14426   1.174   1.769   7.075  0.2827  0.0935  0.9617
  133OSM    H6F14427   1.164   1.841   7.159 -0.5342  1.3863 -0.2294
  133OSM    H6G14428   1.280   1.747   7.050 -0.0245  0.1332 -0.4499
  133OSM    C7F14429   1.099   1.644   7.114 -0.3135 -0.5272 -0.0163
  133OSM    H7F14430   1.171   1.583   7.173 -0.9105 -0.0183  1.2355
  133OSM    H7G14431   1.099   1.585   7.019  1.6664  0.5297 -0.7147
  133OSM    C8F14432   0.973   1.657   7.186 -0.2075  0.1237  0.0652
  133OSM    H8F14433   0.924   1.557   7.192  2.4222 -1.2983 -1.2294
  133OSM    H8G14434   0.911   1.727   7.126  3.2938  3.2559 -0.0928
  133OSM    C9F14435   0.991   1.728   7.320 -0.4405  0.5376 -0.1795
  133OSM    H9F14436   1.095   1.741   7.353 -0.6113  0.7422  0.2972
  133OSM   C10F14437   0.899   1.747   7.409 -0.1019  0.6399 -0.4902
  133OSM   H10F14438   0.930   1.792   7.505 -0.1581  0.2995 -0.3093
  133OSM   C11F14439   0.755   1.691   7.401 -0.0961 -0.3793  0.1693
  133OSM   H11F14440   0.720   1.667   7.298  1.8778  1.1046 -0.8785
  133OSM   H11G14441   0.682   1.770   7.429  0.1258 -0.4599  0.9863
  133OSM   C12F14442   0.734   1.567   7.489  0.2193  0.4435  0.0924
  133OSM   H12F14443   0.786   1.486   7.433 -3.0135 -0.2238 -2.1597
  133OSM   H12G14444   0.626   1.542   7.479  0.2705 -0.0206  0.6692
  133OSM   C13F14445   0.779   1.573   7.632  0.0762 -0.5997 -0.0292
  133OSM   H13F14446   0.714   1.645   7.686  2.1328  0.8186  0.6143
  133OSM   H13G14447   0.882   1.615   7.632  0.1031 -0.6467 -1.6759
  133OSM   C14F14448   0.786   1.439   7.701  0.5413 -0.5207 -0.7280
  133OSM   H14F14449   0.882   1.415   7.751 -0.4923  0.7576  1.9733
  133OSM   H14G14450   0.773   1.360   7.623 -0.7628 -0.2965 -0.7576
  133OSM   C15F14451   0.668   1.417   7.798 -0.5389  0.2844 -0.1418
  133OSM   H15F14452   0.647   1.308   7.791 -1.8740  0.6344 -1.9154
  133OSM   H15G14453   0.576   1.470   7.764 -1.1400 -0.0705  0.9113
  133OSM   C16F14454   0.693   1.442   7.952 -0.2748  0.2043 -0.5227
  133OSM   H16F14455   0.738   1.544   7.964  0.7139 -0.3484  0.5643
  133OSM   H16G14456   0.770   1.370   7.986 -0.0712  0.6476 -0.0223
  133OSM   C17F14457   0.578   1.448   8.044  0.2524 -0.2591 -0.2920
  133OSM   H17F14458   0.509   1.365   8.017 -0.5015 -0.2055  1.4491
  133OSM   H17G14459   0.520   1.541   8.030  1.9632  1.1563  1.7931
  133OSM   C18F14460   0.613   1.428   8.194 -0.1667  0.0055 -0.3024
  133OSM   H18F14461   0.652   1.518   8.246  0.4322 -0.4176 -0.0181
  133OSM   H18G14462   0.699   1.358   8.198 -0.5125 -0.3955  0.1399
  133OSM   H18H14463   0.526   1.384   8.247  0.2094  0.2324  0.5033
  134OSM      N14464   2.186   6.281   6.350 -0.4028  0.3681 -0.2641
  134OSM    C1514465   2.258   6.241   6.220  0.4466 -0.5831  0.2988
  134OSM   H15A14466   2.349   6.299   6.210  0.4689 -1.0009 -2.0614
  134OSM   H15B14467   2.189   6.255   6.138  0.4204  1.8656  0.7049
  134OSM   H15C14468   2.276   6.135   6.218 -0.7181 -0.8601  2.5082
  134OSM    C1414469   2.158   6.426   6.344 -0.7458 -0.0301 -0.8523
  134OSM   H14A14470   2.106   6.460   6.256  0.9270  0.6320 -1.6069
  134OSM   H14B14471   2.253   6.476   6.348 -1.2436  0.8014  1.3534
  134OSM   H14C14472   2.084   6.446   6.420  1.2038  0.2569  1.0255
  134OSM    C1314473   2.051   6.213   6.365 -0.1407  0.0492 -0.5184
  134OSM   H13A14474   1.994   6.224   6.274 -1.4087  0.2579  0.2902
  134OSM   H13B14475   1.994   6.251   6.449 -1.3022  0.2012 -1.3745
  134OSM   H13C14476   2.075   6.108   6.379  0.8120  0.3637  0.3156
  134OSM    C1214477   2.272   6.237   6.467  0.2037  0.4765  0.0809
  134OSM   H12A14478   2.231   6.282   6.557  1.8532  0.5961  0.7817
  134OSM   H12B14479   2.370   6.280   6.461 -0.0960  1.2957  0.8968
  134OSM    C1114480   2.290   6.087   6.493 -0.4425  0.3365  0.2807
  134OSM   H11A14481   2.194   6.036   6.515 -0.4757  0.8306  1.3262
  134OSM   H11B14482   2.361   6.085   6.579  1.1747  1.9864 -0.9832
  134OSM      P14483   2.455   5.893   6.394 -0.2236 -0.2278 -0.2517
  134OSM    O1314484   2.454   5.823   6.270 -0.8179  0.1644  1.1255
  134OSM    O1414485   2.587   5.934   6.438 -0.0478  0.1388 -0.0124
  134OSM    O1114486   2.406   5.785   6.489 -0.4877 -0.1331 -0.2668
  134OSM    O1214487   2.353   6.017   6.385 -0.4094 -0.7524  0.5490
  134OSM    C1S14488   2.432   5.775   6.627 -0.0659  0.1066  0.4328
  134OSM    H1S14489   2.354   5.836   6.677 -2.0028  0.1225 -2.4811
  134OSM    H1T14490   2.529   5.817   6.660 -0.7568  0.4584  2.1078
  134OSM     NF14491   2.489   5.639   6.817  0.8547 -0.3452  0.1391
  134OSM    HNF14492   2.582   5.609   6.836  0.5149 -1.0942  0.6657
  134OSM    C2S14493   2.454   5.627   6.677  0.4003  0.1731 -0.3435
  134OSM    H2S14494   2.353   5.579   6.675  0.1910  0.6460 -1.3257
  134OSM    C3S14495   2.549   5.551   6.592 -0.2781  0.7446  0.1327
  134OSM    H3S14496   2.646   5.602   6.578 -0.5889  0.8049 -1.9949
  134OSM     O314497   2.514   5.525   6.458 -0.2072  0.4947 -0.3953
  134OSM    HO314498   2.464   5.602   6.433 -1.2483  0.1318  0.5362
  134OSM    C4S14499   2.567   5.414   6.651  0.3025  0.2427  0.0457
  134OSM    H4S14500   2.469   5.370   6.676  0.9932 -1.0781  0.4956
  134OSM    C5S14501   2.680   5.359   6.694 -0.0953 -0.7701 -0.3219
  134OSM    H5S14502   2.768   5.422   6.681  0.3268 -1.3061 -0.0802
  134OSM    C6S14503   2.701   5.229   6.760 -0.2123  0.3003  0.2948
  134OSM    H6S14504   2.775   5.173   6.700  0.8789  1.2752  0.6917
  134OSM    H6T14505   2.611   5.164   6.766  0.0579  0.0008  1.2461
  134OSM    C7S14506   2.750   5.240   6.908 -0.2238 -0.4980  0.3599
  134OSM    H7S14507   2.843   5.299   6.920 -0.2601 -0.5436  0.8726
  134OSM    H7T14508   2.766   5.133   6.935 -1.5211 -1.1176 -1.2170
  134OSM    C8S14509   2.625   5.287   6.995 -0.2892  0.2249  1.1429
  134OSM    H8S14510   2.530   5.231   6.979 -1.1202  1.5943  1.1272
  134OSM    H8T14511   2.615   5.394   6.967  2.3268  0.2016 -0.0196
  134OSM    C9S14512   2.662   5.293   7.142  0.2058 -0.2038  0.1262
  134OSM    H9S14513   2.689   5.190   7.174  1.1462  0.2712  0.8679
  134OSM    H9T14514   2.573   5.341   7.189  0.6269  0.6568  0.0641
  134OSM   C10S14515   2.774   5.386   7.177 -0.1331 -0.4440  0.0347
  134OSM   H10S14516   2.774   5.474   7.108  2.6005 -0.7083 -0.3582
  134OSM   H10T14517   2.872   5.338   7.159 -0.3973 -1.8579  2.1637
  134OSM   C11S14518   2.770   5.441   7.317 -0.5899 -0.3347 -0.0313
  134OSM   H11S14519   2.681   5.508   7.326 -1.9278 -2.2601  1.5521
  134OSM   H11T14520   2.858   5.507   7.324 -1.1225  0.5735 -1.5030
  134OSM   C12S14521   2.778   5.341   7.436 -0.8310 -0.7404 -0.0183
  134OSM   H12S14522   2.872   5.283   7.436 -0.9789 -1.0220 -2.0579
  134OSM   H12T14523   2.700   5.264   7.418 -0.4909 -1.8406  2.8743
  134OSM   C13S14524   2.731   5.411   7.561 -0.2453  0.2106  0.5872
  134OSM   H13S14525   2.672   5.349   7.632 -2.1745 -1.6585 -2.5096
  134OSM   H13T14526   2.658   5.491   7.535 -1.5670 -1.1657  0.0180
  134OSM   C14S14527   2.846   5.465   7.651  0.6202 -0.5435  0.1218
  134OSM   H14S14528   2.897   5.542   7.590 -0.1657 -0.4322 -0.3964
  134OSM   H14T14529   2.914   5.379   7.669  0.3188 -1.1616 -1.6459
  134OSM   C15S14530   2.800   5.507   7.791  0.2495 -0.9996 -0.2893
  134OSM   H15S14531   2.762   5.417   7.844  0.3592  0.0246  1.5714
  134OSM   H15T14532   2.728   5.590   7.776  0.5501 -0.5112  0.9101
  134OSM   C16S14533   2.922   5.561   7.874 -1.0259  0.5994  0.2202
  134OSM   H16S14534   2.970   5.647   7.822  2.4207 -1.6277 -0.4108
  134OSM   H16T14535   2.997   5.480   7.882 -1.8582 -0.2942 -0.7839
  134OSM   C17S14536   2.895   5.603   8.012  0.0540  0.5931  0.6617
  134OSM   H17S14537   2.836   5.697   8.009 -0.4277  0.2351 -2.2719
  134OSM   H17T14538   2.994   5.631   8.053  0.0338  0.7021  0.6370
  134OSM   C18S14539   2.827   5.488   8.093  0.0927 -0.3519 -0.7235
  134OSM   H18S14540   2.745   5.440   8.035 -0.4626 -1.5488  1.0296
  134OSM   H18T14541   2.779   5.525   8.186  1.5473  0.7562 -0.3842
  134OSM   H18U14542   2.903   5.411   8.118  0.3782 -0.0790 -0.7382
  134OSM    C1F14543   2.415   5.680   6.916  0.1786 -0.2418 -0.6300
  134OSM     OF14544   2.299   5.716   6.900  0.1092 -0.2669  0.2633
  134OSM    C2F14545   2.488   5.677   7.044  0.3564 -0.9407  0.0251
  134OSM    H2F14546   2.590   5.713   7.022 -0.5504  1.6640 -0.1249
  134OSM    H2G14547   2.492   5.571   7.076  0.4415 -0.7853  0.5420
  134OSM    C3F14548   2.421   5.765   7.151  0.1473 -0.2365  0.5979
  134OSM    H3F14549   2.313   5.742   7.164  0.5504 -2.4577  0.2983
  134OSM    H3G14550   2.422   5.872   7.121 -0.2681  0.3459  2.6154
  134OSM    C4F14551   2.489   5.750   7.289  0.3237 -0.0098  0.0097
  134OSM    H4F14552   2.590   5.795   7.275  1.7365 -3.2041 -0.3828
  134OSM    H4G14553   2.485   5.644   7.322 -2.4333  0.1481  0.3411
  134OSM    C5F14554   2.416   5.828   7.404 -0.5707 -0.1979 -0.7790
  134OSM    H5F14555   2.306   5.820   7.386 -0.5287  2.2846 -2.4124
  134OSM    H5G14556   2.459   5.930   7.394  0.1237 -0.2631  1.2777
  134OSM    C6F14557   2.441   5.776   7.543  0.9112  0.0401  0.8682
  134OSM    H6F14558   2.550   5.770   7.564  0.9297  0.7660  0.9952
  134OSM    H6G14559   2.405   5.671   7.552  1.5462 -0.1226  1.6222
  134OSM    C7F14560   2.370   5.851   7.655 -0.0310 -0.1490  0.0634
  134OSM    H7F14561   2.260   5.842   7.645  0.1429 -2.1572 -0.2171
  134OSM    H7G14562   2.394   5.959   7.655  1.2319 -0.4227  0.4509
  134OSM    C8F14563   2.400   5.801   7.798  0.2698 -0.4434  0.1467
  134OSM    H8F14564   2.508   5.812   7.823  0.6831 -1.4853 -1.1431
  134OSM    H8G14565   2.377   5.693   7.806 -0.3923 -0.2203  1.3706
  134OSM    C9F14566   2.305   5.875   7.892  0.8864  0.1613  0.3017
  134OSM    H9F14567   2.272   5.975   7.859 -0.1702 -0.2299  0.1393
  134OSM   C10F14568   2.263   5.820   8.006  0.1180 -0.5218  0.1827
  134OSM   H10F14569   2.195   5.885   8.062  1.0954 -0.1664  0.9590
  134OSM   C11F14570   2.306   5.689   8.075  0.4813 -1.0481  0.6117
  134OSM   H11F14571   2.396   5.649   8.023 -0.8555 -0.7055 -2.1053
  134OSM   H11G14572   2.229   5.609   8.066 -1.9184  1.4080 -2.1093
  134OSM   C12F14573   2.349   5.716   8.218  0.1826 -0.7466  0.0751
  134OSM   H12F14574   2.402   5.628   8.260 -0.4262 -0.4447  1.5161
  134OSM   H12G14575   2.251   5.733   8.270  2.3549  4.1779  2.9294
  134OSM   C13F14576   2.435   5.842   8.254 -0.2653  0.5530 -0.0825
  134OSM   H13F14577   2.377   5.930   8.218  1.3303  0.9751 -1.7497
  134OSM   H13G14578   2.522   5.860   8.187 -0.1892  3.8620  0.8314
  134OSM   C14F14579   2.482   5.865   8.401 -0.3479  0.2902  0.5438
  134OSM   H14F14580   2.391   5.904   8.453 -0.2415  0.3997  0.6485
  134OSM   H14G14581   2.560   5.943   8.407 -0.0719  0.0398  0.1716
  134OSM   C15F14582   2.514   5.746   8.482 -0.2080  0.2222 -1.0522
  134OSM   H15F14583   2.598   5.691   8.434 -0.2510  0.7715 -1.7599
  134OSM   H15G14584   2.427   5.678   8.498 -0.1138  0.5607  1.1222
  134OSM   C16F14585   2.591   5.786   8.610 -0.1995 -0.4922 -0.3954
  134OSM   H16F14586   2.525   5.830   8.687  1.4689 -0.3204  0.9681
  134OSM   H16G14587   2.657   5.872   8.588 -0.4826  0.0738  0.9404
  134OSM   C17F14588   2.652   5.663   8.681 -0.0486 -0.0497  0.0791
  134OSM   H17F14589   2.578   5.580   8.683  0.0461 -0.1693 -0.9278
  134OSM   H17G14590   2.667   5.697   8.786  0.5382  0.2409 -0.1019
  134OSM   C18F14591   2.785   5.623   8.614  0.4195 -0.4191  0.2187
  134OSM   H18F14592   2.848   5.560   8.679 -1.0502  0.0570  2.1449
  134OSM   H18G14593   2.853   5.709   8.596  0.3406  0.2572  2.9270
  134OSM   H18H14594   2.763   5.573   8.517 -2.6949  0.0377  0.6189
  135OSM      N14595   2.167   5.554   6.105 -0.0409  0.2523  0.2625
  135OSM    C1514596   2.114   5.679   6.030 -0.7815  0.3873 -0.0515
  135OSM   H15A14597   2.006   5.680   6.034 -0.8225 -2.7513  1.2386
  135OSM   H15B14598   2.147   5.683   5.928 -0.1287 -1.2604  0.0863
  135OSM   H15C14599   2.151   5.763   6.086 -1.2729  0.4347  0.2113
  135OSM    C1414600   2.125   5.440   6.019  0.2099  0.0792  0.2463
  135OSM   H14A14601   2.018   5.439   6.009  0.0900  1.1024  1.3609
  135OSM   H14B14602   2.168   5.351   6.063  2.0588  1.5462  1.4938
  135OSM   H14C14603   2.168   5.449   5.920  2.5082 -1.5336  1.0461
  135OSM    C1314604   2.321   5.568   6.108 -0.5055  0.0662  0.5530
  135OSM   H13A14605   2.355   5.589   6.008 -1.2294  0.6139  0.4147
  135OSM   H13B14606   2.362   5.477   6.150  1.6710  0.0955 -1.4291
  135OSM   H13C14607   2.364   5.639   6.177  0.5500  2.3066 -2.2921
  135OSM    C1214608   2.113   5.539   6.244  0.4518 -0.2592  0.7619
  135OSM   H12A14609   2.152   5.449   6.289 -0.5304 -1.7911 -1.3101
  135OSM   H12B14610   2.008   5.518   6.231 -0.1393  2.2903  1.1827
  135OSM    C1114611   2.121   5.645   6.350  0.0982 -0.0830  0.3086
  135OSM   H11A14612   2.220   5.694   6.352  0.3006 -0.4977  0.4883
  135OSM   H11B14613   2.096   5.593   6.446 -1.7179  0.8551  0.3633
  135OSM      P14614   1.880   5.745   6.380 -0.1981  0.0573 -0.1376
  135OSM    O1314615   1.824   5.882   6.361  0.1217 -0.0570  0.5013
  135OSM    O1414616   1.805   5.626   6.331 -0.2176  0.2285 -0.0222
  135OSM    O1114617   1.916   5.720   6.527  0.2935 -0.3500 -0.1901
  135OSM    O1214618   2.025   5.746   6.316 -0.1528  0.1414 -0.7331
  135OSM    C1S14619   2.007   5.806   6.588  0.0098 -0.4139  0.1125
  135OSM    H1S14620   1.997   5.910   6.548  0.7408 -0.6321 -0.6588
  135OSM    H1T14621   2.113   5.775   6.574  0.9338  2.6096 -0.0450
  135OSM     NF14622   2.077   5.905   6.811  0.4472  0.4360 -1.1995
  135OSM    HNF14623   2.156   5.866   6.856  0.8805  1.8047 -0.7614
  135OSM    C2S14624   1.981   5.807   6.745  0.4079 -0.4393 -0.2546
  135OSM    H2S14625   1.877   5.846   6.751 -0.2167 -2.1221  0.0914
  135OSM    C3S14626   1.989   5.660   6.795 -0.3137 -0.1022 -0.9428
  135OSM    H3S14627   2.089   5.620   6.767  0.2012  0.1393  0.5459
  135OSM     O314628   1.885   5.574   6.748  0.1693 -0.4365 -0.6092
  135OSM    HO314629   1.847   5.608   6.666 -0.0754  1.8833  0.4060
  135OSM    C4S14630   1.977   5.658   6.957  0.5188  0.2196  0.6784
  135OSM    H4S14631   2.073   5.665   7.009  1.0223  1.4212 -0.3981
  135OSM    C5S14632   1.870   5.641   7.037  0.5788  0.1307  0.0607
  135OSM    H5S14633   1.771   5.623   6.993  0.5424 -1.9104  0.9634
  135OSM    C6S14634   1.861   5.633   7.193 -0.3937  0.1150 -0.3460
  135OSM    H6S14635   1.834   5.528   7.215  1.5652  0.1007  2.2125
  135OSM    H6T14636   1.781   5.703   7.227 -1.2382 -1.0959  0.1950
  135OSM    C7S14637   1.993   5.662   7.276  0.2922 -0.6741 -1.0301
  135OSM    H7S14638   2.036   5.764   7.268  1.3017 -0.9897  0.2823
  135OSM    H7T14639   2.064   5.592   7.228  0.8971  0.1284 -1.3047
  135OSM    C8S14640   1.982   5.639   7.433 -0.2560  0.2000 -0.5397
  135OSM    H8S14641   1.919   5.547   7.427 -1.9734  1.2014  1.4862
  135OSM    H8T14642   1.913   5.719   7.468 -0.7169  0.7037 -2.5336
  135OSM    C9S14643   2.116   5.617   7.501 -0.0870  0.6241 -0.4566
  135OSM    H9S14644   2.186   5.698   7.472  2.0341 -1.3821 -1.1175
  135OSM    H9T14645   2.158   5.520   7.469  1.2521  0.4619  1.6459
  135OSM   C10S14646   2.104   5.616   7.651  0.2563 -0.1985  0.5083
  135OSM   H10S14647   2.061   5.708   7.696 -0.1062 -0.6066  1.0030
  135OSM   H10T14648   2.198   5.582   7.700 -0.0826 -1.1001  0.5375
  135OSM   C11S14649   1.995   5.515   7.704  0.0474 -0.6924 -0.1729
  135OSM   H11S14650   2.027   5.415   7.667 -0.4082 -0.7361 -0.4448
  135OSM   H11T14651   1.894   5.538   7.665 -0.1372 -1.6255 -0.2342
  135OSM   C12S14652   2.008   5.506   7.862 -0.2956  0.0455 -0.2293
  135OSM   H12S14653   2.005   5.610   7.902  2.1208 -0.3622  1.0543
  135OSM   H12T14654   2.112   5.478   7.886 -0.5207 -0.5204  0.0945
  135OSM   C13S14655   1.900   5.427   7.929  0.0299  0.1222  0.5658
  135OSM   H13S14656   1.920   5.318   7.924  0.1572  0.2014 -0.8195
  135OSM   H13T14657   1.800   5.450   7.886  0.8448 -0.9839 -1.9989
  135OSM   C14S14658   1.877   5.465   8.076  0.0885 -0.0940 -0.2459
  135OSM   H14S14659   1.769   5.457   8.104  0.1200 -2.2321 -0.6643
  135OSM   H14T14660   1.910   5.571   8.080 -0.2347  0.1921 -4.0929
  135OSM   C15S14661   1.966   5.392   8.183  0.1884  0.0133  0.4630
  135OSM   H15S14662   2.071   5.401   8.151  0.6114 -1.2398  1.4515
  135OSM   H15T14663   1.928   5.288   8.185 -0.0230  0.1007  1.8025
  135OSM   C16S14664   1.947   5.445   8.327 -0.3080  1.0107  0.4629
  135OSM   H16S14665   1.837   5.439   8.341 -0.2959  1.2699  0.6799
  135OSM   H16T14666   1.971   5.553   8.330 -0.4583  1.0458  0.3725
  135OSM   C17S14667   2.032   5.383   8.438 -0.3036  0.0891  0.0829
  135OSM   H17S14668   2.139   5.381   8.410 -0.7886  0.4141 -1.8758
  135OSM   H17T14669   1.991   5.282   8.459 -1.8313  0.4681 -0.9452
  135OSM   C18S14670   2.022   5.458   8.570 -0.2952  0.4833 -0.2712
  135OSM   H18S14671   1.914   5.460   8.596  0.1272 -0.0210  1.5548
  135OSM   H18T14672   2.050   5.566   8.564  1.5808  0.0180 -0.3028
  135OSM   H18U14673   2.078   5.406   8.651 -1.1085  1.6000  1.0278
  135OSM    C1F14674   2.065   6.038   6.791 -0.4288  0.7098 -0.0294
  135OSM     OF14675   1.972   6.081   6.729 -0.6412  0.1087 -0.4002
  135OSM    C2F14676   2.175   6.124   6.838 -0.3729  0.2892 -0.3157
  135OSM    H2F14677   2.142   6.230   6.846 -0.0682  0.3186  0.6299
  135OSM    H2G14678   2.261   6.118   6.768  0.0984 -0.4957  0.3106
  135OSM    C3F14679   2.229   6.071   6.976  0.0398 -0.1837 -0.8092
  135OSM    H3F14680   2.314   6.138   6.999  1.0244 -1.3741 -0.9435
  135OSM    H3G14681   2.283   5.974   6.984  3.9537  1.8626 -1.4320
  135OSM    C4F14682   2.117   6.079   7.086  0.3523  0.5812  0.2722
  135OSM    H4F14683   2.059   5.984   7.079  0.2419  0.5731  1.2795
  135OSM    H4G14684   2.043   6.157   7.059  0.6701  0.8861  0.2897
  135OSM    C5F14685   2.168   6.092   7.226  0.0627  0.4285  0.0277
  135OSM    H5F14686   2.230   6.184   7.230  0.6206  0.1943 -2.7085
  135OSM    H5G14687   2.229   6.005   7.258 -0.6440  0.0106  0.2622
  135OSM    C6F14688   2.065   6.101   7.342  0.3618  0.2128  0.3057
  135OSM    H6F14689   1.994   6.017   7.324  0.5029 -0.2276  1.7022
  135OSM    H6G14690   2.011   6.197   7.329 -0.1788 -0.1600 -0.2243
  135OSM    C7F14691   2.134   6.101   7.473  0.4967  0.2749  0.0681
  135OSM    H7F14692   2.211   6.180   7.473 -0.5671  1.3332 -0.5982
  135OSM    H7G14693   2.179   5.999   7.478 -4.5537 -2.1011  0.5816
  135OSM    C8F14694   2.024   6.115   7.581 -0.7693 -0.3149 -0.3932
  135OSM    H8F14695   2.040   6.035   7.656  2.8516  0.3046 -0.3965
  135OSM    H8G14696   1.926   6.090   7.537 -1.4199  1.2488  0.1409
  135OSM    C9F14697   2.024   6.249   7.650 -0.2912 -0.3693 -0.5027
  135OSM    H9F14698   2.065   6.328   7.586  2.5396  1.6354  3.6047
  135OSM   C10F14699   2.003   6.266   7.781 -0.4671 -0.2041  0.0088
  135OSM   H10F14700   2.010   6.364   7.830 -1.1225 -0.0137 -0.2754
  135OSM   C11F14701   1.975   6.156   7.879  0.3872 -0.4517 -0.5346
  135OSM   H11F14702   2.056   6.141   7.953 -0.5998 -0.1941  0.6000
  135OSM   H11G14703   1.956   6.058   7.831 -2.2213 -0.1860 -0.1214
  135OSM   C12F14704   1.868   6.191   7.971  1.0609 -0.3050 -0.1184
  135OSM   H12F14705   1.779   6.216   7.910  0.0362 -0.7902  1.1529
  135OSM   H12G14706   1.894   6.279   8.035 -1.3764 -0.8524  1.6947
  135OSM   C13F14707   1.838   6.080   8.076  0.1168  0.2438  0.0115
  135OSM   H13F14708   1.843   5.984   8.020  0.3232 -1.0302  2.1428
  135OSM   H13G14709   1.739   6.103   8.121 -0.2092  0.0337 -0.5949
  135OSM   C14F14710   1.936   6.078   8.196 -0.4640  0.1691  0.0306
  135OSM   H14F14711   1.950   6.181   8.234 -1.2167  0.1021  0.4927
  135OSM   H14G14712   2.037   6.044   8.163 -0.7788 -2.2814  1.4629
  135OSM   C15F14713   1.894   5.991   8.322 -0.1228 -0.3610  1.2219
  135OSM   H15F14714   1.880   5.890   8.280 -1.8871  0.1047  0.6497
  135OSM   H15G14715   1.805   6.028   8.378 -0.1879  0.8753  0.3130
  135OSM   C16F14716   2.013   5.993   8.417 -0.0031 -0.4050 -0.1031
  135OSM   H16F14717   2.023   6.099   8.448  0.0344 -0.9716  1.9091
  135OSM   H16G14718   2.111   5.955   8.380  1.5904  1.2793  2.2053
  135OSM   C17F14719   1.999   5.899   8.540  0.0849  0.2100  0.3701
  135OSM   H17F14720   2.066   5.811   8.541 -1.6482 -1.1523  0.5009
  135OSM   H17G14721   1.895   5.860   8.539  0.2598 -0.2960  1.1950
  135OSM   C18F14722   2.027   5.963   8.674  0.0835  0.0109  0.0924
  135OSM   H18F14723   2.123   6.020   8.680 -0.1336  0.3298  0.6196
  135OSM   H18G14724   2.033   5.890   8.757 -1.1950 -0.6964 -0.4392
  135OSM   H18H14725   1.946   6.036   8.693 -0.0538 -0.4730  1.3967
  136OSM      N14726   6.122   5.973   5.796 -0.4916 -0.1659  0.4133
  136OSM    C1514727   6.018   6.071   5.837  0.4115 -0.0256 -0.3723
  136OSM   H15A14728   5.919   6.034   5.816  0.3903  0.2132 -0.6971
  136OSM   H15B14729   6.034   6.161   5.779  0.6262  1.3764  1.8002
  136OSM   H15C14730   6.017   6.116   5.935 -3.2178  1.8901 -1.1678
  136OSM    C1414731   6.100   5.845   5.872 -0.3820 -0.2914 -0.1644
  136OSM   H14A14732   6.176   5.772   5.849 -0.6550 -0.6395  0.0254
  136OSM   H14B14733   6.007   5.798   5.841  0.3996 -1.2228 -1.1071
  136OSM   H14C14734   6.115   5.861   5.978 -1.3074 -0.3840 -0.0098
  136OSM    C1314735   6.100   5.947   5.648  0.1902 -1.1873  0.1604
  136OSM   H13A14736   6.168   5.871   5.610  0.2529 -0.5995 -0.9276
  136OSM   H13B14737   6.119   6.040   5.597  1.8989  0.0272  2.8944
  136OSM   H13C14738   6.002   5.913   5.617 -2.2169  3.1531  2.6754
  136OSM    C1214739   6.263   6.038   5.821  0.3213 -0.4810 -0.1245
  136OSM   H12A14740   6.268   6.139   5.784  1.8588 -0.0812  1.0980
  136OSM   H12B14741   6.325   5.968   5.767 -1.8281 -1.8398 -0.9055
  136OSM    C1114742   6.336   6.030   5.955  0.2119  0.1235  0.2156
  136OSM   H11A14743   6.446   6.039   5.947  0.2275  2.1724  2.2616
  136OSM   H11B14744   6.312   5.928   5.995  0.6642  0.5767  1.6964
  136OSM      P14745   6.302   6.273   6.011  0.0086  0.0236 -0.0243
  136OSM    O1314746   6.434   6.286   5.949  0.0794  0.9134 -0.3881
  136OSM    O1414747   6.187   6.342   5.946 -0.6630  0.2483 -0.8166
  136OSM    O1114748   6.318   6.328   6.158 -0.0779  0.1146 -0.5957
  136OSM    O1214749   6.272   6.126   6.036 -0.2817 -0.1471  0.2482
  136OSM    C1S14750   6.427   6.278   6.243 -0.4899 -0.4030  0.5482
  136OSM    H1S14751   6.519   6.334   6.215 -1.4792  0.1636 -1.6620
  136OSM    H1T14752   6.444   6.171   6.217  1.4302  0.2329 -0.9541
  136OSM     NF14753   6.522   6.232   6.464 -1.0246 -0.2323 -0.0846
  136OSM    HNF14754   6.514   6.137   6.492  3.4721 -0.3458  1.1206
  136OSM    C2S14755   6.413   6.289   6.396  0.5774 -0.6301 -0.6918
  136OSM    H2S14756   6.391   6.397   6.414 -0.0967 -1.1509  1.7950
  136OSM    C3S14757   6.274   6.233   6.443  0.6158  0.2701  0.3132
  136OSM    H3S14758   6.270   6.126   6.414 -0.6982  0.3459  0.1873
  136OSM     O314759   6.159   6.293   6.377  0.3834  0.0451  0.3179
  136OSM    HO314760   6.189   6.330   6.294 -2.7334  1.5806 -0.1923
  136OSM    C4S14761   6.251   6.257   6.590  0.5966  0.0092 -0.3199
  136OSM    H4S14762   6.281   6.358   6.621  0.5301 -0.2406  0.5655
  136OSM    C5S14763   6.210   6.168   6.685 -0.4474  0.7728  0.8084
  136OSM    H5S14764   6.188   6.065   6.654  1.2816  0.5100  0.4291
  136OSM    C6S14765   6.185   6.201   6.825 -0.3669 -0.0924  0.1120
  136OSM    H6S14766   6.102   6.149   6.878  0.5423 -1.3412  0.3316
  136OSM    H6T14767   6.184   6.311   6.839  0.6602  0.0156 -0.5995
  136OSM    C7S14768   6.301   6.128   6.900  0.8708 -0.1474 -0.2128
  136OSM    H7S14769   6.392   6.182   6.867  1.3745  0.2494  1.7546
  136OSM    H7T14770   6.311   6.022   6.866 -1.4281 -1.0239  1.6675
  136OSM    C8S14771   6.307   6.124   7.054  0.3985  0.9799  0.5185
  136OSM    H8S14772   6.374   6.042   7.086  1.1666  1.5816  0.4806
  136OSM    H8T14773   6.206   6.103   7.096 -0.6514  3.8160 -0.4495
  136OSM    C9S14774   6.349   6.261   7.117 -0.4212 -0.3934  0.1177
  136OSM    H9S14775   6.304   6.344   7.058  0.3986  0.0407  0.1005
  136OSM    H9T14776   6.459   6.261   7.102 -0.4329 -0.0446  0.0262
  136OSM   C10S14777   6.325   6.281   7.263  0.1205  0.2411 -0.1419
  136OSM   H10S14778   6.215   6.288   7.268  0.0547 -0.7745 -0.2039
  136OSM   H10T14779   6.364   6.380   7.297 -2.2146  1.1899 -0.1610
  136OSM   C11S14780   6.360   6.167   7.358 -0.2691  0.3084 -0.8220
  136OSM   H11S14781   6.469   6.151   7.368 -0.1625  1.2802 -0.4213
  136OSM   H11T14782   6.323   6.067   7.325  0.1405 -1.1648  2.9237
  136OSM   C12S14783   6.306   6.194   7.500 -0.7254  0.1627 -0.1330
  136OSM   H12S14784   6.195   6.187   7.506 -0.7281  0.7304  0.6581
  136OSM   H12T14785   6.330   6.289   7.552 -0.1684  0.1720 -0.4047
  136OSM   C13S14786   6.366   6.100   7.610  0.1374  0.0597  0.7043
  136OSM   H13S14787   6.470   6.132   7.630  0.4234 -2.3477  3.4398
  136OSM   H13T14788   6.362   5.997   7.569  0.8169 -0.1871  1.2405
  136OSM   C14S14789   6.292   6.117   7.746 -0.0460  0.1466 -0.8720
  136OSM   H14S14790   6.183   6.128   7.730 -0.3550 -1.0388  0.3012
  136OSM   H14T14791   6.323   6.218   7.781  2.2360 -0.1663 -1.9507
  136OSM   C15S14792   6.306   6.009   7.849 -0.6620 -0.2199  0.2473
  136OSM   H15S14793   6.414   5.993   7.870 -0.5585 -1.6882 -1.2858
  136OSM   H15T14794   6.274   5.913   7.804 -1.9030 -0.4189  1.5069
  136OSM   C16S14795   6.232   6.021   7.981  0.0162 -0.5355  0.0619
  136OSM   H16S14796   6.124   6.024   7.955 -1.2467 -4.0884  4.3116
  136OSM   H16T14797   6.264   6.111   8.037  1.5763 -1.6099  0.9574
  136OSM   C17S14798   6.233   5.902   8.074  0.4496  0.0383 -0.6794
  136OSM   H17S14799   6.334   5.892   8.120  0.3068  0.5963 -0.2326
  136OSM   H17T14800   6.207   5.809   8.020  1.2530  0.9080 -2.5733
  136OSM   C18S14801   6.133   5.919   8.193 -0.4739 -0.1646 -0.4684
  136OSM   H18S14802   6.148   6.021   8.234 -1.9911  0.2000 -0.8166
  136OSM   H18T14803   6.164   5.841   8.267 -1.3767  0.2735  0.3738
  136OSM   H18U14804   6.027   5.916   8.161 -1.1114 -1.0682  1.6292
  136OSM    C1F14805   6.638   6.296   6.478  0.7144 -0.4478 -0.4660
  136OSM     OF14806   6.651   6.413   6.449 -0.1878  0.6237 -0.2345
  136OSM    C2F14807   6.750   6.220   6.541  0.3681 -0.4685 -0.0624
  136OSM    H2F14808   6.849   6.259   6.509  0.4447 -1.7796 -1.4975
  136OSM    H2G14809   6.731   6.115   6.512 -1.4585 -0.8256  2.3422
  136OSM    C3F14810   6.748   6.251   6.693  0.3036  0.0056  0.5580
  136OSM    H3F14811   6.651   6.229   6.741 -0.5605  0.4293 -0.9724
  136OSM    H3G14812   6.763   6.361   6.699 -0.2990  0.2967 -2.4072
  136OSM    C4F14813   6.862   6.178   6.770 -0.6461 -0.4062  0.9712
  136OSM    H4F14814   6.961   6.210   6.729 -1.1197 -1.3787 -0.9737
  136OSM    H4G14815   6.855   6.073   6.736 -1.7705 -0.0336  0.0246
  136OSM    C5F14816   6.847   6.199   6.920  0.7546 -0.3779  0.0509
  136OSM    H5F14817   6.755   6.149   6.957 -0.5610  1.9844  0.0504
  136OSM    H5G14818   6.826   6.306   6.938  0.1023  0.0194 -2.8379
  136OSM    C6F14819   6.957   6.147   7.014 -0.2348 -0.7244  0.3798
  136OSM    H6F14820   7.049   6.177   6.959  0.5298 -1.7952  1.0431
  136OSM    H6G14821   6.960   6.036   7.015  2.0307 -0.6979  0.0560
  136OSM    C7F14822   6.953   6.209   7.155  0.0765 -0.0141 -0.1491
  136OSM    H7F14823   6.849   6.200   7.193 -0.9776  1.2126 -2.6089
  136OSM    H7G14824   6.979   6.317   7.147  1.2918 -0.4761 -3.2417
  136OSM    C8F14825   7.053   6.138   7.242  0.9368 -0.1701  0.1463
  136OSM    H8F14826   7.156   6.131   7.200  1.2264 -0.4493  0.9012
  136OSM    H8G14827   7.014   6.034   7.236 -0.0857  0.1093  1.7432
  136OSM    C9F14828   7.042   6.180   7.384  0.2076 -0.1409  0.4989
  136OSM    H9F14829   7.131   6.219   7.437 -0.0006 -1.0424  1.5405
  136OSM   C10F14830   6.936   6.173   7.468  0.2390  0.2610 -0.5886
  136OSM   H10F14831   6.949   6.204   7.573 -0.3599 -1.9489  0.1620
  136OSM   C11F14832   6.804   6.120   7.456  0.0819  0.1611 -0.1233
  136OSM   H11F14833   6.779   6.086   7.353 -2.0266  1.8580 -0.2068
  136OSM   H11G14834   6.725   6.191   7.487 -1.6881 -2.1911  0.9524
  136OSM   C12F14835   6.787   6.000   7.556 -0.4192  0.0384  0.3219
  136OSM   H12F14836   6.874   5.931   7.557  0.5166  1.2212  1.7925
  136OSM   H12G14837   6.692   5.950   7.526  0.6759 -1.8109 -0.1244
  136OSM   C13F14838   6.779   6.039   7.703  0.8001 -1.2273  0.0138
  136OSM   H13F14839   6.695   6.107   7.727  0.4224 -1.7604  0.2247
  136OSM   H13G14840   6.876   6.079   7.737 -0.1971  1.1906  0.1325
  136OSM   C14F14841   6.751   5.910   7.784  0.1129 -0.1686 -0.1042
  136OSM   H14F14842   6.838   5.842   7.771 -0.8588 -1.9235  2.3447
  136OSM   H14G14843   6.656   5.867   7.745  0.6777 -2.3454  0.8530
  136OSM   C15F14844   6.724   5.958   7.933  0.4434 -0.0898  1.0997
  136OSM   H15F14845   6.641   6.031   7.936 -0.3224 -0.9029 -0.0924
  136OSM   H15G14846   6.812   6.016   7.967 -1.5627  2.6605  1.7506
  136OSM   C16F14847   6.696   5.845   8.035  0.4511 -0.4087  0.2105
  136OSM   H16F14848   6.784   5.780   8.054 -1.2741 -2.7090  0.5790
  136OSM   H16G14849   6.614   5.774   8.011 -0.6449  0.3357  1.7097
  136OSM   C17F14850   6.659   5.895   8.178  0.2927  0.3616 -0.0423
  136OSM   H17F14851   6.574   5.966   8.174 -0.5872 -0.7735 -1.9479
  136OSM   H17G14852   6.748   5.955   8.210  0.8589 -0.3631 -0.2476
  136OSM   C18F14853   6.641   5.772   8.262 -0.3803  0.1334  0.0717
  136OSM   H18F14854   6.733   5.710   8.263 -0.8082 -0.5070  2.2053
  136OSM   H18G14855   6.552   5.715   8.226 -0.8546  0.5160  0.6385
  136OSM   H18H14856   6.624   5.785   8.371 -1.8252 -2.3980  0.1867
  137OSM      N14857   3.210   5.393   6.185  0.2078  0.2009 -0.0120
  137OSM    C1514858   3.348   5.361   6.136 -0.1802  0.0399 -0.4295
  137OSM   H15A14859   3.421   5.374   6.215 -1.2826  1.5299  0.3737
  137OSM   H15B14860   3.372   5.426   6.053  2.6593 -0.3840  0.0115
  137OSM   H15C14861   3.359   5.262   6.096  1.6114  0.2454 -0.5240
  137OSM    C1414862   3.206   5.543   6.198  0.0931  0.1601 -0.6596
  137OSM   H14A14863   3.267   5.578   6.280 -0.3308  1.0575 -0.7261
  137OSM   H14B14864   3.102   5.570   6.210 -0.5059 -2.2368 -0.0559
  137OSM   H14C14865   3.240   5.589   6.106 -0.0664 -0.2265 -0.9190
  137OSM    C1314866   3.103   5.360   6.085 -0.4027  0.3305 -1.0046
  137OSM   H13A14867   3.003   5.393   6.111 -0.1926 -0.1993  0.5331
  137OSM   H13B14868   3.097   5.253   6.094 -0.3392  0.2552 -1.7724
  137OSM   H13C14869   3.120   5.388   5.982 -0.0839  1.8184 -0.5635
  137OSM    C1214870   3.186   5.326   6.318  0.3509 -0.2793 -0.1950
  137OSM   H12A14871   3.161   5.222   6.303 -4.1010  0.5610  0.6823
  137OSM   H12B14872   3.090   5.359   6.355  0.3658 -0.5194  0.0581
  137OSM    C1114873   3.292   5.325   6.425  0.3579 -0.1060  0.1054
  137OSM   H11A14874   3.249   5.290   6.522 -1.6124 -1.2159 -1.1296
  137OSM   H11B14875   3.327   5.427   6.450 -0.2298 -0.3323  2.0119
  137OSM      P14876   3.394   5.090   6.409 -0.0040  0.0541 -0.1887
  137OSM    O1314877   3.281   5.026   6.337 -0.4584  0.2064  0.8519
  137OSM    O1414878   3.531   5.039   6.376  0.6839  0.0979  0.3408
  137OSM    O1114879   3.374   5.061   6.567 -0.0601  0.2622  0.5302
  137OSM    O1214880   3.396   5.241   6.386  0.2196 -0.5861  0.0293
  137OSM    C1S14881   3.470   5.114   6.654  0.4171  0.0722 -0.4255
  137OSM    H1S14882   3.445   5.219   6.681 -2.3922 -0.1343 -2.0169
  137OSM    H1T14883   3.573   5.104   6.615  1.0259 -0.4565  1.2762
  137OSM     NF14884   3.540   5.083   6.903 -0.5217 -0.2321  0.3551
  137OSM    HNF14885   3.638   5.067   6.900 -0.3234  0.6907  1.5461
  137OSM    C2S14886   3.464   5.019   6.782 -0.4025  0.1976 -0.3083
  137OSM    H2S14887   3.356   5.016   6.807 -0.4521  1.4759 -0.3246
  137OSM    C3S14888   3.504   4.875   6.739  0.8397  0.1372 -0.7983
  137OSM    H3S14889   3.609   4.884   6.704  0.8081 -1.3640 -1.2906
  137OSM     O314890   3.425   4.816   6.632  0.7207  0.1895  0.0140
  137OSM    HO314891   3.387   4.894   6.591  1.5287  1.1988  1.1568
  137OSM    C4S14892   3.499   4.776   6.859 -0.5188 -0.2395  0.1301
  137OSM    H4S14893   3.574   4.795   6.937  2.0598  1.1975 -2.6019
  137OSM    C5S14894   3.413   4.667   6.871 -0.6718  0.0784 -0.2810
  137OSM    H5S14895   3.355   4.637   6.783 -0.5488 -0.4027 -0.1989
  137OSM    C6S14896   3.418   4.557   6.976  0.1141  0.0004  0.1075
  137OSM    H6S14897   3.434   4.458   6.927 -0.4419 -0.8621  1.6425
  137OSM    H6T14898   3.324   4.545   7.035 -0.7462  1.4935 -0.9133
  137OSM    C7S14899   3.531   4.569   7.073  0.5316  0.0563  0.7186
  137OSM    H7S14900   3.628   4.589   7.021  0.8062 -0.8640  0.8644
  137OSM    H7T14901   3.539   4.466   7.113  1.0292  0.9966  3.1363
  137OSM    C8S14902   3.511   4.668   7.183  0.0895 -0.7599 -0.0835
  137OSM    H8S14903   3.403   4.672   7.206  0.4645 -1.7689  1.9098
  137OSM    H8T14904   3.531   4.761   7.125  0.5958 -0.8482 -0.0575
  137OSM    C9S14905   3.608   4.663   7.309 -0.2474 -0.4431 -0.1717
  137OSM    H9S14906   3.607   4.762   7.361  0.0550  0.3231 -1.6072
  137OSM    H9T14907   3.713   4.634   7.289  0.6076 -0.1235  3.4215
  137OSM   C10S14908   3.571   4.552   7.405 -0.2651  0.2457 -0.2253
  137OSM   H10S14909   3.607   4.463   7.349 -0.3400  0.1093 -0.0534
  137OSM   H10T14910   3.464   4.557   7.433  0.2997  1.3047  1.8235
  137OSM   C11S14911   3.645   4.563   7.536 -0.1327  0.3029 -0.2014
  137OSM   H11S14912   3.616   4.649   7.600 -1.3983 -0.3719  0.1513
  137OSM   H11T14913   3.754   4.567   7.517  0.1739 -2.2403  0.8471
  137OSM   C12S14914   3.625   4.446   7.631 -0.1948 -0.1247  0.2033
  137OSM   H12S14915   3.645   4.358   7.567 -0.7684  0.3552 -0.6525
  137OSM   H12T14916   3.519   4.427   7.660  0.8860 -0.8073  3.9104
  137OSM   C13S14917   3.715   4.457   7.753 -0.2619 -0.3521 -0.9160
  137OSM   H13S14918   3.690   4.555   7.799  0.7509 -0.4120 -0.2239
  137OSM   H13T14919   3.817   4.460   7.710 -0.4665  0.3097 -1.3504
  137OSM   C14S14920   3.707   4.342   7.862  0.1233  0.2506  0.0184
  137OSM   H14S14921   3.743   4.244   7.824 -0.0191 -0.3922  1.5079
  137OSM   H14T14922   3.599   4.340   7.886  0.5599 -1.1474  2.0417
  137OSM   C15S14923   3.779   4.358   7.995  0.1692 -0.3323 -0.2972
  137OSM   H15S14924   3.756   4.458   8.038  0.0394 -0.7700  0.6594
  137OSM   H15T14925   3.885   4.371   7.967 -0.1882  0.6410 -1.2519
  137OSM   C16S14926   3.768   4.249   8.101  0.4518  0.2202  0.6658
  137OSM   H16S14927   3.786   4.148   8.057 -3.3225 -0.8339  1.3631
  137OSM   H16T14928   3.665   4.234   8.139  0.1027  0.9711  0.0349
  137OSM   C17S14929   3.873   4.281   8.209 -0.1405  0.0201  0.5340
  137OSM   H17S14930   3.974   4.304   8.170  0.5207  0.1069  2.2318
  137OSM   H17T14931   3.872   4.186   8.267 -1.1563 -0.0494  0.4099
  137OSM   C18S14932   3.833   4.396   8.289 -0.2283 -0.5443 -0.9863
  137OSM   H18S14933   3.724   4.393   8.311  0.1505 -0.9704  0.9037
  137OSM   H18T14934   3.838   4.488   8.227 -0.1713 -0.6325 -1.1113
  137OSM   H18U14935   3.887   4.404   8.386  0.1817  0.4686 -1.2879
  137OSM    C1F14936   3.467   5.179   6.971  0.2214  0.7344  0.0720
  137OSM     OF14937   3.351   5.200   6.946 -0.3417  0.4152 -0.4153
  137OSM    C2F14938   3.558   5.260   7.067  1.0170  0.0299 -0.1283
  137OSM    H2F14939   3.508   5.358   7.084  0.3241  0.1217 -2.5427
  137OSM    H2G14940   3.665   5.252   7.039  1.0227 -3.2720  0.6534
  137OSM    C3F14941   3.540   5.198   7.208  0.1967 -0.0239  0.2371
  137OSM    H3F14942   3.582   5.097   7.187 -2.3220 -0.7897 -1.4002
  137OSM    H3G14943   3.434   5.199   7.241  0.0430  3.6047 -0.2164
  137OSM    C4F14944   3.631   5.266   7.312  0.7004 -0.2250  0.4034
  137OSM    H4F14945   3.629   5.377   7.298  2.8382 -0.4970 -2.6328
  137OSM    H4G14946   3.734   5.226   7.298  0.1641 -0.6300 -2.8265
  137OSM    C5F14947   3.593   5.233   7.458  0.4220  0.4797 -0.8325
  137OSM    H5F14948   3.601   5.123   7.471 -0.2462  0.4069 -1.0459
  137OSM    H5G14949   3.493   5.274   7.481  1.3815  3.7242 -2.2282
  137OSM    C6F14950   3.695   5.284   7.554  0.0312 -0.4888 -0.7422
  137OSM    H6F14951   3.664   5.383   7.594  1.1148 -1.2846  2.2146
  137OSM    H6G14952   3.793   5.297   7.504 -0.8377 -0.2464 -2.3950
  137OSM    C7F14953   3.711   5.198   7.681  0.2194  0.1171 -0.2037
  137OSM    H7F14954   3.803   5.193   7.742 -0.3585 -0.9901  0.5910
  137OSM    H7G14955   3.685   5.091   7.669 -0.3721  0.3313 -0.8737
  137OSM    C8F14956   3.602   5.250   7.783  0.9608 -0.0803 -0.4555
  137OSM    H8F14957   3.508   5.255   7.725  1.8645  1.8652 -1.8178
  137OSM    H8G14958   3.642   5.351   7.806 -0.5395  0.2192  0.8519
  137OSM    C9F14959   3.598   5.159   7.906  0.1470 -0.5484 -0.5595
  137OSM    H9F14960   3.534   5.073   7.879  0.2450 -0.4658 -1.0707
  137OSM   C10F14961   3.655   5.180   8.025  0.2987 -0.4429  0.3960
  137OSM   H10F14962   3.628   5.112   8.107 -2.9167 -0.0774 -0.2726
  137OSM   C11F14963   3.740   5.294   8.067 -0.5770  0.0583  0.5181
  137OSM   H11F14964   3.778   5.361   7.987 -2.4205  0.9251  0.3468
  137OSM   H11G14965   3.825   5.240   8.116  0.4868 -0.4213 -1.8043
  137OSM   C12F14966   3.664   5.388   8.171  0.2903  0.5294  0.4163
  137OSM   H12F14967   3.561   5.410   8.134  0.8467  1.4855 -0.6327
  137OSM   H12G14968   3.713   5.488   8.181 -1.1070  1.1365  1.2343
  137OSM   C13F14969   3.650   5.330   8.309 -0.0499  0.4156 -0.4819
  137OSM   H13F14970   3.747   5.294   8.349 -0.2686 -0.0141 -0.3353
  137OSM   H13G14971   3.590   5.237   8.307  0.6346 -0.0929  1.1164
  137OSM   C14F14972   3.582   5.418   8.414 -0.0273  0.0963  0.3031
  137OSM   H14F14973   3.513   5.493   8.370 -0.1580 -0.2273 -0.0483
  137OSM   H14G14974   3.662   5.480   8.460 -0.1912 -0.8118  1.8423
  137OSM   C15F14975   3.507   5.342   8.532 -0.8447  0.5874  0.2786
  137OSM   H15F14976   3.582   5.276   8.580 -2.8942 -1.1146  1.2080
  137OSM   H15G14977   3.425   5.276   8.496  0.5223 -1.8435  1.4854
  137OSM   C16F14978   3.437   5.441   8.623  0.4258 -0.5396 -0.4092
  137OSM   H16F14979   3.494   5.535   8.641 -2.2697  1.8091 -3.7548
  137OSM   H16G14980   3.411   5.384   8.715  1.7143 -0.9238 -0.2731
  137OSM   C17F14981   3.296   5.483   8.564  0.1066  0.2550  1.3185
  137OSM   H17F14982   3.242   5.386   8.558  0.9969 -0.1139 -1.2012
  137OSM   H17G14983   3.291   5.522   8.460  3.0135  0.2824  1.1437
  137OSM   C18F14984   3.217   5.567   8.663  0.7526  0.2385  0.1914
  137OSM   H18F14985   3.116   5.585   8.619  0.8216  1.1756  0.3922
  137OSM   H18G14986   3.264   5.667   8.678  0.2566  0.5200 -0.1097
  137OSM   H18H14987   3.216   5.511   8.759  3.8862 -0.6357 -0.2268
  138OSM      N14988   3.927   6.756   6.068  0.0259 -0.3263 -0.7912
  138OSM    C1514989   4.071   6.714   6.053 -0.1449 -0.2972 -0.0049
  138OSM   H15A14990   4.110   6.692   6.151 -0.3813 -1.3634 -0.1504
  138OSM   H15B14991   4.134   6.795   6.017  0.7016 -1.7699 -1.9282
  138OSM   H15C14992   4.075   6.622   5.997 -2.2606 -1.1718  1.2389
  138OSM    C1414993   3.855   6.636   6.134 -0.0915  0.0124  0.1734
  138OSM   H14A14994   3.847   6.553   6.066 -1.5670  0.2126  0.0781
  138OSM   H14B14995   3.752   6.665   6.150 -0.3288  0.5692 -2.1798
  138OSM   H14C14996   3.896   6.621   6.233 -1.3829 -0.0424  0.7187
  138OSM    C1314997   3.910   6.870   6.162  0.3445 -1.2229  0.2869
  138OSM   H13A14998   3.969   6.868   6.252 -1.8842 -0.7065  1.8187
  138OSM   H13B14999   3.809   6.882   6.199 -0.4709  1.1560 -2.5009
  138OSM   H13C15000   3.920   6.957   6.098 -2.8505 -0.4120  0.7952
  138OSM    C1215001   3.857   6.789   5.938  0.4089  0.2773 -0.1052
  138OSM   H12A15002   3.889   6.714   5.867  0.2317 -1.7593  1.8875
  138OSM   H12B15003   3.908   6.875   5.899  0.0264  0.5041 -0.1034
  138OSM    C1115004   3.701   6.795   5.942 -0.8700 -0.0446 -0.2752
  138OSM   H11A15005   3.668   6.697   5.983  2.7131  0.1928  3.6148
  138OSM   H11B15006   3.665   6.801   5.837 -0.6937 -1.5881 -0.4456
  138OSM      P15007   3.661   7.045   5.975  0.0639  0.3232 -0.2760
  138OSM    O1315008   3.771   7.054   5.881 -0.1412 -0.9671 -0.1100
  138OSM    O1415009   3.529   7.093   5.936 -0.5013 -0.8113 -0.1074
  138OSM    O1115010   3.704   7.134   6.103 -0.1737 -0.1153 -0.1338
  138OSM    O1215011   3.650   6.899   6.028  0.8236 -0.1090  0.4989
  138OSM    C1S15012   3.634   7.102   6.224 -0.2485  1.0410 -0.1740
  138OSM    H1S15013   3.682   7.013   6.268  0.7002  1.9759  0.7091
  138OSM    H1T15014   3.528   7.069   6.211 -0.2092  1.3338 -1.3163
  138OSM     NF15015   3.618   7.189   6.452  0.3360 -0.4390 -0.2135
  138OSM    HNF15016   3.530   7.203   6.496  0.3415 -1.2035  0.0416
  138OSM    C2S15017   3.641   7.223   6.316 -0.1737 -0.4090 -0.1831
  138OSM    H2S15018   3.741   7.270   6.310  0.2218 -1.0941  0.9578
  138OSM    C3S15019   3.553   7.346   6.272 -0.4613  0.1205 -0.2416
  138OSM    H3S15020   3.445   7.322   6.286 -0.4108  0.3524  0.5520
  138OSM     O315021   3.575   7.373   6.135 -0.0141 -0.0957  0.0167
  138OSM    HO315022   3.644   7.313   6.105  0.3449 -0.0451  0.7247
  138OSM    C4S15023   3.586   7.466   6.349 -0.1200 -0.0440  0.0903
  138OSM    H4S15024   3.692   7.491   6.358 -0.8563  2.8361  1.3398
  138OSM    C5S15025   3.503   7.545   6.422 -0.0749  0.4948  0.5739
  138OSM    H5S15026   3.396   7.523   6.425 -0.2187  1.1418  0.2512
  138OSM    C6S15027   3.561   7.663   6.491 -0.2183  0.2563 -0.0103
  138OSM    H6S15028   3.474   7.711   6.540  1.3326  3.9018 -0.6255
  138OSM    H6T15029   3.618   7.734   6.427  0.5075  0.1213  0.4737
  138OSM    C7S15030   3.651   7.617   6.610  0.4361 -0.7529  0.0566
  138OSM    H7S15031   3.709   7.703   6.650  0.8185  0.3792 -2.7925
  138OSM    H7T15032   3.731   7.550   6.573  0.1408 -0.0146 -2.0181
  138OSM    C8S15033   3.573   7.555   6.732  0.1503 -0.3572 -0.3415
  138OSM    H8S15034   3.519   7.464   6.699 -0.5048 -0.7562  1.7631
  138OSM    H8T15035   3.495   7.631   6.756  1.6314  2.2867 -3.5218
  138OSM    C9S15036   3.657   7.535   6.847  0.0854 -0.5962 -0.4312
  138OSM    H9S15037   3.734   7.612   6.867 -1.5050  0.6541  0.9370
  138OSM    H9T15038   3.707   7.436   6.831 -0.5524 -1.2499  1.4810
  138OSM   C10S15039   3.581   7.504   6.973  0.2696 -0.6971 -0.3731
  138OSM   H10S15040   3.530   7.406   6.967  0.6506 -0.9327  0.2276
  138OSM   H10T15041   3.501   7.577   6.998 -0.9136 -1.9426 -0.4476
  138OSM   C11S15042   3.668   7.489   7.094 -0.4423  0.3024  0.0950
  138OSM   H11S15043   3.728   7.579   7.118 -0.6284  1.2180 -2.7003
  138OSM   H11T15044   3.744   7.409   7.079  0.4546  1.0190  0.7696
  138OSM   C12S15045   3.596   7.448   7.228  0.5495  0.0019  0.0880
  138OSM   H12S15046   3.536   7.356   7.213 -1.5977  1.3416  0.1697
  138OSM   H12T15047   3.527   7.525   7.269  1.1984  0.5279  0.2113
  138OSM   C13S15048   3.700   7.425   7.348 -0.6471  0.0382  0.2663
  138OSM   H13S15049   3.758   7.519   7.361 -0.9123  0.3606 -0.8702
  138OSM   H13T15050   3.770   7.350   7.307 -1.4178  0.4786 -1.9134
  138OSM   C14S15051   3.637   7.381   7.477 -0.2119 -0.2432  0.5736
  138OSM   H14S15052   3.575   7.290   7.465  1.3881 -1.2782 -0.0461
  138OSM   H14T15053   3.571   7.464   7.510 -1.3385 -0.6082 -0.7312
  138OSM   C15S15054   3.750   7.353   7.572  0.1749 -0.4534  0.2746
  138OSM   H15S15055   3.821   7.439   7.577 -0.8256  0.4020  0.0757
  138OSM   H15T15056   3.816   7.270   7.540 -0.2962 -0.2510 -1.2933
  138OSM   C16S15057   3.699   7.331   7.716  0.3150  0.4757 -0.3222
  138OSM   H16S15058   3.613   7.394   7.745  0.4091  0.1102  0.8069
  138OSM   H16T15059   3.776   7.365   7.789  0.7991 -0.7853 -0.2282
  138OSM   C17S15060   3.645   7.188   7.750 -0.3013  0.1772  0.6466
  138OSM   H17S15061   3.725   7.112   7.735 -1.5580 -1.1451  0.5064
  138OSM   H17T15062   3.572   7.155   7.673  0.2893  0.8052 -0.1977
  138OSM   C18S15063   3.582   7.185   7.883  0.7521 -0.2134  0.0285
  138OSM   H18S15064   3.484   7.236   7.879  0.1261 -1.3237  0.9445
  138OSM   H18T15065   3.642   7.227   7.967 -0.6242 -0.7289  1.2860
  138OSM   H18U15066   3.561   7.082   7.920 -1.7028  0.9298  2.0087
  138OSM    C1F15067   3.703   7.107   6.516  0.3974  0.1192 -0.0864
  138OSM     OF15068   3.816   7.092   6.469  0.1933 -0.1172 -0.2360
  138OSM    C2F15069   3.658   7.037   6.638  0.1720 -0.6399 -0.6527
  138OSM    H2F15070   3.624   6.934   6.613 -0.8176 -0.6726  0.7367
  138OSM    H2G15071   3.566   7.089   6.673  1.2804 -0.0797  1.5266
  138OSM    C3F15072   3.772   7.030   6.744  0.0143  0.1603 -0.0812
  138OSM    H3F15073   3.812   7.133   6.758  0.5647 -0.2533  1.5661
  138OSM    H3G15074   3.860   6.971   6.710 -0.8797 -0.3911 -1.4732
  138OSM    C4F15075   3.735   6.985   6.880 -0.2667 -0.0080  0.0810
  138OSM    H4F15076   3.823   6.989   6.949  0.5760 -0.7875 -0.9301
  138OSM    H4G15077   3.704   6.879   6.890 -1.5419  0.3694  0.1403
  138OSM    C5F15078   3.634   7.069   6.953 -0.7964 -0.0159 -0.6613
  138OSM    H5F15079   3.533   7.062   6.909 -1.6945  0.1037  1.3020
  138OSM    H5G15080   3.678   7.169   6.932  0.7438 -0.6236 -0.4224
  138OSM    C6F15081   3.628   7.054   7.103  0.2674 -1.0758 -0.5885
  138OSM    H6F15082   3.570   7.138   7.148 -0.5597 -1.6658 -0.5278
  138OSM    H6G15083   3.732   7.050   7.141 -0.2760 -1.5220  0.8856
  138OSM    C7F15084   3.560   6.923   7.148  0.5024 -0.6547 -0.2736
  138OSM    H7F15085   3.596   6.847   7.076  0.8551 -1.6535  0.9325
  138OSM    H7G15086   3.452   6.948   7.138 -0.0966 -1.5573  3.2544
  138OSM    C8F15087   3.587   6.867   7.293  0.4465 -1.0435  0.8661
  138OSM    H8F15088   3.495   6.811   7.319 -0.8120  0.7999  0.4382
  138OSM    H8G15089   3.582   6.951   7.366  0.1541 -0.6650  0.4064
  138OSM    C9F15090   3.714   6.783   7.299 -0.5064  0.3817  0.1638
  138OSM    H9F15091   3.723   6.700   7.227  0.5761  1.0045 -0.4367
  138OSM   C10F15092   3.814   6.794   7.385  0.5128 -0.4694 -0.0017
  138OSM   H10F15093   3.886   6.711   7.380  0.3432 -0.5213 -1.7870
  138OSM   C11F15094   3.833   6.884   7.500  0.1947 -0.3500  0.1132
  138OSM   H11F15095   3.738   6.939   7.518  1.8388  2.7355 -0.3074
  138OSM   H11G15096   3.899   6.970   7.476 -0.9775  1.3815  2.8583
  138OSM   C12F15097   3.874   6.809   7.623 -0.0808  0.4521  0.8596
  138OSM   H12F15098   3.925   6.865   7.705  1.8875  1.9013 -1.2733
  138OSM   H12G15099   3.944   6.727   7.597  0.1926  1.0256 -0.2202
  138OSM   C13F15100   3.761   6.737   7.693  0.0341 -0.3648 -0.4066
  138OSM   H13F15101   3.730   6.642   7.645  0.3400 -1.5360  1.6447
  138OSM   H13G15102   3.675   6.808   7.688  0.6872  0.4330 -0.5176
  138OSM   C14F15103   3.779   6.709   7.843  0.5742  0.3963  0.6645
  138OSM   H14F15104   3.810   6.806   7.888 -0.2030  1.3105 -0.7000
  138OSM   H14G15105   3.864   6.639   7.853 -1.9572 -2.8598  0.3326
  138OSM   C15F15106   3.652   6.670   7.911 -0.3988 -0.4840  0.3917
  138OSM   H15F15107   3.636   6.571   7.864 -1.3573  0.6330 -1.7085
  138OSM   H15G15108   3.570   6.740   7.883 -1.8358 -2.1884  0.2665
  138OSM   C16F15109   3.664   6.657   8.064  0.4097  0.3243 -0.6880
  138OSM   H16F15110   3.771   6.654   8.096  0.0702 -2.9139  0.3216
  138OSM   H16G15111   3.623   6.559   8.096 -0.5526  1.5650  2.0070
  138OSM   C17F15112   3.599   6.767   8.143 -0.9492 -1.3176  0.4696
  138OSM   H17F15113   3.583   6.845   8.065 -0.7907 -2.1687 -0.4333
  138OSM   H17G15114   3.668   6.802   8.223 -2.6893  1.0542  0.9776
  138OSM   C18F15115   3.461   6.737   8.212  0.7873 -0.7023 -0.3901
  138OSM   H18F15116   3.458   6.638   8.261  2.2627  0.6907  2.6762
  138OSM   H18G15117   3.383   6.731   8.133 -1.7750  1.2224  1.8792
  138OSM   H18H15118   3.430   6.813   8.287  1.7598 -0.2417 -0.4421
  139OSM      N15119   1.913   1.652   6.233  0.0483  0.1113  0.1290
  139OSM    C1515120   2.040   1.667   6.152 -0.4154  0.6798  0.1144
  139OSM   H15A15121   2.124   1.666   6.220 -0.4127 -0.1699  0.1080
  139OSM   H15B15122   2.044   1.764   6.105 -1.0126  1.0797  0.8743
  139OSM   H15C15123   2.051   1.581   6.088 -3.4111 -0.3133  0.8607
  139OSM    C1415124   1.923   1.732   6.353  0.6531 -0.6909 -1.1128
  139OSM   H14A15125   1.864   1.699   6.437  1.0400  1.2968 -0.0461
  139OSM   H14B15126   1.898   1.836   6.338  2.6103 -0.0437 -0.1384
  139OSM   H14C15127   2.028   1.735   6.381 -0.0997  0.0183  1.7299
  139OSM    C1315128   1.808   1.707   6.142 -0.0400  0.2558  0.1523
  139OSM   H13A15129   1.824   1.807   6.104 -1.6867  0.0976 -0.9795
  139OSM   H13B15130   1.715   1.700   6.197 -0.3895 -0.1120 -0.4790
  139OSM   H13C15131   1.795   1.642   6.057 -0.9367  2.0038 -1.0615
  139OSM    C1215132   1.896   1.506   6.263  0.4924 -0.1161 -0.2039
  139OSM   H12A15133   1.797   1.492   6.305  0.6055 -0.6260 -0.1145
  139OSM   H12B15134   1.977   1.483   6.330  1.9168 -0.7803 -2.1265
  139OSM    C1115135   1.907   1.404   6.142  0.4500  0.0465  0.2754
  139OSM   H11A15136   1.845   1.450   6.063  2.6390  3.6510  0.5262
  139OSM   H11B15137   1.864   1.307   6.173  0.0817 -0.3856 -1.5427
  139OSM      P15138   2.146   1.289   6.153  0.5975  0.4600 -0.6520
  139OSM    O1315139   2.145   1.142   6.112  0.4871 -0.0702  0.1815
  139OSM    O1415140   2.278   1.351   6.134  0.9880 -0.3678 -0.0544
  139OSM    O1115141   2.110   1.314   6.304  0.8461  0.6037 -0.4244
  139OSM    O1215142   2.039   1.381   6.087  0.3397 -0.4025 -0.6336
  139OSM    C1S15143   2.210   1.331   6.409  0.7795 -0.2849 -0.4168
  139OSM    H1S15144   2.223   1.440   6.428 -0.7659 -0.7635  4.0054
  139OSM    H1T15145   2.310   1.293   6.382  0.7768 -0.7742  0.2600
  139OSM     NF15146   2.262   1.314   6.638  0.1250 -0.2735 -0.5908
  139OSM    HNF15147   2.326   1.249   6.679 -1.6417 -1.1388  0.8209
  139OSM    C2S15148   2.160   1.265   6.547  0.1767  0.2103 -0.1410
  139OSM    H2S15149   2.064   1.304   6.588 -0.1724 -0.7239 -0.0581
  139OSM    C3S15150   2.143   1.112   6.531 -0.4686  0.3393  0.3173
  139OSM    H3S15151   2.244   1.074   6.504 -1.0028 -1.4093  0.7588
  139OSM     O315152   2.060   1.073   6.424  0.5758  0.6155 -0.2670
  139OSM    HO315153   2.061   1.157   6.378  0.2473 -0.4754 -2.3022
  139OSM    C4S15154   2.113   1.044   6.663  0.2219  0.5784  0.0753
  139OSM    H4S15155   2.204   1.000   6.706  0.0300  0.1887  0.0799
  139OSM    C5S15156   1.997   1.027   6.723 -0.1236  0.3374  0.3856
  139OSM    H5S15157   1.908   1.060   6.666 -0.5083  1.7714  1.7677
  139OSM    C6S15158   1.977   0.973   6.854 -0.8595  0.4074 -0.9032
  139OSM    H6S15159   1.876   0.928   6.863 -0.5077 -0.1824  0.1610
  139OSM    H6T15160   1.983   1.050   6.933  0.0783 -1.8296  1.2761
  139OSM    C7S15161   2.069   0.851   6.886  1.4562  1.0774  0.7337
  139OSM    H7S15162   2.167   0.899   6.907  1.9589 -0.0345  0.9698
  139OSM    H7T15163   2.070   0.785   6.797 -1.3442  2.2682 -0.2177
  139OSM    C8S15164   2.033   0.764   7.012 -0.8303 -0.1418  0.3596
  139OSM    H8S15165   2.117   0.693   7.030 -2.2848 -1.3378  2.5977
  139OSM    H8T15166   1.943   0.706   6.982 -1.9338  1.0853  1.2564
  139OSM    C9S15167   2.006   0.845   7.140  0.3117 -0.3887 -0.0083
  139OSM    H9S15168   1.908   0.894   7.121 -0.2456 -1.6109 -0.3041
  139OSM    H9T15169   2.086   0.922   7.153  0.5140 -0.6709  0.3965
  139OSM   C10S15170   2.000   0.755   7.261 -0.0161  0.4953  0.4933
  139OSM   H10S15171   2.093   0.695   7.256  0.8575  1.8573  0.3302
  139OSM   H10T15172   1.926   0.672   7.252 -0.0242  0.1665  3.2288
  139OSM   C11S15173   1.974   0.821   7.393 -0.0864  0.2853 -0.2476
  139OSM   H11S15174   1.880   0.881   7.392 -1.4148 -1.7221  0.6881
  139OSM   H11T15175   2.063   0.883   7.416  0.4545  0.2283 -2.0932
  139OSM   C12S15176   1.979   0.722   7.521  0.3304 -0.1680  0.1026
  139OSM   H12S15177   2.078   0.672   7.510 -0.6880 -2.5607  1.3460
  139OSM   H12T15178   1.908   0.638   7.502 -0.6553  0.5301  0.7010
  139OSM   C13S15179   1.944   0.788   7.656 -0.1666  0.0528  0.0920
  139OSM   H13S15180   1.850   0.846   7.641  2.0441  3.2397 -1.8342
  139OSM   H13T15181   2.015   0.867   7.688 -0.0984 -0.2723  0.7618
  139OSM   C14S15182   1.930   0.685   7.771  0.1443 -0.6179  0.0183
  139OSM   H14S15183   2.021   0.625   7.792  1.0453  0.1469 -1.5888
  139OSM   H14T15184   1.853   0.606   7.754 -0.9008  0.3143  0.4029
  139OSM   C15S15185   1.880   0.764   7.901  0.2267  0.0025  0.2957
  139OSM   H15S15186   1.784   0.814   7.873  0.2333  0.4833  1.1188
  139OSM   H15T15187   1.956   0.842   7.923  1.7495 -1.6610  1.0614
  139OSM   C16S15188   1.864   0.668   8.020 -0.1042 -0.3637 -0.2143
  139OSM   H16S15189   1.892   0.731   8.107 -0.4130  1.9867 -1.7710
  139OSM   H16T15190   1.930   0.579   8.016  2.2512  1.3071  0.4123
  139OSM   C17S15191   1.717   0.622   8.054  0.8543 -0.2479  0.3499
  139OSM   H17S15192   1.653   0.605   7.964  0.3338  3.1806 -0.0176
  139OSM   H17T15193   1.670   0.708   8.108 -1.4488 -1.0287 -0.3559
  139OSM   C18S15194   1.722   0.505   8.151  0.3460 -0.6906 -0.3576
  139OSM   H18S15195   1.791   0.429   8.110  3.0106  1.0322  0.8030
  139OSM   H18T15196   1.623   0.455   8.161 -0.5373  1.0661  0.0351
  139OSM   H18U15197   1.754   0.533   8.254 -1.1134  0.3700 -0.1687
  139OSM    C1F15198   2.270   1.442   6.686  0.1478 -0.5737 -0.0125
  139OSM     OF15199   2.189   1.529   6.646  0.1347 -0.4886 -0.2486
  139OSM    C2F15200   2.384   1.483   6.775 -0.2897 -0.2808 -0.3033
  139OSM    H2F15201   2.473   1.488   6.708  1.2333  0.0716  1.6943
  139OSM    H2G15202   2.420   1.405   6.845  1.2452  1.2289  0.6270
  139OSM    C3F15203   2.366   1.614   6.848 -0.1644 -0.1921  0.0943
  139OSM    H3F15204   2.353   1.698   6.777  1.0112 -0.3555 -0.3199
  139OSM    H3G15205   2.465   1.628   6.897 -1.8571 -0.3985  3.7053
  139OSM    C4F15206   2.253   1.619   6.953  0.1860 -0.2387 -0.2442
  139OSM    H4F15207   2.261   1.541   7.032  1.3456  0.5702  0.4609
  139OSM    H4G15208   2.152   1.604   6.909 -0.0692 -0.0404  0.2661
  139OSM    C5F15209   2.256   1.744   7.034 -0.1480  0.4969 -0.1576
  139OSM    H5F15210   2.224   1.829   6.970 -1.3509 -0.8323 -1.3612
  139OSM    H5G15211   2.360   1.768   7.064 -0.7415 -0.5592  2.8963
  139OSM    C6F15212   2.172   1.724   7.168 -0.1784 -0.4088 -0.1580
  139OSM    H6F15213   2.209   1.627   7.207 -2.9129 -1.3146  0.3067
  139OSM    H6G15214   2.069   1.714   7.127 -0.5040  2.2832 -0.1125
  139OSM    C7F15215   2.183   1.837   7.259 -1.0370  0.0779 -0.4728
  139OSM    H7F15216   2.167   1.926   7.195 -1.9410 -0.6443 -1.2604
  139OSM    H7G15217   2.286   1.832   7.301 -1.0010  2.4079 -0.2357
  139OSM    C8F15218   2.074   1.842   7.368  0.1931 -0.2047  0.0499
  139OSM    H8F15219   2.026   1.741   7.374 -0.9761  0.3476  0.1481
  139OSM    H8G15220   1.992   1.895   7.314  1.2777  0.3703 -1.0710
  139OSM    C9F15221   2.119   1.899   7.503  0.2188 -0.2865 -0.3936
  139OSM    H9F15222   2.219   1.936   7.528  0.7618  1.2784 -4.5478
  139OSM   C10F15223   2.028   1.918   7.607 -0.6729 -0.0182  0.3120
  139OSM   H10F15224   2.068   1.960   7.700  2.7705  1.3291 -1.7102
  139OSM   C11F15225   1.878   1.892   7.611  0.8423 -0.2798  0.0055
  139OSM   H11F15226   1.836   1.852   7.516 -0.3146 -0.2888  0.5051
  139OSM   H11G15227   1.821   1.985   7.633  0.8066 -0.5537  1.1116
  139OSM   C12F15228   1.835   1.784   7.721 -0.1727 -0.5112 -0.2530
  139OSM   H12F15229   1.728   1.786   7.753 -0.2338 -0.9788 -0.4149
  139OSM   H12G15230   1.892   1.795   7.816 -0.1979 -0.9384 -0.1890
  139OSM   C13F15231   1.867   1.644   7.670  0.3955 -0.2100  0.7301
  139OSM   H13F15232   1.878   1.590   7.767  0.2688  0.0464  0.8894
  139OSM   H13G15233   1.967   1.623   7.627 -0.7935 -1.8403 -1.2595
  139OSM   C14F15234   1.762   1.576   7.578  0.5503  1.1434 -0.7143
  139OSM   H14F15235   1.776   1.617   7.476 -0.8366 -0.7669 -1.6982
  139OSM   H14G15236   1.656   1.592   7.610  0.9072 -0.6800  1.4943
  139OSM   C15F15237   1.787   1.424   7.560  0.1356 -0.8730  0.0880
  139OSM   H15F15238   1.791   1.381   7.662  0.4751 -0.7843  0.1132
  139OSM   H15G15239   1.885   1.400   7.513  0.2085  0.2315 -0.3542
  139OSM   C16F15240   1.682   1.354   7.477  0.1826 -0.2412 -0.0873
  139OSM   H16F15241   1.674   1.419   7.387  1.1117  0.9649  0.6844
  139OSM   H16G15242   1.582   1.337   7.522  0.1673  0.9656  0.3246
  139OSM   C17F15243   1.728   1.209   7.448  0.3100  0.0271 -0.0004
  139OSM   H17F15244   1.639   1.143   7.441  1.1250 -1.4211  2.7201
  139OSM   H17G15245   1.784   1.174   7.537  0.8427  1.0126  0.0590
  139OSM   C18F15246   1.820   1.196   7.327 -0.6918 -0.8575  0.1673
  139OSM   H18F15247   1.927   1.198   7.356  0.3144 -2.9658 -3.1456
  139OSM   H18G15248   1.799   1.282   7.260 -1.3663 -0.8141  0.4354
  139OSM   H18H15249   1.794   1.107   7.266 -0.2793  0.4822 -2.0226
  140OSM      N15250   3.665   2.959   6.110  0.4538 -0.5763  0.1134
  140OSM    C1515251   3.605   3.099   6.118 -0.1442  0.0006  0.4206
  140OSM   H15A15252   3.684   3.173   6.115 -0.2575  0.1107  0.1478
  140OSM   H15B15253   3.551   3.109   6.211 -1.9302  0.4136 -0.6357
  140OSM   H15C15254   3.535   3.117   6.038  1.8442  0.1443 -1.3371
  140OSM    C1415255   3.559   2.862   6.133 -0.2825 -0.4324 -0.4471
  140OSM   H14A15256   3.467   2.869   6.077 -0.4526  0.9971 -0.0030
  140OSM   H14B15257   3.526   2.874   6.235  0.7907  3.9446 -0.5040
  140OSM   H14C15258   3.599   2.763   6.120 -1.0491 -0.6900 -0.9044
  140OSM    C1315259   3.717   2.952   5.977 -0.2308  0.0416  0.1064
  140OSM   H13A15260   3.804   3.014   5.961  0.1521 -0.1412  1.3673
  140OSM   H13B15261   3.645   2.987   5.905  0.6043 -0.0755 -0.7909
  140OSM   H13C15262   3.757   2.853   5.963 -3.3521 -1.6578  2.6976
  140OSM    C1215263   3.783   2.949   6.206 -0.3526  0.1226 -0.0769
  140OSM   H12A15264   3.736   2.958   6.303 -1.8169 -0.4631 -0.7171
  140OSM   H12B15265   3.849   3.034   6.196  0.9764 -0.9720 -0.7761
  140OSM    C1115266   3.882   2.828   6.206 -0.1773  0.2503  0.3569
  140OSM   H11A15267   3.966   2.851   6.274  1.0623  0.3479 -1.1766
  140OSM   H11B15268   3.938   2.810   6.112 -0.1705 -0.5488  0.5157
  140OSM      P15269   3.796   2.633   6.365 -0.1315 -0.4731  0.3868
  140OSM    O1315270   3.707   2.516   6.362  0.3852 -0.3017  0.4635
  140OSM    O1415271   3.932   2.603   6.426 -0.4551 -0.0646  0.2705
  140OSM    O1115272   3.735   2.748   6.458  0.2658 -0.0457 -0.5020
  140OSM    O1215273   3.814   2.711   6.227 -0.2119  0.3450 -0.0802
  140OSM    C1S15274   3.713   2.695   6.592  0.1119  0.0726  0.2060
  140OSM    H1S15275   3.807   2.667   6.644 -0.0076 -0.6954  0.0237
  140OSM    H1T15276   3.644   2.608   6.594  0.5159 -0.2387  0.6308
  140OSM     NF15277   3.638   2.776   6.817 -0.3459  0.0094 -0.1490
  140OSM    HNF15278   3.559   2.738   6.864 -1.7096  1.3265 -1.3251
  140OSM    C2S15279   3.623   2.799   6.675  0.0539 -0.1258 -0.2097
  140OSM    H2S15280   3.658   2.903   6.658 -0.1315 -0.0671 -0.2313
  140OSM    C3S15281   3.477   2.788   6.623 -0.4473 -0.4349  0.3327
  140OSM    H3S15282   3.440   2.684   6.631 -2.5126  0.3054  0.8869
  140OSM     O315283   3.472   2.834   6.484  0.2646 -0.5115 -0.8123
  140OSM    HO315284   3.563   2.819   6.457 -0.1927 -0.9642 -2.1275
  140OSM    C4S15285   3.381   2.869   6.712 -0.2087  0.3894 -0.5717
  140OSM    H4S15286   3.408   2.975   6.713 -0.3601  0.4330 -1.0521
  140OSM    C5S15287   3.270   2.817   6.765  0.1889 -0.5917 -0.9380
  140OSM    H5S15288   3.258   2.708   6.752 -2.9310 -0.3655 -0.3157
  140OSM    C6S15289   3.154   2.881   6.838  0.2303 -0.6933 -0.1432
  140OSM    H6S15290   3.076   2.920   6.770  2.0884  2.4981 -0.5280
  140OSM    H6T15291   3.189   2.967   6.899  2.5525 -1.6233 -0.1051
  140OSM    C7S15292   3.097   2.790   6.944 -0.0723  0.8308 -0.2369
  140OSM    H7S15293   3.048   2.697   6.910  0.0599 -0.3589  2.7345
  140OSM    H7T15294   3.018   2.855   6.987 -1.6877 -0.7306 -0.7882
  140OSM    C8S15295   3.207   2.750   7.050 -0.0377 -0.6762  0.2485
  140OSM    H8S15296   3.270   2.841   7.054 -0.4571 -0.3058 -1.5381
  140OSM    H8T15297   3.274   2.673   7.007  2.1141  1.8666 -1.0942
  140OSM    C9S15298   3.142   2.715   7.180  0.5889  0.4224 -0.4357
  140OSM    H9S15299   3.085   2.622   7.159  0.8088 -0.0808  1.1620
  140OSM    H9T15300   3.067   2.786   7.219  0.7032 -1.4285  3.3384
  140OSM   C10S15301   3.246   2.691   7.290  0.2610  0.1410  0.0831
  140OSM   H10S15302   3.294   2.791   7.288 -1.5679  1.0465  0.1474
  140OSM   H10T15303   3.313   2.607   7.262  0.5189  1.3109 -2.9745
  140OSM   C11S15304   3.184   2.653   7.428 -0.0876  0.5953 -0.3869
  140OSM   H11S15305   3.114   2.568   7.417  0.3968 -0.1519  2.0229
  140OSM   H11T15306   3.124   2.737   7.471  0.0912  0.4587  0.1347
  140OSM   C12S15307   3.294   2.620   7.524 -0.3148  0.2311 -0.0751
  140OSM   H12S15308   3.364   2.699   7.560  0.6689 -1.0364  0.8625
  140OSM   H12T15309   3.368   2.553   7.475  1.8299  2.5852 -0.1867
  140OSM   C13S15310   3.237   2.567   7.655 -0.1822  0.2517 -0.0684
  140OSM   H13S15311   3.200   2.465   7.630  0.8093 -0.0417 -0.3546
  140OSM   H13T15312   3.150   2.632   7.678 -1.5135 -1.7049  0.6083
  140OSM   C14S15313   3.330   2.584   7.780  0.2497 -0.5838  0.8103
  140OSM   H14S15314   3.363   2.689   7.794  1.0709 -0.2525 -2.8757
  140OSM   H14T15315   3.425   2.527   7.771  0.3555 -0.3117  0.1695
  140OSM   C15S15316   3.256   2.550   7.907 -0.9037 -0.0926 -0.3801
  140OSM   H15S15317   3.203   2.454   7.894 -2.5650  0.9417 -1.4758
  140OSM   H15T15318   3.172   2.615   7.938 -2.1597 -1.8014 -0.1765
  140OSM   C16S15319   3.363   2.534   8.014  0.7533 -0.4573 -0.6448
  140OSM   H16S15320   3.430   2.621   7.998  0.4267  0.4157  2.4239
  140OSM   H16T15321   3.427   2.444   7.998 -1.6535 -2.1138 -1.2242
  140OSM   C17S15322   3.306   2.535   8.152 -0.7884 -0.0855  0.2509
  140OSM   H17S15323   3.371   2.476   8.220  0.1897  0.1196 -0.5049
  140OSM   H17T15324   3.208   2.484   8.145 -0.9921  0.5422 -1.7017
  140OSM   C18S15325   3.288   2.670   8.215  0.5698  0.1526  1.2808
  140OSM   H18S15326   3.388   2.715   8.233  1.8009 -2.1817  0.4161
  140OSM   H18T15327   3.245   2.659   8.317  0.6538  1.0315  1.4152
  140OSM   H18U15328   3.237   2.745   8.151  2.1414  0.0708 -0.0825
  140OSM    C1F15329   3.756   2.791   6.883  0.6780  0.0210  0.1849
  140OSM     OF15330   3.844   2.854   6.830  0.0880 -0.4991 -0.0924
  140OSM    C2F15331   3.763   2.737   7.019  0.1230  0.2668 -0.6026
  140OSM    H2F15332   3.810   2.636   7.009  1.1370  0.7245 -0.5249
  140OSM    H2G15333   3.662   2.711   7.058  0.0123 -1.5414 -1.9749
  140OSM    C3F15334   3.836   2.826   7.122 -0.7776  0.4806 -0.7893
  140OSM    H3F15335   3.779   2.919   7.142  3.7840  2.4951  3.9482
  140OSM    H3G15336   3.938   2.837   7.080 -0.1280 -1.0995  0.3161
  140OSM    C4F15337   3.858   2.770   7.267  0.1152 -0.4922  0.1173
  140OSM    H4F15338   3.924   2.844   7.318  0.4083  0.2034 -1.2372
  140OSM    H4G15339   3.902   2.669   7.273  0.3341 -0.5123 -1.5874
  140OSM    C5F15340   3.720   2.769   7.331  0.3113 -0.0897  0.0430
  140OSM    H5F15341   3.642   2.745   7.256 -0.4631 -0.3721  0.9210
  140OSM    H5G15342   3.706   2.873   7.367  0.8999  0.9353 -2.6293
  140OSM    C6F15343   3.704   2.670   7.445  0.3426  0.5783  0.6666
  140OSM    H6F15344   3.736   2.572   7.403  0.4098  1.4896 -1.4839
  140OSM    H6G15345   3.599   2.641   7.465  0.8396 -2.7999 -1.2291
  140OSM    C7F15346   3.772   2.717   7.570  0.4106 -0.4343 -0.1466
  140OSM    H7F15347   3.750   2.823   7.596 -0.6289 -1.3634  3.0005
  140OSM    H7G15348   3.882   2.705   7.563  0.4654 -0.6736  1.0775
  140OSM    C8F15349   3.720   2.651   7.706 -0.1190 -0.1834  0.4838
  140OSM    H8F15350   3.731   2.542   7.692 -0.3645 -0.0882 -0.4264
  140OSM    H8G15351   3.613   2.683   7.707  0.3887  1.5938  0.3818
  140OSM    C9F15352   3.812   2.685   7.818 -0.0147  0.0143 -0.0613
  140OSM    H9F15353   3.903   2.624   7.816  0.0481  0.0443  1.2119
  140OSM   C10F15354   3.810   2.778   7.911 -0.4267 -0.6842 -0.5781
  140OSM   H10F15355   3.877   2.800   7.996 -0.3559 -0.2978 -0.7325
  140OSM   C11F15356   3.690   2.870   7.930 -0.2544  0.2059 -0.5436
  140OSM   H11F15357   3.619   2.853   7.846  2.5462 -1.4337 -2.6973
  140OSM   H11G15358   3.721   2.974   7.904 -1.1805 -0.0253 -2.7207
  140OSM   C12F15359   3.625   2.850   8.066 -0.4087 -0.4055  0.3477
  140OSM   H12F15360   3.602   2.742   8.076 -1.6022 -0.0798  1.2152
  140OSM   H12G15361   3.528   2.903   8.058 -1.8727 -3.0672 -0.1404
  140OSM   C13F15362   3.719   2.888   8.184  0.3272  0.6842 -0.6909
  140OSM   H13F15363   3.748   2.993   8.165 -0.0701  1.0311  0.5757
  140OSM   H13G15364   3.801   2.813   8.191  0.1164  0.5198  0.0510
  140OSM   C14F15365   3.673   2.875   8.326 -0.2321  0.5697 -0.4927
  140OSM   H14F15366   3.760   2.881   8.395 -1.6737 -0.4138  1.4685
  140OSM   H14G15367   3.625   2.776   8.341  1.0604 -0.1603 -1.1328
  140OSM   C15F15368   3.565   2.975   8.362  0.0127  0.2152  0.1272
  140OSM   H15F15369   3.474   2.966   8.299 -1.3110 -0.6587  2.1267
  140OSM   H15G15370   3.607   3.077   8.353 -0.3657  0.4142  0.6029
  140OSM   C16F15371   3.520   2.953   8.510 -0.3136  0.1130 -0.4900
  140OSM   H16F15372   3.596   2.957   8.591 -0.5356 -0.9679 -0.2231
  140OSM   H16G15373   3.471   2.854   8.514 -0.5780  0.1871 -1.7247
  140OSM   C17F15374   3.407   3.050   8.556 -0.2928 -0.1642 -0.4255
  140OSM   H17F15375   3.338   3.070   8.472 -0.6384  0.5986  0.0335
  140OSM   H17G15376   3.455   3.149   8.570 -0.6458 -0.4225  3.1403
  140OSM   C18F15377   3.319   3.020   8.673  0.3607 -0.8155  0.8129
  140OSM   H18F15378   3.362   2.965   8.759  1.2797 -1.9007 -0.3173
  140OSM   H18G15379   3.237   2.950   8.646  0.8371 -1.4411  0.9632
  140OSM   H18H15380   3.264   3.114   8.691  2.7866  0.7851  0.1893
  141OSM      N15381   3.159   4.622   6.000 -0.0366 -0.1985 -0.8642
  141OSM    C1515382   3.230   4.756   5.996  0.4662 -0.1207  0.5185
  141OSM   H15A15383   3.335   4.733   6.008  0.9394  0.1161 -2.6910
  141OSM   H15B15384   3.196   4.829   6.067  0.0443 -2.6543  3.0040
  141OSM   H15C15385   3.206   4.799   5.900  0.0925 -0.7138  0.3382
  141OSM    C1415386   3.217   4.528   5.903  0.4285  0.0475 -0.2056
  141OSM   H14A15387   3.180   4.426   5.910 -0.1375  0.1103 -2.0156
  141OSM   H14B15388   3.322   4.514   5.925  0.5925  1.5799  0.0492
  141OSM   H14C15389   3.200   4.564   5.803  1.0519  0.7736 -0.0556
  141OSM    C1315390   3.192   4.565   6.133  0.1934  0.0157 -0.6671
  141OSM   H13A15391   3.143   4.472   6.155 -1.4810  1.0343 -0.0204
  141OSM   H13B15392   3.160   4.621   6.220  1.9409  0.2542 -0.1595
  141OSM   H13C15393   3.298   4.549   6.150 -0.1380 -0.3174  1.1701
  141OSM    C1215394   3.011   4.647   5.980 -0.3243 -0.1573 -0.3816
  141OSM   H12A15395   2.961   4.552   5.980 -1.0378  0.1870  1.5758
  141OSM   H12B15396   2.992   4.695   5.885  0.9862 -0.8695 -1.0132
  141OSM    C1115397   2.934   4.717   6.093 -0.4268  0.4717  0.1094
  141OSM   H11A15398   2.939   4.655   6.185 -0.0442 -0.0823 -0.2832
  141OSM   H11B15399   2.830   4.715   6.053 -0.2378  2.0694 -0.5081
  141OSM      P15400   2.885   4.970   6.099 -0.0161 -0.3993 -0.7017
  141OSM    O1315401   2.977   5.089   6.085 -0.0677  0.0306 -0.5791
  141OSM    O1415402   2.794   4.939   5.986  0.1107  0.4107  0.1316
  141OSM    O1115403   2.802   4.985   6.239 -0.0897 -0.4574  0.4673
  141OSM    O1215404   2.979   4.845   6.123  0.0175  0.5094  0.0400
  141OSM    C1S15405   2.872   4.940   6.355 -0.4891  0.3600 -0.1132
  141OSM    H1S15406   2.960   5.006   6.370 -0.3997  1.0287 -3.0820
  141OSM    H1T15407   2.903   4.835   6.337 -2.4504  0.1940 -2.9891
  141OSM     NF15408   2.870   4.895   6.593  0.0693  0.4680  0.3233
  141OSM    HNF15409   2.852   4.806   6.634  0.7654  1.0411  1.9168
  141OSM    C2S15410   2.789   4.945   6.484  0.0634  0.2098 -0.4703
  141OSM    H2S15411   2.754   5.050   6.492 -2.1110 -0.3770 -1.7689
  141OSM    C3S15412   2.654   4.868   6.466 -1.3119 -0.1922  0.0801
  141OSM    H3S15413   2.670   4.761   6.442 -1.1006 -0.2378  0.4191
  141OSM     O315414   2.568   4.909   6.362  0.5867 -0.4115  0.3536
  141OSM    HO315415   2.616   4.980   6.320 -0.0170  0.7871  1.6380
  141OSM    C4S15416   2.594   4.861   6.604  0.2545  0.1812 -0.2369
  141OSM    H4S15417   2.557   4.961   6.632  0.6680 -0.0902  1.3688
  141OSM    C5S15418   2.557   4.758   6.681  0.4315  0.4621 -0.1371
  141OSM    H5S15419   2.567   4.653   6.649  2.5347  1.0661 -1.5340
  141OSM    C6S15420   2.486   4.770   6.819  0.8164 -0.1385  0.3372
  141OSM    H6S15421   2.444   4.675   6.858 -0.2194  0.4872  0.7729
  141OSM    H6T15422   2.390   4.826   6.817  0.6672 -0.4461 -2.1898
  141OSM    C7S15423   2.576   4.836   6.921 -0.5328 -0.2302  0.1684
  141OSM    H7S15424   2.612   4.934   6.884 -0.5030  0.2913  1.5611
  141OSM    H7T15425   2.663   4.769   6.936 -0.4855 -0.8475 -2.5738
  141OSM    C8S15426   2.513   4.842   7.064 -0.4537  0.6825 -0.3424
  141OSM    H8S15427   2.451   4.753   7.089 -1.9082  2.0638  1.1031
  141OSM    H8T15428   2.442   4.927   7.050  1.2891  2.3442  0.7523
  141OSM    C9S15429   2.614   4.881   7.177  0.6924  0.1597  0.4054
  141OSM    H9S15430   2.657   4.981   7.155  0.1542  0.6471  1.5387
  141OSM    H9T15431   2.701   4.812   7.179  0.5780 -0.0094 -0.2832
  141OSM   C10S15432   2.550   4.874   7.312 -0.4166  0.0617  0.1965
  141OSM   H10S15433   2.482   4.787   7.309 -0.9743  0.4149  1.8643
  141OSM   H10T15434   2.471   4.950   7.332  0.0765  1.2532 -2.2019
  141OSM   C11S15435   2.651   4.861   7.427  0.0630 -0.5801  0.1695
  141OSM   H11S15436   2.692   4.962   7.452  1.9923 -1.5267  0.9012
  141OSM   H11T15437   2.738   4.795   7.410  1.0160  0.8971 -0.8394
  141OSM   C12S15438   2.586   4.800   7.552  0.1089  0.1352 -0.0892
  141OSM   H12S15439   2.566   4.695   7.524  1.4483 -0.4246  0.9939
  141OSM   H12T15440   2.487   4.845   7.575 -0.5023 -0.4626 -1.4953
  141OSM   C13S15441   2.672   4.805   7.677 -0.2040 -0.0160 -0.2398
  141OSM   H13S15442   2.763   4.743   7.664 -1.4651 -1.9328 -0.0137
  141OSM   H13T15443   2.610   4.757   7.755 -0.4812 -1.1362 -1.1367
  141OSM   C14S15444   2.715   4.943   7.726  0.0654 -0.1651 -0.0802
  141OSM   H14S15445   2.629   5.012   7.723 -0.6033 -1.0033 -0.3853
  141OSM   H14T15446   2.790   4.991   7.660 -1.2726  0.7547 -0.9472
  141OSM   C15S15447   2.754   4.943   7.878  0.2136  0.4354 -0.3517
  141OSM   H15S15448   2.832   4.867   7.898 -0.1966 -0.0764 -0.6978
  141OSM   H15T15449   2.655   4.929   7.925  0.0540  1.4480 -0.3701
  141OSM   C16S15450   2.808   5.071   7.925 -0.8265 -0.2490 -0.3201
  141OSM   H16S15451   2.762   5.164   7.887  1.5751  0.6009 -1.2343
  141OSM   H16T15452   2.912   5.079   7.886 -0.4120 -2.4652  0.2302
  141OSM   C17S15453   2.842   5.071   8.078  0.0340 -0.3308  0.6467
  141OSM   H17S15454   2.741   5.063   8.124 -2.0071  3.1256 -2.9812
  141OSM   H17T15455   2.891   5.164   8.115 -0.2163 -0.4881  1.3822
  141OSM   C18S15456   2.927   4.951   8.129  0.2922  1.0775  0.0564
  141OSM   H18S15457   2.875   4.853   8.120 -0.0325  1.3178 -0.6865
  141OSM   H18T15458   2.945   4.954   8.238  2.0016  4.6400 -0.2557
  141OSM   H18U15459   3.027   4.939   8.081  0.9205  0.9481  1.3832
  141OSM    C1F15460   2.982   4.958   6.625  0.3515 -0.0467 -0.5803
  141OSM     OF15461   2.991   5.079   6.596 -0.4651 -0.5164  0.0429
  141OSM    C2F15462   3.088   4.869   6.692 -0.0613  0.4378  0.2172
  141OSM    H2F15463   3.183   4.926   6.694 -0.4450  1.0970 -0.1667
  141OSM    H2G15464   3.097   4.781   6.625 -0.6569 -0.3472  1.1527
  141OSM    C3F15465   3.051   4.825   6.831  0.4937  0.2756 -0.0213
  141OSM    H3F15466   3.122   4.741   6.851  1.0082  0.7178  0.0089
  141OSM    H3G15467   2.952   4.776   6.833  0.5192  0.2690  3.2737
  141OSM    C4F15468   3.067   4.936   6.937 -0.2821  0.0632  0.3483
  141OSM    H4F15469   3.025   5.029   6.892  1.5693  1.1681  0.8428
  141OSM    H4G15470   3.168   4.973   6.964  0.6483 -0.6752 -1.9519
  141OSM    C5F15471   3.006   4.887   7.077  0.4533  0.7284 -0.2305
  141OSM    H5F15472   3.049   4.786   7.094  0.2333  0.5186 -0.8810
  141OSM    H5G15473   2.895   4.883   7.072  0.5461 -0.6520 -1.5421
  141OSM    C6F15474   3.048   4.969   7.199 -0.3204 -0.1884  0.9181
  141OSM    H6F15475   2.982   4.952   7.288 -0.1535 -0.3406  1.0140
  141OSM    H6G15476   3.028   5.074   7.169  0.3006 -0.9029 -2.1674
  141OSM    C7F15477   3.197   4.961   7.250 -0.4583 -0.1492 -0.3385
  141OSM    H7F15478   3.222   5.064   7.283  0.4152 -0.0752 -1.2038
  141OSM    H7G15479   3.263   4.936   7.164 -0.8878 -2.6172  0.0108
  141OSM    C8F15480   3.227   4.852   7.356  0.2086  0.3244  0.2289
  141OSM    H8F15481   3.336   4.829   7.356 -0.1923 -1.6606 -0.1984
  141OSM    H8G15482   3.176   4.758   7.325  1.9065 -1.1556  1.7595
  141OSM    C9F15483   3.177   4.885   7.493  0.3824 -0.5076  0.2834
  141OSM    H9F15484   3.071   4.862   7.511  0.2798  0.1568  0.5248
  141OSM   C10F15485   3.247   4.924   7.603  0.3267  0.6755  0.1658
  141OSM   H10F15486   3.183   4.954   7.687 -0.4854 -1.2080  0.2425
  141OSM   C11F15487   3.390   4.945   7.628  0.0143  0.9889  0.7195
  141OSM   H11F15488   3.413   5.053   7.644  3.4720  0.2442  1.1785
  141OSM   H11G15489   3.444   4.921   7.534 -1.2939 -0.1346  0.2499
  141OSM   C12F15490   3.445   4.843   7.728 -0.2161  0.2753  0.0376
  141OSM   H12F15491   3.539   4.872   7.779  0.4178  0.0112 -0.9726
  141OSM   H12G15492   3.458   4.747   7.674 -1.6046  0.1765 -0.1424
  141OSM   C13F15493   3.356   4.816   7.855  0.3112 -0.1030  0.6698
  141OSM   H13F15494   3.262   4.767   7.821  1.7457 -1.4543 -1.5501
  141OSM   H13G15495   3.344   4.914   7.905  0.7052  0.4662 -0.3468
  141OSM   C14F15496   3.421   4.718   7.961 -0.3155  0.6099  0.0742
  141OSM   H14F15497   3.527   4.740   7.984 -0.1406  1.3023 -1.3226
  141OSM   H14G15498   3.433   4.615   7.921  0.8970  1.0317 -0.6721
  141OSM   C15F15499   3.335   4.710   8.083  0.3115  0.1071 -0.4131
  141OSM   H15F15500   3.352   4.619   8.144  0.5402 -0.2454 -0.9959
  141OSM   H15G15501   3.227   4.719   8.057 -0.1253  0.0838  1.3304
  141OSM   C16F15502   3.352   4.827   8.178 -0.5354 -0.8315 -0.7592
  141OSM   H16F15503   3.257   4.873   8.214 -0.4679 -2.5717  1.7329
  141OSM   H16G15504   3.397   4.910   8.119  0.8390  0.4191  1.9601
  141OSM   C17F15505   3.445   4.786   8.299 -0.5519 -0.1507  0.6938
  141OSM   H17F15506   3.537   4.738   8.260 -1.1179  0.8949 -2.0747
  141OSM   H17G15507   3.393   4.711   8.363  0.5941 -2.0434 -0.5326
  141OSM   C18F15508   3.476   4.906   8.388  0.0682 -0.7607 -0.1999
  141OSM   H18F15509   3.550   4.887   8.468 -0.1301  0.4173  0.2747
  141OSM   H18G15510   3.385   4.948   8.436  0.3131  0.1764 -0.5586
  141OSM   H18H15511   3.509   4.987   8.320  4.3170  0.3878  3.0427
  142OSM      N15512   2.727   6.181   6.178  0.2868  0.5254 -0.5224
  142OSM    C1515513   2.704   6.272   6.057 -0.2631  0.0934 -1.1704
  142OSM   H15A15514   2.597   6.281   6.048 -0.2704  0.1036 -1.0662
  142OSM   H15B15515   2.760   6.238   5.971  2.3078  0.7855  0.1567
  142OSM   H15C15516   2.738   6.367   6.095 -1.1582 -0.4266  0.9971
  142OSM    C1415517   2.663   6.044   6.170 -1.4629  0.2592  0.5080
  142OSM   H14A15518   2.661   5.981   6.258 -3.0264 -1.7683 -0.9426
  142OSM   H14B15519   2.711   5.995   6.087 -1.5743  1.3380 -0.2006
  142OSM   H14C15520   2.561   6.057   6.137 -0.2829  3.9073 -1.9904
  142OSM    C1315521   2.876   6.156   6.199  0.4064  0.3040 -0.4252
  142OSM   H13A15522   2.927   6.251   6.206  3.7102 -1.3630 -1.0949
  142OSM   H13B15523   2.929   6.090   6.132  0.4811 -1.7448  1.5858
  142OSM   H13C15524   2.888   6.109   6.296 -2.9252  0.9717  0.3712
  142OSM    C1215525   2.670   6.250   6.304  0.2299 -0.3700  1.1166
  142OSM   H12A15526   2.658   6.162   6.365  0.2127 -2.6131 -1.9803
  142OSM   H12B15527   2.569   6.278   6.280  0.8173 -0.5266 -1.7286
  142OSM    C1115528   2.738   6.374   6.371  0.2174 -0.0562  0.3361
  142OSM   H11A15529   2.844   6.347   6.392  0.8708  1.3141 -1.1131
  142OSM   H11B15530   2.685   6.393   6.466 -3.2021  3.3214 -2.1198
  142OSM      P15531   2.617   6.575   6.261 -0.0374 -0.1929  0.6986
  142OSM    O1315532   2.646   6.683   6.158  0.5047  0.5056 -0.6762
  142OSM    O1415533   2.504   6.480   6.240 -0.2725  0.4598 -0.5927
  142OSM    O1115534   2.609   6.635   6.406  0.3207 -0.1024 -0.2510
  142OSM    O1215535   2.747   6.485   6.279  0.5756 -0.8589  0.2240
  142OSM    C1S15536   2.709   6.725   6.459  0.4847 -0.1227  0.1025
  142OSM    H1S15537   2.718   6.821   6.403  0.1310  0.7431  1.4982
  142OSM    H1T15538   2.810   6.678   6.450 -0.0923 -1.6343  1.4157
  142OSM     NF15539   2.806   6.843   6.647 -0.8911 -0.1820  0.0926
  142OSM    HNF15540   2.872   6.806   6.712 -1.3984  0.0226  0.7302
  142OSM    C2S15541   2.691   6.763   6.608  0.0323  0.0917  0.7065
  142OSM    H2S15542   2.605   6.832   6.593 -0.2736 -0.5712 -0.6415
  142OSM    C3S15543   2.668   6.642   6.706  0.8810 -0.0914  0.0121
  142OSM    H3S15544   2.761   6.586   6.683  1.2530  0.1668  0.8511
  142OSM     O315545   2.558   6.556   6.665  0.4286 -0.2638  0.3151
  142OSM    HO315546   2.546   6.593   6.577  1.3256 -2.1479 -0.6318
  142OSM    C4S15547   2.651   6.691   6.851 -0.2009  0.2467  0.6207
  142OSM    H4S15548   2.742   6.726   6.902 -0.4204  0.1277  1.0975
  142OSM    C5S15549   2.540   6.707   6.921  0.2216  0.1363 -0.5974
  142OSM    H5S15550   2.441   6.687   6.878 -0.1400 -0.4151  0.4699
  142OSM    C6S15551   2.542   6.756   7.066  0.1372  0.0894  0.6975
  142OSM    H6S15552   2.449   6.715   7.110  0.2237  0.6015  1.3753
  142OSM    H6T15553   2.543   6.867   7.069  1.2364  0.1374 -0.8288
  142OSM    C7S15554   2.663   6.710   7.147 -0.6078  0.2348  0.1167
  142OSM    H7S15555   2.751   6.751   7.093 -0.5848 -1.4999 -1.2002
  142OSM    H7T15556   2.647   6.601   7.141  0.4454  0.1816 -3.1826
  142OSM    C8S15557   2.649   6.753   7.293 -0.0682 -0.6612  0.3308
  142OSM    H8S15558   2.560   6.709   7.343 -0.1055  0.5814  1.4100
  142OSM    H8T15559   2.631   6.863   7.299 -0.6844 -0.8597  3.0531
  142OSM    C9S15560   2.767   6.721   7.386  0.1022 -0.6773 -0.9783
  142OSM    H9S15561   2.858   6.768   7.344  0.1457  1.0045  0.9194
  142OSM    H9T15562   2.802   6.616   7.393 -1.4672 -1.4771 -4.0223
  142OSM   C10S15563   2.761   6.775   7.530 -0.1848 -0.0802  0.5409
  142OSM   H10S15564   2.662   6.766   7.579 -1.0582  3.8329 -0.3339
  142OSM   H10T15565   2.774   6.884   7.517  2.9079 -0.7537 -3.0082
  142OSM   C11S15566   2.871   6.718   7.626  0.3830 -0.4702  0.5551
  142OSM   H11S15567   2.975   6.753   7.605  0.4782 -0.5275  0.9158
  142OSM   H11T15568   2.868   6.607   7.632 -2.2623 -0.5219 -1.2545
  142OSM   C12S15569   2.859   6.764   7.770  0.1981 -0.4604  0.3330
  142OSM   H12S15570   2.861   6.875   7.773  4.0098 -0.4326 -0.6900
  142OSM   H12T15571   2.941   6.726   7.834  1.7432 -1.2757 -2.0776
  142OSM   C13S15572   2.734   6.709   7.840 -0.0822 -0.5000  0.9920
  142OSM   H13S15573   2.702   6.609   7.806 -0.6810  0.4773 -1.3737
  142OSM   H13T15574   2.658   6.783   7.807  1.1301  0.3308  0.0162
  142OSM   C14S15575   2.751   6.708   7.995  0.4537  0.5830 -0.7887
  142OSM   H14S15576   2.819   6.790   8.023 -0.5705  1.6174 -1.3031
  142OSM   H14T15577   2.817   6.621   8.017 -1.0001 -0.8003 -1.7427
  142OSM   C15S15578   2.615   6.703   8.070  0.5402  0.3072 -0.3427
  142OSM   H15S15579   2.549   6.622   8.031  1.0920 -1.7854  2.9029
  142OSM   H15T15580   2.559   6.797   8.050 -2.3711 -1.7950 -2.4849
  142OSM   C16S15581   2.619   6.677   8.227  0.2937  0.0952  0.1067
  142OSM   H16S15582   2.685   6.590   8.251  0.3569  0.1848  0.2530
  142OSM   H16T15583   2.512   6.660   8.251  0.0172  0.6152 -0.7629
  142OSM   C17S15584   2.667   6.794   8.308 -0.3614 -0.4627 -0.5542
  142OSM   H17S15585   2.765   6.816   8.261 -0.0837 -0.4283  0.0322
  142OSM   H17T15586   2.677   6.774   8.417 -1.9822 -0.5016 -0.4086
  142OSM   C18S15587   2.578   6.919   8.300 -0.0964 -0.0773  0.2240
  142OSM   H18S15588   2.597   6.968   8.202  2.2932  1.0942  1.2307
  142OSM   H18T15589   2.604   6.988   8.383 -0.0943 -0.7932  0.8183
  142OSM   H18U15590   2.472   6.889   8.311 -0.7838  0.9287 -3.0805
  142OSM    C1F15591   2.832   6.961   6.591  0.6956 -0.4066  0.1126
  142OSM     OF15592   2.746   7.018   6.519  0.2405 -0.3748  0.1143
  142OSM    C2F15593   2.973   7.015   6.626  0.1678 -0.4274  0.2715
  142OSM    H2F15594   3.030   7.044   6.535 -0.5875  0.6773  0.1296
  142OSM    H2G15595   3.018   6.932   6.684  2.0218 -1.4463 -2.4741
  142OSM    C3F15596   2.956   7.139   6.716 -0.2080 -0.1108  0.0145
  142OSM    H3F15597   2.919   7.222   6.653  0.9954  0.6375  0.2676
  142OSM    H3G15598   3.055   7.182   6.744 -0.9141  2.7174 -1.6015
  142OSM    C4F15599   2.861   7.129   6.835  0.4360 -0.6538 -0.7988
  142OSM    H4F15600   2.887   7.034   6.886  0.1723 -1.0473 -1.3978
  142OSM    H4G15601   2.755   7.117   6.804  0.3464  0.4551 -0.9403
  142OSM    C5F15602   2.873   7.249   6.932 -0.0198 -0.1985 -0.0183
  142OSM    H5F15603   2.849   7.344   6.878  3.3197  1.8955  2.0505
  142OSM    H5G15604   2.975   7.265   6.972 -0.0439 -0.9043  0.3222
  142OSM    C6F15605   2.773   7.239   7.045  0.3144  0.7646 -0.6585
  142OSM    H6F15606   2.778   7.134   7.083  0.6169 -0.0294 -2.8460
  142OSM    H6G15607   2.668   7.240   7.009 -0.0102  0.4867  0.2501
  142OSM    C7F15608   2.814   7.318   7.160  0.0160 -0.1728 -0.1508
  142OSM    H7F15609   2.861   7.414   7.129  1.3974 -0.9520 -0.5330
  142OSM    H7G15610   2.900   7.268   7.210 -1.9819  0.5115  4.1372
  142OSM    C8F15611   2.700   7.345   7.261 -0.0895 -0.1947  0.1013
  142OSM    H8F15612   2.610   7.372   7.201 -0.3279  0.8943  0.9434
  142OSM    H8G15613   2.723   7.428   7.331 -0.0488  1.4266 -1.7888
  142OSM    C9F15614   2.675   7.218   7.341 -0.8410  0.3772  0.0185
  142OSM    H9F15615   2.620   7.142   7.284 -2.1163 -0.1105  1.8449
  142OSM   C10F15616   2.711   7.193   7.470  0.3637 -0.0056  0.3498
  142OSM   H10F15617   2.693   7.092   7.510  1.4895 -0.6873 -0.7961
  142OSM   C11F15618   2.783   7.273   7.576  0.1752 -0.3170 -0.2421
  142OSM   H11F15619   2.834   7.361   7.530  0.8151 -0.2544  0.5852
  142OSM   H11G15620   2.868   7.205   7.598  0.3181 -0.5141 -1.3769
  142OSM   C12F15621   2.702   7.306   7.700  0.5096  0.8057 -0.0844
  142OSM   H12F15622   2.608   7.361   7.675 -1.0286 -2.9291 -3.0979
  142OSM   H12G15623   2.766   7.365   7.768 -2.3362  2.3038  1.3842
  142OSM   C13F15624   2.659   7.176   7.777  0.2318  0.6675 -0.1467
  142OSM   H13F15625   2.731   7.091   7.767 -0.7029 -0.1988  0.3875
  142OSM   H13G15626   2.571   7.148   7.715 -1.2136  1.9949  1.2912
  142OSM   C14F15627   2.634   7.202   7.922  0.5233 -0.0594 -0.0708
  142OSM   H14F15628   2.731   7.220   7.974 -0.4159  0.6548  1.4773
  142OSM   H14G15629   2.578   7.110   7.947 -2.3100  1.5249 -0.3477
  142OSM   C15F15630   2.542   7.321   7.960 -0.1875  0.9621  0.3726
  142OSM   H15F15631   2.451   7.316   7.896  0.5835 -0.0173 -0.6686
  142OSM   H15G15632   2.597   7.413   7.929  0.5151  0.8613  1.2938
  142OSM   C16F15633   2.510   7.314   8.111  0.0403 -0.3688  0.0219
  142OSM   H16F15634   2.524   7.209   8.144  1.6586  0.5393  2.3308
  142OSM   H16G15635   2.406   7.351   8.127  0.6680  1.2863  0.3773
  142OSM   C17F15636   2.586   7.411   8.194 -0.4682  0.1717 -0.4412
  142OSM   H17F15637   2.562   7.513   8.158 -0.6458  1.4339  3.1307
  142OSM   H17G15638   2.697   7.416   8.192 -0.4041 -0.8953  0.0475
  142OSM   C18F15639   2.543   7.416   8.340 -0.2295  0.1943 -0.5722
  142OSM   H18F15640   2.596   7.491   8.403 -0.0648  1.3886 -2.0949
  142OSM   H18G15641   2.561   7.314   8.379  2.5680  0.8194 -0.0970
  142OSM   H18H15642   2.434   7.432   8.350 -0.8536 -2.4883 -2.4291
  143OSM      N15643   5.043   2.646   6.189  0.0373  0.8790 -0.3151
  143OSM    C1515644   4.994   2.566   6.074  0.2967  0.0571  0.1922
  143OSM   H15A15645   4.925   2.495   6.118  2.9465 -1.4640  2.0164
  143OSM   H15B15646   5.071   2.507   6.027 -0.2278 -1.3454  1.0546
  143OSM   H15C15647   4.954   2.630   5.996 -0.7137 -0.1728  0.5081
  143OSM    C1415648   5.154   2.736   6.152  0.1276  1.2894 -0.4748
  143OSM   H14A15649   5.176   2.805   6.232 -3.8724  1.2967  0.7274
  143OSM   H14B15650   5.111   2.800   6.077  0.2940 -0.0544 -1.7420
  143OSM   H14C15651   5.236   2.676   6.116  0.4193  0.7595  1.0401
  143OSM    C1315652   4.940   2.739   6.243 -0.3904 -1.2120 -0.5050
  143OSM   H13A15653   4.998   2.813   6.297 -1.4627  0.7828 -1.9827
  143OSM   H13B15654   4.861   2.694   6.301  1.0257 -2.6079  0.3591
  143OSM   H13C15655   4.899   2.794   6.159  0.5499 -0.7745 -0.6886
  143OSM    C1215656   5.098   2.565   6.301 -0.1483 -0.2368  0.4640
  143OSM   H12A15657   5.138   2.643   6.365 -0.9878  1.4049 -0.9818
  143OSM   H12B15658   5.185   2.514   6.264 -0.2437  0.3630 -0.5800
  143OSM    C1115659   5.006   2.465   6.384 -0.1357  0.4674 -0.0908
  143OSM   H11A15660   4.935   2.520   6.450 -1.9964 -0.0027 -1.6462
  143OSM   H11B15661   5.072   2.421   6.462 -0.1444 -0.2339 -0.4790
  143OSM      P15662   4.985   2.226   6.287 -0.5966  0.2929  0.0456
  143OSM    O1315663   4.885   2.151   6.204 -0.3675 -0.1439  0.4606
  143OSM    O1415664   5.130   2.215   6.245 -0.1585  0.5164  0.1788
  143OSM    O1115665   4.967   2.188   6.442  0.8120  0.0228  0.2710
  143OSM    O1215666   4.938   2.379   6.289  0.1017  0.1701 -0.3285
  143OSM    C1S15667   4.999   2.059   6.487 -0.1055 -0.3357  0.2680
  143OSM    H1S15668   5.109   2.041   6.480 -0.1087 -0.7124  1.1348
  143OSM    H1T15669   4.936   1.979   6.443 -0.9167  0.1054  0.6302
  143OSM     NF15670   5.026   1.910   6.690  0.0360 -0.9493 -0.7212
  143OSM    HNF15671   4.965   1.832   6.703 -2.8040  0.9330 -2.2325
  143OSM    C2S15672   4.965   2.038   6.636 -1.2642  1.1423 -0.1689
  143OSM    H2S15673   5.008   2.121   6.697 -2.0862  0.0723  1.9119
  143OSM    C3S15674   4.815   2.060   6.657  0.0721  0.1588 -0.0154
  143OSM    H3S15675   4.747   1.982   6.616  0.5124 -0.4234  0.3542
  143OSM     O315676   4.770   2.185   6.606  0.6189  0.1365 -0.6813
  143OSM    HO315677   4.828   2.208   6.533 -1.5621  0.3278 -2.4143
  143OSM    C4S15678   4.801   2.056   6.804 -0.6114  0.5155 -0.5640
  143OSM    H4S15679   4.851   2.142   6.853 -0.8050 -1.0610  2.5504
  143OSM    C5S15680   4.724   1.970   6.878 -0.0470  0.2660 -0.4822
  143OSM    H5S15681   4.675   1.886   6.827 -0.3540  0.7403 -0.9787
  143OSM    C6S15682   4.699   1.954   7.025 -0.3616  0.0542  0.2868
  143OSM    H6S15683   4.611   2.014   7.058 -1.0912 -1.3866  0.9972
  143OSM    H6T15684   4.783   1.983   7.091  1.5328  0.4686 -2.2514
  143OSM    C7S15685   4.669   1.799   7.054  0.2143 -0.6521 -0.1117
  143OSM    H7S15686   4.766   1.750   7.033  1.5800  0.2120  3.6726
  143OSM    H7T15687   4.583   1.762   6.994 -2.1083  1.6222  1.6616
  143OSM    C8S15688   4.634   1.760   7.200  0.3883 -0.2802  0.4387
  143OSM    H8S15689   4.627   1.650   7.211 -0.0538 -0.1363  1.5914
  143OSM    H8T15690   4.533   1.802   7.216  1.4464  1.3814  3.0561
  143OSM    C9S15691   4.729   1.809   7.314 -0.2689 -0.4180 -0.5553
  143OSM    H9S15692   4.747   1.918   7.302 -0.0095 -0.7096 -2.9639
  143OSM    H9T15693   4.830   1.764   7.306 -0.1045 -0.5976  2.0314
  143OSM   C10S15694   4.670   1.793   7.456 -0.0472  0.5148 -0.0502
  143OSM   H10S15695   4.562   1.810   7.440 -0.4576 -0.6172  1.4094
  143OSM   H10T15696   4.712   1.867   7.527  1.9924 -0.4766 -0.1565
  143OSM   C11S15697   4.701   1.657   7.523 -0.0104  0.4752  0.3773
  143OSM   H11S15698   4.810   1.645   7.539  0.1586  0.9704 -0.3752
  143OSM   H11T15699   4.669   1.580   7.449  0.6846  0.6030 -0.0636
  143OSM   C12S15700   4.618   1.632   7.650 -1.2160 -0.4079  0.5187
  143OSM   H12S15701   4.509   1.619   7.635 -1.1039  0.4242 -1.2365
  143OSM   H12T15702   4.637   1.718   7.716  0.0690 -0.8141  0.6999
  143OSM   C13S15703   4.675   1.503   7.726 -0.3273  0.1888  0.3307
  143OSM   H13S15704   4.780   1.524   7.757 -0.3105  0.2383  0.2412
  143OSM   H13T15705   4.679   1.424   7.648  2.2719  0.3067  0.2838
  143OSM   C14S15706   4.589   1.453   7.838 -0.5536  0.5783 -0.3858
  143OSM   H14S15707   4.493   1.434   7.786 -0.6146  0.9606 -0.4184
  143OSM   H14T15708   4.569   1.537   7.908  0.5817  1.6896 -1.3614
  143OSM   C15S15709   4.644   1.325   7.910  0.3948 -0.2788  0.5406
  143OSM   H15S15710   4.700   1.265   7.835  2.4865  1.2247  0.8443
  143OSM   H15T15711   4.561   1.266   7.956  2.5429 -3.0487  1.0180
  143OSM   C16S15712   4.741   1.356   8.015 -0.0221 -0.3168 -0.1681
  143OSM   H16S15713   4.707   1.435   8.085 -0.1723 -0.9884  0.5200
  143OSM   H16T15714   4.841   1.386   7.974  0.4616  1.5019  2.2457
  143OSM   C17S15715   4.763   1.236   8.110 -0.3464  0.6796 -0.2780
  143OSM   H17S15716   4.671   1.195   8.157 -1.0129 -1.0289 -2.9302
  143OSM   H17T15717   4.821   1.282   8.193  1.0702  0.2780 -1.0280
  143OSM   C18S15718   4.837   1.124   8.038  0.0974  0.1186 -0.6110
  143OSM   H18S15719   4.771   1.058   7.977  0.2276  1.0106 -1.7534
  143OSM   H18T15720   4.881   1.060   8.117  1.1972  0.5937 -0.8251
  143OSM   H18U15721   4.924   1.156   7.977 -0.3927  1.2929 -0.7123
  143OSM    C1F15722   5.159   1.888   6.701 -0.2681  0.4764  0.1035
  143OSM     OF15723   5.240   1.978   6.682  0.3017  0.4326  0.1243
  143OSM    C2F15724   5.215   1.752   6.736  0.8017  0.3658  1.0954
  143OSM    H2F15725   5.304   1.745   6.669  0.1337  2.0215  0.0043
  143OSM    H2G15726   5.148   1.670   6.702  2.1686  0.0650 -1.0169
  143OSM    C3F15727   5.276   1.741   6.878 -0.3492 -0.0674 -0.3770
  143OSM    H3F15728   5.350   1.818   6.908 -2.6708  0.9766  2.9600
  143OSM    H3G15729   5.319   1.638   6.883 -0.5402 -0.1877 -1.1495
  143OSM    C4F15730   5.159   1.741   6.973  0.8850 -0.1722 -0.1530
  143OSM    H4F15731   5.088   1.667   6.932  0.6907 -0.1624  0.1648
  143OSM    H4G15732   5.108   1.839   6.963 -0.3652 -0.7165  0.7796
  143OSM    C5F15733   5.217   1.711   7.107  0.0896  0.3591  0.6829
  143OSM    H5F15734   5.300   1.779   7.137 -0.0210 -0.8723  4.0810
  143OSM    H5G15735   5.244   1.603   7.105  0.7422  0.5410 -1.6026
  143OSM    C6F15736   5.110   1.713   7.212 -0.5685 -0.3609 -0.5754
  143OSM    H6F15737   5.021   1.656   7.180 -1.0911  0.6648 -0.9718
  143OSM    H6G15738   5.070   1.815   7.228 -0.3382 -0.6441  2.0469
  143OSM    C7F15739   5.152   1.653   7.341 -0.1254 -0.4640  0.0903
  143OSM    H7F15740   5.234   1.720   7.375  1.6147 -1.7843 -1.4081
  143OSM    H7G15741   5.193   1.554   7.310 -0.3676 -0.2930 -0.7809
  143OSM    C8F15742   5.042   1.626   7.436  0.5723  0.1009  0.4908
  143OSM    H8F15743   4.974   1.564   7.373  0.8531 -0.1728  0.4526
  143OSM    H8G15744   4.987   1.720   7.457  2.0597  1.0516  0.2181
  143OSM    C9F15745   5.082   1.554   7.563 -0.5116 -0.4368  0.6036
  143OSM    H9F15746   5.101   1.446   7.557  3.3219  0.1843  0.1112
  143OSM   C10F15747   5.095   1.611   7.686  0.6493 -0.1064  0.0689
  143OSM   H10F15748   5.131   1.547   7.767  1.1056  1.8126  1.4163
  143OSM   C11F15749   5.065   1.751   7.724  0.3237 -0.5099  0.8255
  143OSM   H11F15750   4.988   1.801   7.662  0.7518 -0.6767  0.1559
  143OSM   H11G15751   5.156   1.812   7.704  1.3374 -2.3471 -0.2896
  143OSM   C12F15752   5.029   1.766   7.869  0.3743  0.7545 -0.1606
  143OSM   H12F15753   5.035   1.872   7.899  2.8424  1.4413 -2.8879
  143OSM   H12G15754   5.098   1.709   7.934 -0.3912  2.0033  1.7794
  143OSM   C13F15755   4.892   1.712   7.902  0.1099  0.5433  0.8573
  143OSM   H13F15756   4.919   1.605   7.900 -0.9274  0.2763 -2.0818
  143OSM   H13G15757   4.830   1.732   7.812 -1.2118 -1.9339  1.1857
  143OSM   C14F15758   4.833   1.752   8.032  0.0633 -0.3411 -0.2156
  143OSM   H14F15759   4.735   1.700   8.041  0.3138 -0.9934 -1.2376
  143OSM   H14G15760   4.810   1.861   8.029  1.1572 -0.0729  0.5775
  143OSM   C15F15761   4.913   1.719   8.157  0.7272 -0.4022 -0.3855
  143OSM   H15F15762   5.004   1.783   8.154  0.7440 -0.3089  1.5866
  143OSM   H15G15763   4.951   1.615   8.151  0.8951 -0.2086 -3.7852
  143OSM   C16F15764   4.837   1.748   8.289  0.1530 -0.2555 -0.9097
  143OSM   H16F15765   4.751   1.680   8.310  0.7662 -1.1057 -1.1243
  143OSM   H16G15766   4.786   1.846   8.280  1.2206  0.2448 -1.6136
  143OSM   C17F15767   4.921   1.723   8.406  0.3901  0.0298 -0.1128
  143OSM   H17F15768   4.998   1.803   8.412 -0.1722  0.4402  2.1044
  143OSM   H17G15769   4.971   1.625   8.394  0.3605 -0.2289  1.6632
  143OSM   C18F15770   4.855   1.718   8.547 -0.3153 -0.2607 -0.5879
  143OSM   H18F15771   4.923   1.664   8.616 -1.1863 -0.5325  0.0717
  143OSM   H18G15772   4.768   1.649   8.549 -0.1862 -0.4060  0.3043
  143OSM   H18H15773   4.833   1.822   8.581  0.9288 -0.1475 -0.0971
  144OSM      N15774   2.834   1.093   5.970 -0.1747 -0.3716  0.1577
  144OSM    C1515775   2.698   1.043   6.022 -0.0929 -0.3568  0.1964
  144OSM   H15A15776   2.710   0.945   6.067  1.0114 -1.1450 -1.7721
  144OSM   H15B15777   2.640   1.034   5.931  0.1537 -2.4518  0.2063
  144OSM   H15C15778   2.657   1.113   6.094 -0.8240 -0.0338 -0.5253
  144OSM    C1415779   2.898   0.986   5.882 -0.2395  0.2939 -0.6186
  144OSM   H14A15780   3.005   0.999   5.876 -0.3785  2.0071  0.1881
  144OSM   H14B15781   2.842   0.996   5.790 -2.3714 -0.7755  0.5227
  144OSM   H14C15782   2.884   0.887   5.924 -0.7868  0.3744 -0.6138
  144OSM    C1315783   2.814   1.210   5.894  0.1004  0.3477 -0.0706
  144OSM   H13A15784   2.757   1.185   5.806 -1.4112 -2.3761  1.6079
  144OSM   H13B15785   2.909   1.254   5.867  0.1198  0.9770  0.9938
  144OSM   H13C15786   2.759   1.283   5.952 -0.9913 -1.7271  1.5807
  144OSM    C1215787   2.924   1.125   6.088  0.5305 -0.2422  0.5234
  144OSM   H12A15788   2.941   1.040   6.152 -1.3844 -0.0295  1.3500
  144OSM   H12B15789   2.880   1.206   6.144 -2.1469 -2.3985  1.6535
  144OSM    C1115790   3.061   1.195   6.051 -0.4368  0.0631  0.3849
  144OSM   H11A15791   3.102   1.145   5.961 -0.8520  1.7353 -0.7781
  144OSM   H11B15792   3.127   1.182   6.139  0.6800 -1.5548 -0.6681
  144OSM      P15793   3.024   1.454   6.101  0.4964  0.1539  0.2202
  144OSM    O1315794   3.141   1.543   6.093  0.3403  0.1184  0.0049
  144OSM    O1415795   2.895   1.506   6.058  0.1618  0.5362 -0.0483
  144OSM    O1115796   3.015   1.383   6.236  0.3688  0.1007 -0.1631
  144OSM    O1215797   3.055   1.332   6.009 -0.7096 -0.1738  0.3982
  144OSM    C1S15798   2.989   1.463   6.354 -0.9216  0.3178 -0.0295
  144OSM    H1S15799   2.880   1.470   6.378 -1.4361 -3.0559 -1.1508
  144OSM    H1T15800   3.033   1.564   6.345 -1.1429  0.8876  4.2152
  144OSM     NF15801   3.055   1.516   6.584 -0.2620  0.4044 -0.2379
  144OSM    HNF15802   3.132   1.576   6.606  0.5402  0.0487 -1.9407
  144OSM    C2S15803   3.071   1.413   6.486  0.0255 -0.4161  0.0884
  144OSM    H2S15804   3.026   1.318   6.521 -2.3951  0.9596  0.8099
  144OSM    C3S15805   3.219   1.399   6.438  0.1341  0.5607  0.2729
  144OSM    H3S15806   3.261   1.492   6.393 -0.1813 -0.5362 -2.3821
  144OSM     O315807   3.226   1.299   6.340  0.6646 -0.6664 -0.3264
  144OSM    HO315808   3.140   1.287   6.298  1.4011  2.4861 -2.9286
  144OSM    C4S15809   3.297   1.355   6.561  0.5268 -0.0152 -0.3374
  144OSM    H4S15810   3.354   1.437   6.607 -2.7091  2.4288 -0.4900
  144OSM    C5S15811   3.317   1.236   6.622 -0.2908  0.7380 -0.0466
  144OSM    H5S15812   3.266   1.150   6.576  1.4593 -0.1046 -0.4385
  144OSM    C6S15813   3.407   1.199   6.738  0.5032  0.1076 -0.8717
  144OSM    H6S15814   3.446   1.291   6.786 -1.9985  1.4954 -1.3870
  144OSM    H6T15815   3.496   1.147   6.697 -0.1112 -1.5120 -0.2275
  144OSM    C7S15816   3.328   1.128   6.849  0.3138  0.0584 -0.1071
  144OSM    H7S15817   3.282   1.031   6.820  2.1436 -0.4854 -1.2797
  144OSM    H7T15818   3.245   1.196   6.877  1.2797  1.0269  0.4327
  144OSM    C8S15819   3.413   1.101   6.982  0.3043 -0.3180 -0.0981
  144OSM    H8S15820   3.506   1.162   6.991  0.4984 -0.5585 -0.4648
  144OSM    H8T15821   3.449   0.996   6.974  4.2762  0.7838  1.8946
  144OSM    C9S15822   3.335   1.114   7.111 -0.1245 -0.0247 -0.1636
  144OSM    H9S15823   3.264   1.031   7.129  0.5039 -0.6496 -0.5291
  144OSM    H9T15824   3.288   1.215   7.111 -0.6115 -0.2102 -2.6654
  144OSM   C10S15825   3.423   1.119   7.240 -0.3247  0.5096 -0.4247
  144OSM   H10S15826   3.513   1.180   7.219 -0.0943  0.1971 -0.3545
  144OSM   H10T15827   3.455   1.017   7.271 -1.3194  0.8397  1.7514
  144OSM   C11S15828   3.344   1.180   7.355  0.7143 -0.0252  0.0314
  144OSM   H11S15829   3.246   1.128   7.361  0.6945  0.2467  2.6287
  144OSM   H11T15830   3.338   1.290   7.336 -0.5111  0.0210  0.6306
  144OSM   C12S15831   3.428   1.168   7.480  0.1005  0.9410 -0.5350
  144OSM   H12S15832   3.515   1.235   7.468  0.1188  1.3527  1.6352
  144OSM   H12T15833   3.458   1.062   7.495  1.3875  1.4041  0.2313
  144OSM   C13S15834   3.351   1.203   7.611 -0.1263  0.0125  0.1940
  144OSM   H13S15835   3.259   1.142   7.616 -2.1329  3.0060  0.5337
  144OSM   H13T15836   3.318   1.307   7.597  1.4292  0.3560 -1.1262
  144OSM   C14S15837   3.434   1.180   7.729 -0.0143  0.5080  0.2822
  144OSM   H14S15838   3.526   1.242   7.728  0.6387 -0.4753 -1.1694
  144OSM   H14T15839   3.478   1.078   7.732 -1.1305  0.0120  0.1694
  144OSM   C15S15840   3.357   1.206   7.862  0.1769  0.3281 -0.0970
  144OSM   H15S15841   3.298   1.299   7.842  1.7206  1.9070  2.3802
  144OSM   H15T15842   3.425   1.221   7.949 -0.9346 -0.4043  0.9263
  144OSM   C16S15843   3.269   1.088   7.917  0.5919  0.0288 -0.4655
  144OSM   H16S15844   3.341   1.005   7.932  1.2633  0.4057 -1.5460
  144OSM   H16T15845   3.205   1.053   7.833 -2.0246  2.8263  0.2511
  144OSM   C17S15846   3.179   1.115   8.038  0.0715 -1.2748 -0.4422
  144OSM   H17S15847   3.082   1.063   8.025 -0.5388  0.1044 -1.6201
  144OSM   H17T15848   3.153   1.222   8.022  2.6496 -0.4324  0.8180
  144OSM   C18S15849   3.248   1.110   8.178 -0.7902  0.0946 -0.3300
  144OSM   H18S15850   3.181   1.157   8.254  0.4497 -1.7076  1.9199
  144OSM   H18T15851   3.328   1.187   8.180 -0.3686 -0.3568  1.0968
  144OSM   H18U15852   3.295   1.014   8.207 -1.1756  0.1044  0.3427
  144OSM    C1F15853   2.945   1.537   6.653  0.7180 -0.3462  0.0950
  144OSM     OF15854   2.835   1.485   6.625  0.0246 -0.6528 -0.0183
  144OSM    C2F15855   2.945   1.623   6.778  0.0532  0.4659 -0.0028
  144OSM    H2F15856   2.835   1.628   6.792 -0.1393 -3.0131  0.1853
  144OSM    H2G15857   2.972   1.722   6.737  0.1312 -0.0900 -1.3175
  144OSM    C3F15858   3.031   1.561   6.894  0.4352 -0.2047 -0.3376
  144OSM    H3F15859   3.139   1.545   6.874  0.9323  2.8342 -0.2718
  144OSM    H3G15860   2.997   1.456   6.900 -0.8158  0.0726 -2.1795
  144OSM    C4F15861   3.007   1.635   7.030  0.6729 -1.1530 -0.3362
  144OSM    H4F15862   2.899   1.635   7.056  0.8059  0.1512  0.2594
  144OSM    H4G15863   3.052   1.735   7.017 -0.3867 -0.7378 -0.8684
  144OSM    C5F15864   3.078   1.576   7.158  0.0226 -0.0184  0.2922
  144OSM    H5F15865   3.177   1.537   7.125 -0.1295  0.6351 -0.9726
  144OSM    H5G15866   3.016   1.496   7.202 -0.6304  0.6910  0.6730
  144OSM    C6F15867   3.108   1.673   7.265 -0.5276 -0.4057  0.5146
  144OSM    H6F15868   3.024   1.746   7.270  1.8666  2.4096  0.9498
  144OSM    H6G15869   3.187   1.727   7.209 -0.9560 -3.0498 -2.8691
  144OSM    C7F15870   3.151   1.612   7.398 -0.5120 -0.5229 -0.3232
  144OSM    H7F15871   3.261   1.607   7.384 -0.5968 -1.0976 -0.8484
  144OSM    H7G15872   3.119   1.506   7.403  0.7900 -0.8911  0.3795
  144OSM    C8F15873   3.103   1.703   7.506 -0.3538  0.1088  0.7418
  144OSM    H8F15874   2.992   1.700   7.511 -0.3490  0.1070  0.8600
  144OSM    H8G15875   3.124   1.811   7.488 -0.5580  0.1629  0.8264
  144OSM    C9F15876   3.170   1.674   7.640 -0.1820 -0.3424  0.2576
  144OSM    H9F15877   3.265   1.727   7.656  1.9260 -3.3212 -1.8770
  144OSM   C10F15878   3.120   1.598   7.750 -0.2484  0.3294  0.1200
  144OSM   H10F15879   3.187   1.588   7.837  1.1214 -2.6195 -1.2185
  144OSM   C11F15880   2.994   1.514   7.750  0.2320  0.4273 -0.2826
  144OSM   H11F15881   3.011   1.407   7.777 -0.4100 -0.3535 -2.8123
  144OSM   H11G15882   2.954   1.510   7.646  0.7812  1.1429 -0.5242
  144OSM   C12F15883   2.880   1.566   7.843 -0.1567  0.3024  0.7285
  144OSM   H12F15884   2.793   1.501   7.821 -0.9043  1.3415  0.5344
  144OSM   H12G15885   2.846   1.668   7.813  3.2999  1.1063 -0.7175
  144OSM   C13F15886   2.913   1.552   7.991  1.5263  0.0010 -0.1575
  144OSM   H13F15887   3.003   1.605   8.027  2.7025 -2.1125  0.1033
  144OSM   H13G15888   2.938   1.444   8.001  1.1158 -0.1585 -0.8265
  144OSM   C14F15889   2.796   1.572   8.091  0.0489 -0.4240  0.1365
  144OSM   H14F15890   2.751   1.672   8.073  1.1071  0.2347  1.0279
  144OSM   H14G15891   2.837   1.576   8.194 -0.7358 -2.1148  0.5319
  144OSM   C15F15892   2.692   1.459   8.086 -0.3830  0.4775  0.0277
  144OSM   H15F15893   2.732   1.357   8.103 -2.7143 -0.7189 -1.3441
  144OSM   H15G15894   2.649   1.458   7.983 -1.9719 -0.0908  0.6881
  144OSM   C16F15895   2.584   1.494   8.194  0.2440  0.1561 -0.4545
  144OSM   H16F15896   2.541   1.595   8.176 -1.2456 -0.1264  1.4076
  144OSM   H16G15897   2.646   1.480   8.285 -1.3995 -1.7996  0.3953
  144OSM   C17F15898   2.483   1.383   8.189 -0.2694 -0.1860  0.0800
  144OSM   H17F15899   2.435   1.379   8.289  0.1740  0.0684  0.3044
  144OSM   H17G15900   2.536   1.286   8.196  1.4043  0.8040  1.5579
  144OSM   C18F15901   2.394   1.383   8.066 -0.3144 -0.9552  0.2271
  144OSM   H18F15902   2.329   1.473   8.072 -0.2627 -0.9263  0.3522
  144OSM   H18G15903   2.324   1.298   8.084 -0.8698 -0.4464  0.5263
  144OSM   H18H15904   2.452   1.370   7.972 -0.6727 -0.7291 -0.0271
  145SAPE     N15905   1.868   2.200  11.009  0.2508  0.6285 -0.5159
  145SAPE   HN115906   1.782   2.258  11.003  0.0787  0.4862  0.4761
  145SAPE   HN215907   1.908   2.198  11.104  0.5100  1.2647 -0.6102
  145SAPE   HN315908   1.953   2.245  10.969  0.8083 -0.1415 -0.1904
  145SAPE   C1215909   1.844   2.060  10.960  0.3093  0.0363 -0.1535
  145SAPE  H12A15910   1.769   2.021  11.033  0.2700  1.6717  0.6999
  145SAPE  H12B15911   1.941   2.007  10.976  0.2248  0.0292  0.3558
  145SAPE   C1115912   1.793   2.060  10.815  0.6449  0.1351  0.6673
  145SAPE  H11A15913   1.710   2.132  10.797 -0.3500 -1.8990 -3.4566
  145SAPE  H11B15914   1.752   1.957  10.807  0.1698  0.0007  3.9240
  145SAPE     P15915   1.838   2.073  10.569  0.1499  0.5200 -0.2333
  145SAPE   O1315916   1.933   2.123  10.470  0.1992  0.1520  0.6280
  145SAPE   O1415917   1.780   1.937  10.551 -0.7709  0.3049  0.2385
  145SAPE   O1215918   1.896   2.083  10.717  0.4233 -0.3981 -0.2261
  145SAPE   O1115919   1.717   2.178  10.571  0.0523  0.1341  0.2612
  145SAPE    C115920   1.743   2.316  10.545 -0.6375  0.0984 -0.5621
  145SAPE    HA15921   1.661   2.381  10.582  0.0370  2.2879 -2.7522
  145SAPE    HB15922   1.837   2.365  10.578 -0.3265  2.5907 -4.7148
  145SAPE    C215923   1.751   2.351  10.391 -0.0787  0.7376  0.1345
  145SAPE    HS15924   1.857   2.342  10.358 -0.0124  2.7369 -0.2855
  145SAPE   O2115925   1.699   2.487  10.376  0.5542  0.1462 -0.5922
  145SAPE   C2115926   1.787   2.584  10.399 -0.0138 -0.1913  0.9568
  145SAPE   O2215927   1.900   2.566  10.446  0.2928  0.1163 -0.2144
  145SAPE   C2215928   1.730   2.725  10.359 -0.6615  0.2096 -0.1362
  145SAPE   H2R15929   1.627   2.740  10.397 -0.3161 -1.4461  1.5073
  145SAPE   H2S15930   1.794   2.801  10.408 -0.1266 -1.1516  1.3283
  145SAPE    C315931   1.665   2.251  10.306  0.5253 -0.4644  0.3252
  145SAPE    HX15932   1.564   2.245  10.353 -0.6399  1.7631 -1.7630
  145SAPE    HY15933   1.713   2.152  10.293 -2.0935 -2.0697  2.2645
  145SAPE   O3115934   1.643   2.305  10.177 -0.1788 -0.9441 -0.1284
  145SAPE   C3115935   1.739   2.285  10.089 -0.5742  0.4539 -0.1425
  145SAPE   O3215936   1.845   2.227  10.118  0.2803  0.2602  0.2068
  145SAPE   C3215937   1.696   2.318   9.948  0.1629 -0.0222 -0.3202
  145SAPE   H2X15938   1.597   2.269   9.928 -0.9572  2.2369 -0.4630
  145SAPE   H2Y15939   1.772   2.267   9.885 -1.1751 -0.2983 -1.7703
  145SAPE   C2315940   1.737   2.722  10.201 -0.0250 -0.5862 -0.4797
  145SAPE   H3R15941   1.690   2.819  10.172  0.1809 -0.6021 -0.8615
  145SAPE   H3S15942   1.664   2.651  10.157 -1.0241 -1.3017  2.2378
  145SAPE   C2415943   1.879   2.697  10.143 -0.2699 -0.5821 -0.1604
  145SAPE   H4R15944   1.876   2.724  10.035  0.4654  0.9844  0.1994
  145SAPE   H4S15945   1.905   2.589  10.139  0.2519 -0.4558 -0.2644
  145SAPE   C2515946   1.982   2.790  10.204  0.6164 -0.0231 -0.2231
  145SAPE   H5R15947   2.029   2.771  10.302  2.1250 -2.2074 -1.3380
  145SAPE   C2615948   1.997   2.918  10.175  0.0715  0.1456 -0.3668
  145SAPE   H6R15949   2.077   2.970  10.230  0.9718 -0.2854 -1.2611
  145SAPE   C2715950   1.926   2.989  10.055  0.2917 -0.1920  0.2405
  145SAPE   H7R15951   1.816   2.975  10.069  0.5750 -1.4593  1.4162
  145SAPE   H7S15952   1.942   2.936   9.959 -0.8217 -0.3347  0.1294
  145SAPE   C2815953   1.944   3.138  10.054  0.2023 -0.0708 -0.1968
  145SAPE   H8R15954   1.912   3.188  10.147  1.5490  0.1714  0.1566
  145SAPE   C2915955   1.983   3.219   9.953  0.1848  0.2602 -0.4766
  145SAPE   H9R15956   1.995   3.323   9.988 -0.4646  0.7144 -1.5767
  145SAPE  C21015957   2.029   3.189   9.813  0.6920 -0.1597 -0.7312
  145SAPE  H10R15958   1.946   3.137   9.761  0.0446  1.6159 -1.5170
  145SAPE  H10S15959   2.120   3.124   9.813  1.2818  0.6497  0.1901
  145SAPE  C21115960   2.069   3.321   9.750 -0.5332  0.4157  0.2216
  145SAPE  H11R15961   2.045   3.410   9.809 -0.6954  0.0388  0.7229
  145SAPE  C21215962   2.135   3.340   9.633  0.1303  0.2447 -0.0393
  145SAPE  H12R15963   2.140   3.438   9.583  1.3507  0.3628  0.2954
  145SAPE  C21315964   2.175   3.221   9.556 -0.2202  1.2487 -0.3037
  145SAPE  H13R15965   2.173   3.241   9.447 -0.0922  0.5466 -0.4326
  145SAPE  H13S15966   2.107   3.139   9.585 -0.4156  2.2265  2.1682
  145SAPE  C21415967   2.318   3.185   9.586 -0.6523 -0.6876  0.3857
  145SAPE  H14R15968   2.359   3.233   9.676  0.6155 -0.6346 -0.2061
  145SAPE  C21515969   2.389   3.093   9.516  0.0440  0.4195 -0.7077
  145SAPE  H15R15970   2.497   3.078   9.530 -0.1157  0.3486  0.5298
  145SAPE  C21615971   2.335   3.015   9.403 -0.1128 -0.5098  0.3926
  145SAPE  H16R15972   2.229   3.034   9.379  1.2048 -0.3299 -5.9776
  145SAPE  H16S15973   2.357   2.907   9.421  1.9290 -0.3141 -0.7710
  145SAPE  C21715974   2.407   3.063   9.277 -0.2694 -0.0491 -0.8388
  145SAPE  H17R15975   2.514   3.033   9.272 -0.7230 -1.9854  0.5950
  145SAPE  H17S15976   2.410   3.174   9.287 -0.4413 -0.1781  0.7915
  145SAPE  C21815977   2.333   3.032   9.144  0.5529 -0.1891  0.4481
  145SAPE  H18R15978   2.328   3.120   9.076  1.1813 -1.8830 -1.8605
  145SAPE  H18S15979   2.226   3.038   9.174  1.4891  2.7061  3.4697
  145SAPE  C21915980   2.362   2.903   9.072 -0.4183  0.0769 -0.4937
  145SAPE  H19R15981   2.365   2.814   9.140  0.7794  0.9260  0.5899
  145SAPE  H19S15982   2.456   2.912   9.013  1.3068  0.6247  2.2272
  145SAPE  C22015983   2.268   2.879   8.952  0.1297  1.0502  0.0828
  145SAPE  H20R15984   2.270   2.963   8.879 -0.9645  0.6404 -0.4166
  145SAPE  H20S15985   2.166   2.865   8.994  1.0677 -1.5465  1.6102
  145SAPE  H20T15986   2.279   2.780   8.903 -2.0908 -1.5125  4.4130
  145SAPE   C3315987   1.685   2.469   9.914 -0.4295  1.1030  0.4536
  145SAPE   H3X15988   1.769   2.532   9.950  0.2392  2.7120 -3.6326
  145SAPE   H3Y15989   1.586   2.493   9.956 -0.2802 -1.4319  2.3679
  145SAPE   C3415990   1.671   2.494   9.765 -0.0446  0.1133 -0.2529
  145SAPE   H4X15991   1.611   2.415   9.715 -0.6542 -0.1285  0.8438
  145SAPE   H4Y15992   1.766   2.496   9.707 -0.5939 -1.2598 -1.2171
  145SAPE   C3515993   1.607   2.638   9.757 -0.4336  0.7659  0.0464
  145SAPE   H5X15994   1.668   2.692   9.831  1.0336 -0.2384 -0.4171
  145SAPE   H5Y15995   1.497   2.631   9.775 -0.3509  3.2240  1.6486
  145SAPE   C3615996   1.618   2.703   9.612  0.1325  0.1070  0.9500
  145SAPE   H6X15997   1.729   2.706   9.610  0.2896 -2.4150  2.4005
  145SAPE   H6Y15998   1.584   2.808   9.605  0.7624  0.3066  0.8587
  145SAPE   C3715999   1.565   2.622   9.489  0.2119 -0.6398 -0.1563
  145SAPE   H7X16000   1.456   2.606   9.493  0.0356  0.5296 -0.0684
  145SAPE   H7Y16001   1.615   2.523   9.486 -0.5956 -1.0523  0.0484
  145SAPE   C3816002   1.600   2.697   9.362 -0.0051 -0.1191 -0.8555
  145SAPE   H8X16003   1.700   2.744   9.362  0.4293 -1.0186  0.4765
  145SAPE   H8Y16004   1.531   2.784   9.362  0.6850  0.4685  1.8238
  145SAPE   C3916005   1.598   2.615   9.226  0.5352 -0.2513  0.3782
  145SAPE   H9X16006   1.672   2.532   9.232  0.8966  0.1954  2.2667
  145SAPE   H9Y16007   1.620   2.675   9.136  0.8783  1.3289  1.4957
  145SAPE  C31016008   1.465   2.543   9.195 -0.7655 -0.1503 -0.3655
  145SAPE  H10X16009   1.376   2.610   9.194 -2.1946 -1.9687  1.2843
  145SAPE  H10Y16010   1.462   2.463   9.273  1.2191  0.2965  0.1938
  145SAPE  C31116011   1.483   2.484   9.057 -0.6235  0.9469 -1.0962
  145SAPE  H11X16012   1.571   2.417   9.052 -0.9909  0.4555 -1.0246
  145SAPE  H11Y16013   1.510   2.567   8.989 -1.4262  1.9495 -0.2140
  145SAPE  C31216014   1.356   2.426   8.998 -0.2158  0.4063 -0.1102
  145SAPE  H12X16015   1.278   2.506   8.995 -0.1003  0.5067 -0.5114
  145SAPE  H12Y16016   1.321   2.345   9.065  0.4409  0.9626  0.9019
  145SAPE  C31316017   1.381   2.363   8.857  0.2805 -0.1601  0.8839
  145SAPE  H13X16018   1.434   2.265   8.863  0.8231  0.0391 -0.6578
  145SAPE  H13Y16019   1.462   2.428   8.819  0.2708 -1.2694 -1.0835
  145SAPE  C31416020   1.255   2.361   8.766  0.4118 -0.3849 -0.3447
  145SAPE  H14X16021   1.252   2.457   8.708  1.0316 -0.1399  0.0270
  145SAPE  H14Y16022   1.165   2.361   8.831  0.4111 -0.7519 -0.3463
  145SAPE  C31516023   1.248   2.242   8.665  0.0974  0.9464 -0.3920
  145SAPE  H15X16024   1.253   2.146   8.721 -0.3124  0.4167 -1.2565
  145SAPE  H15Y16025   1.336   2.242   8.598 -0.4112  0.5343 -1.0649
  145SAPE  C31616026   1.117   2.235   8.594 -0.6684  0.5907  0.4227
  145SAPE  H16X16027   1.118   2.310   8.512 -0.0606  0.5403  0.3842
  145SAPE  H16Y16028   1.032   2.264   8.659 -0.3614 -0.3138  1.2556
  145SAPE  C31716029   1.074   2.099   8.538 -0.3571  0.1241 -0.3968
  145SAPE  H17X16030   0.990   2.115   8.467  0.0007 -1.2298 -1.1356
  145SAPE  H17Y16031   1.043   2.044   8.629  2.1718  0.4309  0.7069
  145SAPE  C31816032   1.194   2.027   8.474  0.1931  0.3063  0.3171
  145SAPE  H18X16033   1.251   2.094   8.407  1.0221  0.0017  0.7098
  145SAPE  H18Y16034   1.154   1.938   8.420  2.4419 -0.0614 -0.8070
  145SAPE  H18Z16035   1.266   1.989   8.550  0.4735  1.1037  0.4522
  146SAPE     N16036   0.948   3.867  10.850  0.0955 -0.5376 -0.3472
  146SAPE   HN116037   0.937   3.966  10.880  2.2663 -0.4464  0.2719
  146SAPE   HN216038   0.875   3.804  10.889 -1.4862  0.6205 -1.3684
  146SAPE   HN316039   1.042   3.826  10.867  0.1290 -0.4288 -0.2675
  146SAPE   C1216040   0.939   3.868  10.702  0.0420  0.3235 -0.7168
  146SAPE  H12A16041   1.038   3.844  10.657  1.5218  0.6595  2.2475
  146SAPE  H12B16042   0.902   3.968  10.670 -0.0608  0.9492  1.2883
  146SAPE   C1116043   0.847   3.750  10.653  0.3548 -0.3332  0.0002
  146SAPE  H11A16044   0.877   3.653  10.698  1.7675  0.7215  1.4085
  146SAPE  H11B16045   0.862   3.742  10.544  3.7655 -2.0698  0.4972
  146SAPE     P16046   0.595   3.696  10.661  0.3559  0.1631 -0.2698
  146SAPE   O1316047   0.633   3.554  10.658 -0.3163 -0.3423 -0.3179
  146SAPE   O1416048   0.502   3.726  10.773  0.2004 -0.3159 -0.0956
  146SAPE   O1216049   0.712   3.793  10.678  0.1578  0.1176 -0.0321
  146SAPE   O1116050   0.528   3.731  10.523  0.2659  0.1172 -0.2294
  146SAPE    C116051   0.535   3.866  10.467 -0.3142 -0.4732  0.0331
  146SAPE    HA16052   0.468   3.931  10.528  0.0089  0.4935 -0.6147
  146SAPE    HB16053   0.638   3.907  10.470 -1.1671  1.6689  0.9408
  146SAPE    C216054   0.490   3.878  10.318  0.4727  0.5503 -0.1869
  146SAPE    HS16055   0.498   3.988  10.303  1.7116  0.1682 -2.7516
  146SAPE   O2116056   0.355   3.832  10.300 -0.5612 -0.2975 -0.3525
  146SAPE   C2116057   0.253   3.923  10.312  0.3917 -0.9068  0.1397
  146SAPE   O2216058   0.271   4.033  10.361 -0.0404  0.4714 -0.2412
  146SAPE   C2216059   0.123   3.864  10.265  0.5440  0.1570  1.0762
  146SAPE   H2R16060   0.117   3.753  10.263 -0.7275  0.2305 -0.2199
  146SAPE   H2S16061   0.053   3.903  10.342 -2.0473  0.2759 -1.2850
  146SAPE    C316062   0.590   3.802  10.228  0.1192  0.1167 -0.8026
  146SAPE    HX16063   0.559   3.695  10.219 -2.7423  1.1411 -4.2010
  146SAPE    HY16064   0.689   3.805  10.278  0.0255 -0.0599 -0.6014
  146SAPE   O3116065   0.591   3.857  10.100 -0.3192 -0.7051 -0.1693
  146SAPE   C3116066   0.652   3.976  10.080 -0.3726  0.2836  0.4186
  146SAPE   O3216067   0.709   4.040  10.163 -0.5165  0.1847 -0.3713
  146SAPE   C3216068   0.655   4.007   9.932  0.0965  0.3807 -0.2870
  146SAPE   H2X16069   0.560   3.970   9.886  0.8597 -1.3575 -0.4893
  146SAPE   H2Y16070   0.736   3.943   9.891 -0.5563 -0.0735 -0.8930
  146SAPE   C2316071   0.101   3.900  10.115  0.6813  0.0057 -0.5425
  146SAPE   H3R16072   0.166   3.988  10.099  1.5296 -0.4546  0.3241
  146SAPE   H3S16073  -0.007   3.927  10.115  0.8348  0.8047  2.2285
  146SAPE   C2416074   0.120   3.794  10.004 -0.5462 -0.1094  0.0198
  146SAPE   H4R16075   0.102   3.840   9.904  3.3318 -2.6256 -1.9618
  146SAPE   H4S16076   0.048   3.710  10.017 -0.9723  0.3559  0.6867
  146SAPE   C2516077   0.263   3.738  10.007  0.3623 -0.4320 -0.1990
  146SAPE   H5R16078   0.308   3.725  10.107 -0.0883 -1.8836 -0.1811
  146SAPE   C2616079   0.343   3.732   9.897 -0.1745  0.6450 -0.4079
  146SAPE   H6R16080   0.450   3.706   9.902 -0.7452 -1.5082  1.7312
  146SAPE   C2716081   0.303   3.757   9.758  0.2203 -0.1522  0.6154
  146SAPE   H7R16082   0.192   3.756   9.750  0.2648  0.5421 -0.1179
  146SAPE   H7S16083   0.345   3.669   9.706 -2.9727 -2.1790  1.2905
  146SAPE   C2816084   0.358   3.894   9.715  0.0338 -0.6703 -0.2503
  146SAPE   H8R16085   0.343   3.967   9.796 -0.4641 -0.5759 -0.4309
  146SAPE   C2916086   0.396   3.930   9.592 -0.2857 -0.1942  0.1384
  146SAPE   H9R16087   0.438   4.030   9.577  0.9179 -0.7405 -0.1658
  146SAPE  C21016088   0.386   3.832   9.474  0.1387  0.3171 -0.0305
  146SAPE  H10R16089   0.328   3.879   9.391 -0.5560  0.3562  0.4697
  146SAPE  H10S16090   0.314   3.749   9.489 -1.5614  1.7542 -0.0097
  146SAPE  C21116091   0.515   3.781   9.417 -0.0333  0.4230 -1.0486
  146SAPE  H11R16092   0.591   3.770   9.496 -0.3300 -1.3004 -0.9731
  146SAPE  C21216093   0.546   3.764   9.284 -0.2141 -0.7132  0.3012
  146SAPE  H12R16094   0.643   3.718   9.262  0.6622  1.7953 -1.1833
  146SAPE  C21316095   0.448   3.790   9.174 -0.3749  0.8207  0.5417
  146SAPE  H13R16096   0.469   3.889   9.127  2.0347  0.2531  0.3356
  146SAPE  H13S16097   0.344   3.795   9.211 -0.6818  1.9783 -0.4527
  146SAPE  C21416098   0.448   3.692   9.059 -0.8835  0.1073 -0.6012
  146SAPE  H14R16099   0.545   3.643   9.040  0.2330  0.2515  3.9926
  146SAPE  C21516100   0.353   3.661   8.981 -0.1151  0.6756  0.6965
  146SAPE  H15R16101   0.362   3.586   8.901  0.4106 -0.4369  1.7745
  146SAPE  C21616102   0.224   3.732   8.977  0.8655 -0.0787  0.5068
  146SAPE  H16R16103   0.244   3.841   8.978 -1.0352  0.2970  0.0334
  146SAPE  H16S16104   0.157   3.697   9.059 -1.6877 -0.8018 -1.8109
  146SAPE  C21716105   0.147   3.693   8.850  0.3099  0.1926 -0.1234
  146SAPE  H17R16106   0.128   3.584   8.854 -0.0551  0.2780  0.8509
  146SAPE  H17S16107   0.204   3.723   8.760  1.2086  1.2291  0.7707
  146SAPE  C21816108   0.012   3.767   8.835 -0.2421  0.4990 -0.4395
  146SAPE  H18R16109   0.028   3.877   8.832 -0.9499  0.6140 -0.0814
  146SAPE  H18S16110  -0.035   3.750   8.934  2.7350 -0.7930  0.7931
  146SAPE  C21916111  -0.074   3.723   8.716 -0.7367 -0.1366  0.3068
  146SAPE  H19R16112  -0.122   3.625   8.735 -0.7066 -0.2036  0.0293
  146SAPE  H19S16113  -0.010   3.701   8.629 -0.9843  0.8663 -0.1415
  146SAPE  C22016114  -0.189   3.816   8.678 -1.2431  0.0584  0.0544
  146SAPE  H20R16115  -0.248   3.771   8.596  2.9541 -2.0256 -1.9937
  146SAPE  H20S16116  -0.150   3.917   8.654 -4.2644  1.1368 -0.5891
  146SAPE  H20T16117  -0.264   3.826   8.759  1.1844  2.6178  2.0838
  146SAPE   C3316118   0.662   4.157   9.916  0.1916 -0.0722 -0.5280
  146SAPE   H3X16119   0.757   4.193   9.961 -0.2605 -0.9918  1.1775
  146SAPE   H3Y16120   0.580   4.204   9.975  0.3198 -0.2491 -0.2125
  146SAPE   C3416121   0.649   4.215   9.775 -0.3664  0.4421 -0.7565
  146SAPE   H4X16122   0.649   4.326   9.779  2.5516  0.4737 -0.4289
  146SAPE   H4Y16123   0.553   4.174   9.736 -1.1799  0.6878  0.9597
  146SAPE   C3516124   0.762   4.167   9.684 -0.6528  0.2513 -0.2344
  146SAPE   H5X16125   0.733   4.060   9.673 -1.7069  0.4064  0.9902
  146SAPE   H5Y16126   0.862   4.182   9.730 -0.5760  0.6600 -0.5339
  146SAPE   C3616127   0.768   4.219   9.540  0.2538 -0.0232 -0.1815
  146SAPE   H6X16128   0.804   4.323   9.556  0.0173 -0.1044  0.9297
  146SAPE   H6Y16129   0.664   4.219   9.501 -1.3797  1.2098  3.9169
  146SAPE   C3716130   0.854   4.129   9.453  0.0445 -0.5335 -0.2440
  146SAPE   H7X16131   0.787   4.043   9.430  0.7190 -1.2716  0.5176
  146SAPE   H7Y16132   0.939   4.091   9.513 -0.1036 -1.7076 -0.7567
  146SAPE   C3816133   0.903   4.185   9.318 -0.2443  0.0722  0.3925
  146SAPE   H8X16134   0.970   4.273   9.327 -0.1041 -0.0793  0.8026
  146SAPE   H8Y16135   0.804   4.206   9.271 -0.1539 -1.1884 -0.3918
  146SAPE   C3916136   0.970   4.084   9.219  0.6073 -0.1103  0.2275
  146SAPE   H9X16137   0.908   3.993   9.233 -0.4716  0.4442 -0.7594
  146SAPE   H9Y16138   1.077   4.065   9.241  1.0992  1.8775 -0.3371
  146SAPE  C31016139   0.973   4.132   9.070 -0.2195  0.3122 -0.1050
  146SAPE  H10X16140   1.032   4.226   9.060  1.2157 -0.5686 -0.0153
  146SAPE  H10Y16141   0.868   4.148   9.035  0.3815  0.2617 -1.9902
  146SAPE  C31116142   1.045   4.025   8.981 -0.4298  0.8093 -0.5089
  146SAPE  H11X16143   0.970   3.946   8.959  1.6038 -1.4943  0.5343
  146SAPE  H11Y16144   1.117   3.982   9.054 -0.8125  1.2641  0.1471
  146SAPE  C31216145   1.116   4.080   8.859  0.1489  0.2924  0.3250
  146SAPE  H12X16146   1.168   4.176   8.880 -0.0413  0.2819  0.8472
  146SAPE  H12Y16147   1.046   4.114   8.781 -1.0768  1.6737  2.0024
  146SAPE  C31316148   1.221   3.982   8.798  0.1151  0.0351  0.2764
  146SAPE  H13X16149   1.281   3.944   8.884 -1.3397 -0.9179  0.8991
  146SAPE  H13Y16150   1.275   4.041   8.721  1.9443  0.0776  1.5441
  146SAPE  C31416151   1.157   3.866   8.725  0.3218 -0.5243 -0.5758
  146SAPE  H14X16152   1.109   3.903   8.632 -0.3097 -0.3190 -0.1740
  146SAPE  H14Y16153   1.081   3.811   8.784  0.8402 -0.8505 -0.2060
  146SAPE  C31516154   1.268   3.768   8.675  0.3118 -0.1397  1.1347
  146SAPE  H15X16155   1.339   3.757   8.760  1.0223 -0.2758  0.5247
  146SAPE  H15Y16156   1.328   3.810   8.592  1.4467  0.2255  2.1278
  146SAPE  C31616157   1.209   3.631   8.637 -0.0333 -0.3672 -0.8734
  146SAPE  H16X16158   1.154   3.592   8.725  1.6723 -0.1768  0.2889
  146SAPE  H16Y16159   1.294   3.564   8.611 -0.2468 -1.1926  0.5189
  146SAPE  C31716160   1.111   3.627   8.512 -1.2119  0.1485 -0.7260
  146SAPE  H17X16161   1.146   3.694   8.431  2.1399 -2.3591 -1.4761
  146SAPE  H17Y16162   1.018   3.680   8.541 -0.8342  0.4337 -0.0312
  146SAPE  C31816163   1.077   3.489   8.461  0.0747 -0.0226  0.3282
  146SAPE  H18X16164   1.167   3.427   8.484 -0.0759 -0.5109 -0.3667
  146SAPE  H18Y16165   1.059   3.492   8.352  0.0957 -1.2134  0.2859
  146SAPE  H18Z16166   0.980   3.456   8.504 -0.4954 -0.5169 -1.2954
  147SAPE     N16167   2.819   6.751  10.670  0.5864  0.3274  0.1828
  147SAPE   HN116168   2.876   6.664  10.673 -0.1475 -0.1326  1.1307
  147SAPE   HN216169   2.882   6.833  10.668  1.2444 -0.1902 -0.5003
  147SAPE   HN316170   2.782   6.750  10.767 -0.2304  0.9003 -0.1134
  147SAPE   C1216171   2.696   6.738  10.571  1.1298 -0.2477  0.1370
  147SAPE  H12A16172   2.730   6.723  10.467  2.8429  1.9038  0.3382
  147SAPE  H12B16173   2.640   6.835  10.574  1.9353  0.2830 -1.4412
  147SAPE   C1116174   2.611   6.618  10.605  0.0209 -0.1894 -0.2038
  147SAPE  H11A16175   2.673   6.527  10.589  1.1775  0.4493  0.5631
  147SAPE  H11B16176   2.524   6.614  10.536  0.1730 -0.7734 -0.3669
  147SAPE     P16177   2.444   6.689  10.802  0.6012  0.2223  0.0535
  147SAPE   O1316178   2.408   6.618  10.924 -0.7144 -0.2380 -0.3200
  147SAPE   O1416179   2.464   6.833  10.814 -0.0854  0.6357  0.1878
  147SAPE   O1216180   2.573   6.619  10.744  0.3189  1.4065  0.2720
  147SAPE   O1116181   2.336   6.668  10.691  0.1884 -0.3616 -0.5156
  147SAPE    C116182   2.248   6.557  10.687 -0.7135 -0.5875 -0.0425
  147SAPE    HA16183   2.293   6.456  10.694  0.3876 -0.0185  1.6318
  147SAPE    HB16184   2.187   6.553  10.780 -1.1163 -1.4631 -0.3451
  147SAPE    C216185   2.151   6.565  10.568  0.0315  0.5132  0.5015
  147SAPE    HS16186   2.083   6.478  10.564  1.0610 -0.3567  1.4718
  147SAPE   O2116187   2.202   6.599  10.444  0.0701 -0.4619  0.5130
  147SAPE   C2116188   2.275   6.508  10.392  0.2809  0.5541  0.7440
  147SAPE   O2216189   2.314   6.407  10.440 -0.2771  0.2344  0.2629
  147SAPE   C2216190   2.328   6.560  10.256  0.1362 -0.5703 -0.7057
  147SAPE   H2R16191   2.270   6.651  10.228  1.6463  1.0503  1.2329
  147SAPE   H2S16192   2.434   6.586  10.276  0.9591 -0.9270 -4.2990
  147SAPE    C316193   2.041   6.681  10.593 -0.0214 -0.0249  0.0010
  147SAPE    HX16194   2.105   6.760  10.550 -0.6743  0.2712 -0.4447
  147SAPE    HY16195   2.016   6.688  10.701 -1.8656 -0.9527 -0.3407
  147SAPE   O3116196   1.924   6.654  10.507 -0.1147  0.1278  0.2504
  147SAPE   C3116197   1.823   6.592  10.572  0.3556 -0.3596  0.2689
  147SAPE   O3216198   1.815   6.586  10.697  0.1717  0.2912  0.2540
  147SAPE   C3216199   1.725   6.533  10.474  0.0103 -0.3829 -0.1033
  147SAPE   H2X16200   1.624   6.580  10.479  1.4939  2.7961  1.1061
  147SAPE   H2Y16201   1.711   6.426  10.502 -1.3707 -0.7100 -1.9220
  147SAPE   C2316202   2.311   6.458  10.141  0.2760 -0.3184  0.3893
  147SAPE   H3R16203   2.374   6.368  10.155  0.7059 -0.1294 -0.2814
  147SAPE   H3S16204   2.355   6.500  10.048  0.2801  3.4845  1.9974
  147SAPE   C2416205   2.175   6.412  10.095  0.3116 -0.3425 -0.2634
  147SAPE   H4R16206   2.140   6.331  10.163 -0.7643 -0.1321 -0.5559
  147SAPE   H4S16207   2.201   6.361   9.999  3.7319 -1.3710  1.1383
  147SAPE   C2516208   2.076   6.520  10.077 -0.0797 -0.2373 -0.3486
  147SAPE   H5R16209   2.053   6.592  10.156 -2.2271 -0.5820 -0.6383
  147SAPE   C2616210   2.014   6.540   9.956 -0.1467 -0.1168  0.2244
  147SAPE   H6R16211   1.940   6.621   9.956 -0.7545 -0.6681 -0.5141
  147SAPE   C2716212   2.028   6.465   9.828  0.0438  0.4897 -0.5609
  147SAPE   H7R16213   1.927   6.466   9.781  0.7146  2.0047 -2.0122
  147SAPE   H7S16214   2.061   6.361   9.849 -0.6722  0.1399 -1.1315
  147SAPE   C2816215   2.141   6.520   9.737 -0.0197  0.3043 -0.2536
  147SAPE   H8R16216   2.227   6.560   9.792 -0.1634 -0.0757  0.2552
  147SAPE   C2916217   2.132   6.515   9.608 -0.2640 -0.3047 -0.1878
  147SAPE   H9R16218   2.212   6.568   9.553  1.6663  0.0918  2.8780
  147SAPE  C21016219   2.020   6.453   9.519  0.4176 -0.3610 -0.0296
  147SAPE  H10R16220   1.981   6.362   9.571  0.0493 -0.3374 -0.2608
  147SAPE  H10S16221   2.055   6.417   9.420  1.1380 -0.4751  0.2640
  147SAPE  C21116222   1.912   6.554   9.492  0.5183  0.0403  0.1368
  147SAPE  H11R16223   1.889   6.635   9.563  0.0487 -0.4998  0.6092
  147SAPE  C21216224   1.855   6.569   9.367 -0.4164  0.6769  0.5064
  147SAPE  H12R16225   1.773   6.641   9.350 -0.8514  0.1874  0.4994
  147SAPE  C21316226   1.876   6.489   9.239 -0.8015  0.6352  0.6105
  147SAPE  H13R16227   1.775   6.477   9.195 -0.2735 -0.4702 -0.3111
  147SAPE  H13S16228   1.902   6.389   9.278 -0.5588  0.6598  0.5135
  147SAPE  C21416229   1.981   6.556   9.153 -0.3956  0.8253 -0.1019
  147SAPE  H14R16230   2.072   6.596   9.198 -0.8668  1.4378  0.3158
  147SAPE  C21516231   1.992   6.534   9.020  0.4160 -0.3542  0.2274
  147SAPE  H15R16232   2.076   6.583   8.968  1.0910 -1.8899 -0.1628
  147SAPE  C21616233   1.894   6.464   8.928  0.7240  0.3935  0.1981
  147SAPE  H16R16234   1.794   6.497   8.962  0.0014 -1.0964 -0.4195
  147SAPE  H16S16235   1.897   6.355   8.953 -0.5107 -0.3046 -2.4749
  147SAPE  C21716236   1.916   6.483   8.776 -0.5477 -0.4049  0.3643
  147SAPE  H17R16237   2.024   6.487   8.751 -0.9516 -2.1621 -1.8321
  147SAPE  H17S16238   1.879   6.586   8.757  0.5630 -0.0930 -0.1051
  147SAPE  C21816239   1.828   6.396   8.682  0.9700  0.2425 -0.1092
  147SAPE  H18R16240   1.857   6.289   8.684  0.5058  0.1344  1.0182
  147SAPE  H18S16241   1.840   6.442   8.581  3.0206  0.1807  0.0878
  147SAPE  C21916242   1.674   6.385   8.715  0.1781  0.1974  0.2718
  147SAPE  H19R16243   1.625   6.483   8.696 -3.6276 -1.9080 -1.2703
  147SAPE  H19S16244   1.653   6.366   8.823  2.8783  1.6850  1.1086
  147SAPE  C22016245   1.607   6.276   8.626 -0.0738  0.1295  0.2275
  147SAPE  H20R16246   1.605   6.312   8.521  1.1350  2.1863  0.8917
  147SAPE  H20S16247   1.508   6.247   8.667  0.6063 -0.4276  1.4806
  147SAPE  H20T16248   1.658   6.177   8.633  0.1382 -0.0782 -3.0498
  147SAPE   C3316249   1.764   6.517  10.324 -0.4318  0.3501 -0.1473
  147SAPE   H3X16250   1.859   6.460  10.319 -2.1155 -2.4643 -1.2514
  147SAPE   H3Y16251   1.771   6.622  10.288 -1.7485  0.7656  0.7521
  147SAPE   C3416252   1.666   6.440  10.234 -0.1195 -0.0014 -0.9465
  147SAPE   H4X16253   1.569   6.492  10.223 -1.3710 -2.0732 -0.0745
  147SAPE   H4Y16254   1.633   6.339  10.269 -1.6732  0.8311  0.0292
  147SAPE   C3516255   1.722   6.429  10.089  0.2078 -0.5368 -0.5096
  147SAPE   H5X16256   1.799   6.350  10.080 -0.4052 -1.1813 -0.1637
  147SAPE   H5Y16257   1.773   6.524  10.066 -1.2799  0.7863  1.5279
  147SAPE   C3616258   1.601   6.370   9.999 -0.1580 -0.7540  0.5108
  147SAPE   H6X16259   1.512   6.436   9.995  1.3620  1.2427 -1.1219
  147SAPE   H6Y16260   1.582   6.268  10.041  3.6057 -1.3171  1.0290
  147SAPE   C3716261   1.660   6.369   9.858 -0.2921 -0.1697 -1.1389
  147SAPE   H7X16262   1.761   6.326   9.877  0.5033  0.6326 -3.3682
  147SAPE   H7Y16263   1.675   6.472   9.819 -0.5489 -0.3245 -1.6554
  147SAPE   C3816264   1.576   6.291   9.758  1.2773  0.9303 -0.2328
  147SAPE   H8X16265   1.473   6.333   9.762  0.1883 -1.4031 -2.2564
  147SAPE   H8Y16266   1.562   6.184   9.785  1.4668  0.3720 -2.2873
  147SAPE   C3916267   1.628   6.302   9.613  0.6319  0.3201 -0.4594
  147SAPE   H9X16268   1.730   6.257   9.614  0.0212 -1.0606  0.7641
  147SAPE   H9Y16269   1.634   6.410   9.588 -0.3335  0.6882  0.8263
  147SAPE  C31016270   1.539   6.239   9.499 -0.0967  0.3301  0.0974
  147SAPE  H10X16271   1.443   6.295   9.495 -0.0911  0.2792 -0.8353
  147SAPE  H10Y16272   1.515   6.131   9.511  1.8433 -0.3136 -1.4564
  147SAPE  C31116273   1.615   6.238   9.364  0.2831  0.2173 -0.6577
  147SAPE  H11X16274   1.722   6.212   9.378  0.2835  0.2090 -0.6772
  147SAPE  H11Y16275   1.628   6.342   9.328 -0.9890  0.8193  0.5785
  147SAPE  C31216276   1.553   6.147   9.258  0.1930  0.4296 -0.1692
  147SAPE  H12X16277   1.447   6.175   9.242 -0.3120  0.1134  2.4816
  147SAPE  H12Y16278   1.550   6.043   9.297  0.0944  0.5462  0.1304
  147SAPE  C31316279   1.623   6.132   9.122  0.2448  0.4147 -0.5698
  147SAPE  H13X16280   1.730   6.116   9.148  0.3078 -1.2169 -1.7190
  147SAPE  H13Y16281   1.605   6.228   9.069 -0.4780  0.3397 -0.4597
  147SAPE  C31416282   1.560   6.020   9.042  0.2869  0.4897  0.3036
  147SAPE  H14X16283   1.463   6.048   8.995  0.2911  0.4436  0.2660
  147SAPE  H14Y16284   1.539   5.928   9.101  0.8710  1.1054  1.4672
  147SAPE  C31516285   1.651   5.973   8.931 -0.7830 -1.2987  0.4114
  147SAPE  H15X16286   1.735   5.917   8.977 -2.6131 -1.2960  3.9549
  147SAPE  H15Y16287   1.676   6.062   8.869 -3.9244 -0.5803  0.0989
  147SAPE  C31616288   1.581   5.879   8.839  0.4110 -0.0528  0.4598
  147SAPE  H16X16289   1.482   5.918   8.808 -0.5127 -1.1376  1.9659
  147SAPE  H16Y16290   1.550   5.790   8.898 -0.7178  0.5415  0.7787
  147SAPE  C31716291   1.672   5.835   8.718  0.6720  0.5190  0.1137
  147SAPE  H17X16292   1.782   5.832   8.732  0.9638 -0.6286 -2.2185
  147SAPE  H17Y16293   1.645   5.916   8.647  1.9451 -0.3766 -1.4106
  147SAPE  C31816294   1.633   5.700   8.653  0.4620 -0.5708 -0.3328
  147SAPE  H18X16295   1.639   5.618   8.727  1.3464 -1.5077 -1.4371
  147SAPE  H18Y16296   1.695   5.687   8.562 -1.7390 -1.4373 -1.7408
  147SAPE  H18Z16297   1.528   5.688   8.619  0.2509 -1.8905  0.7234
  148SAPE     N16298   3.211   1.586  10.551  0.3700  0.5213  0.8098
  148SAPE   HN116299   3.252   1.682  10.552 -0.7031  1.0377 -1.4011
  148SAPE   HN216300   3.141   1.594  10.475 -0.5563  0.8226  1.6791
  148SAPE   HN316301   3.167   1.553  10.639  1.0113  0.0379  0.9493
  148SAPE   C1216302   3.323   1.489  10.511  0.8035  0.3695  1.0112
  148SAPE  H12A16303   3.267   1.403  10.467  1.6913  0.4083 -0.1970
  148SAPE  H12B16304   3.380   1.465  10.603  0.8696  0.7284  1.0669
  148SAPE   C1116305   3.405   1.540  10.390 -0.3255 -0.2327 -0.0566
  148SAPE  H11A16306   3.347   1.601  10.318  0.3553  1.1461  0.5334
  148SAPE  H11B16307   3.444   1.447  10.343 -1.4005 -0.0677 -1.2844
  148SAPE     P16308   3.493   1.774  10.475  0.2139 -0.0858  0.1276
  148SAPE   O1316309   3.369   1.794  10.559 -0.1529  0.1344 -0.0409
  148SAPE   O1416310   3.616   1.820  10.532  0.3839 -0.4677 -0.3274
  148SAPE   O1216311   3.512   1.621  10.441 -0.1312  0.5063 -0.2938
  148SAPE   O1116312   3.469   1.845  10.332  0.1408 -0.1943 -0.0753
  148SAPE    C116313   3.570   1.839  10.231  0.5994  0.0780 -0.9217
  148SAPE    HA16314   3.605   1.942  10.208 -2.7900  1.2088 -1.3407
  148SAPE    HB16315   3.652   1.769  10.257  0.6549  0.6180  0.4175
  148SAPE    C216316   3.503   1.801  10.092  0.5115  0.2396  0.4668
  148SAPE    HS16317   3.486   1.691  10.094 -1.7974  0.5932  1.9003
  148SAPE   O2116318   3.585   1.848   9.982 -0.0532 -0.1617  0.0975
  148SAPE   C2116319   3.688   1.770   9.958  0.2133 -0.4550 -0.2079
  148SAPE   O2216320   3.706   1.665  10.017  0.4574  0.0286 -0.0151
  148SAPE   C2216321   3.795   1.814   9.852 -0.2811 -0.1513  0.9068
  148SAPE   H2R16322   3.754   1.907   9.806 -1.5435  0.4075  3.0775
  148SAPE   H2S16323   3.883   1.838   9.915 -1.1668 -1.1315  2.5431
  148SAPE    C316324   3.348   1.847  10.090 -0.1459  0.3309  0.3532
  148SAPE    HX16325   3.342   1.953  10.124 -1.2829  0.5724 -0.5458
  148SAPE    HY16326   3.288   1.796  10.168  0.4894  0.9070  1.2270
  148SAPE   O3116327   3.285   1.846   9.962  0.4063 -0.1147  0.0494
  148SAPE   C3116328   3.240   1.740   9.897 -0.5573 -0.0689 -0.0869
  148SAPE   O3216329   3.253   1.624   9.937  0.1800 -0.1907 -0.6542
  148SAPE   C3216330   3.157   1.780   9.779 -0.6972  0.4783  0.0030
  148SAPE   H2X16331   3.148   1.889   9.755  1.0352  0.5151 -0.5347
  148SAPE   H2Y16332   3.058   1.734   9.798  0.5903 -2.5934 -0.4109
  148SAPE   C2316333   3.839   1.718   9.744  0.4153  0.1024  0.1943
  148SAPE   H3R16334   3.761   1.643   9.721 -0.8154  1.3896  0.1195
  148SAPE   H3S16335   3.919   1.667   9.801  1.5226  1.1643 -0.3701
  148SAPE   C2416336   3.891   1.783   9.614 -0.5448 -0.0351  0.5573
  148SAPE   H4R16337   3.799   1.799   9.553 -1.2669 -1.3423  1.2972
  148SAPE   H4S16338   3.946   1.710   9.551 -0.3206  0.2894  0.3688
  148SAPE   C2516339   3.963   1.918   9.637  0.1559  0.4790  0.4496
  148SAPE   H5R16340   3.900   1.999   9.676 -1.4310 -0.6902  0.3691
  148SAPE   C2616341   4.097   1.942   9.607  0.1359 -0.8825  0.2717
  148SAPE   H6R16342   4.128   2.047   9.616  1.6138 -1.4525  2.1254
  148SAPE   C2716343   4.199   1.843   9.554 -0.0033  0.1071  0.2256
  148SAPE   H7R16344   4.152   1.742   9.561  0.2334  0.0220  0.5871
  148SAPE   H7S16345   4.275   1.830   9.634  0.8457 -1.3827 -0.7966
  148SAPE   C2816346   4.258   1.858   9.415  0.5894 -0.2349  0.5991
  148SAPE   H8R16347   4.234   1.953   9.363 -0.6750 -1.1547 -0.5533
  148SAPE   C2916348   4.334   1.770   9.345  0.5213 -0.6625 -0.9364
  148SAPE   H9R16349   4.350   1.794   9.238 -0.0480  1.2765 -0.6035
  148SAPE  C21016350   4.379   1.636   9.392 -0.4235  0.4313 -0.8065
  148SAPE  H10R16351   4.311   1.603   9.473  0.8510  0.0886  0.1435
  148SAPE  H10S16352   4.480   1.634   9.438  0.2818 -0.5658 -2.3460
  148SAPE  C21116353   4.389   1.534   9.286  0.5876  0.1958  0.6437
  148SAPE  H11R16354   4.494   1.503   9.272  0.2097 -1.1669  0.8465
  148SAPE  C21216355   4.285   1.488   9.213  0.7497 -0.2042  0.6196
  148SAPE  H12R16356   4.306   1.399   9.152 -0.5028 -1.6498  2.2794
  148SAPE  C21316357   4.141   1.531   9.231  0.6529 -0.3659 -0.0369
  148SAPE  H13R16358   4.141   1.635   9.193  1.3223 -0.5222 -0.4685
  148SAPE  H13S16359   4.115   1.539   9.339  1.8260  0.6837  0.1878
  148SAPE  C21416360   4.048   1.440   9.168  0.1810 -0.1930  0.1371
  148SAPE  H14R16361   3.965   1.397   9.226 -1.8612  2.4866 -0.7082
  148SAPE  C21516362   4.043   1.411   9.038  0.3721 -0.3545 -0.1706
  148SAPE  H15R16363   3.967   1.339   9.004  0.6821  0.7716 -3.3987
  148SAPE  C21616364   4.126   1.450   8.917  0.0200 -0.3003 -0.2994
  148SAPE  H16R16365   4.146   1.357   8.859  2.4396 -0.1249  0.1937
  148SAPE  H16S16366   4.222   1.499   8.943  1.1073 -0.9181 -2.9324
  148SAPE  C21716367   4.037   1.543   8.837  0.0417  0.3022  0.3070
  148SAPE  H17R16368   3.975   1.615   8.895 -0.3762  0.8683 -0.8261
  148SAPE  H17S16369   3.967   1.473   8.787  0.9799  1.0745 -2.1663
  148SAPE  C21816370   4.115   1.619   8.731  0.2913  0.6874 -0.2275
  148SAPE  H18R16371   4.050   1.671   8.657  1.2198 -1.0508 -2.3600
  148SAPE  H18S16372   4.174   1.547   8.670  0.5670  1.2082 -0.5846
  148SAPE  C21916373   4.216   1.720   8.784 -0.3667  0.2018  0.3094
  148SAPE  H19R16374   4.295   1.662   8.835  0.7699  0.2999 -1.3066
  148SAPE  H19S16375   4.160   1.778   8.860  0.6000 -0.0995  1.2559
  148SAPE  C22016376   4.275   1.815   8.683 -0.6030 -0.8220  0.5522
  148SAPE  H20R16377   4.348   1.755   8.624  2.2807  1.4703  1.6458
  148SAPE  H20S16378   4.326   1.901   8.730 -1.7690  0.6189 -0.7981
  148SAPE  H20T16379   4.195   1.864   8.623 -0.4053 -1.6176 -0.3833
  148SAPE   C3316380   3.212   1.703   9.652  0.2015 -0.1124 -0.2539
  148SAPE   H3X16381   3.200   1.593   9.644  3.8769 -0.6296  0.5287
  148SAPE   H3Y16382   3.321   1.722   9.652  0.4853 -1.5808  2.3511
  148SAPE   C3416383   3.164   1.766   9.513  0.0042 -1.0638  0.0799
  148SAPE   H4X16384   3.187   1.874   9.502 -0.4777 -0.8671  0.9619
  148SAPE   H4Y16385   3.053   1.766   9.513  0.0043 -0.7976 -0.4666
  148SAPE   C3516386   3.225   1.698   9.391  0.1355  0.5234 -0.8620
  148SAPE   H5X16387   3.185   1.595   9.394  0.6851  0.2800 -1.7247
  148SAPE   H5Y16388   3.333   1.680   9.410 -0.6644 -3.4295  0.2594
  148SAPE   C3616389   3.185   1.782   9.262  0.7488 -0.8064  0.3431
  148SAPE   H6X16390   3.223   1.886   9.269  0.6939 -0.8289  1.0029
  148SAPE   H6Y16391   3.075   1.778   9.250  0.6444 -0.4357  1.1708
  148SAPE   C3716392   3.254   1.738   9.130  0.1623 -0.7070  0.0021
  148SAPE   H7X16393   3.363   1.752   9.149  0.5027  0.4361 -2.5925
  148SAPE   H7Y16394   3.222   1.799   9.043 -1.5573  1.2083  1.9586
  148SAPE   C3816395   3.240   1.588   9.107 -0.0153  0.3174 -0.1552
  148SAPE   H8X16396   3.261   1.522   9.193  1.3350  0.1331 -0.6097
  148SAPE   H8Y16397   3.308   1.556   9.025  1.2531  1.2531  0.5109
  148SAPE   C3916398   3.094   1.556   9.082 -0.0370  0.4768 -0.0960
  148SAPE   H9X16399   3.042   1.645   9.040 -0.8799  0.8362  1.6754
  148SAPE   H9Y16400   3.041   1.539   9.178  0.6548  0.4381  0.2781
  148SAPE  C31016401   3.088   1.443   8.978  0.0778 -0.1331 -0.6042
  148SAPE  H10X16402   2.981   1.411   8.974 -0.9185  2.5776  2.4309
  148SAPE  H10Y16403   3.148   1.358   9.017 -0.3731 -0.5050 -0.7076
  148SAPE  C31116404   3.124   1.487   8.833 -0.5501 -0.5251  0.3800
  148SAPE  H11X16405   3.234   1.499   8.830 -0.2037 -2.9329  1.6446
  148SAPE  H11Y16406   3.071   1.582   8.817  1.2602  0.5286  0.4984
  148SAPE  C31216407   3.086   1.385   8.729  0.3280  0.9743  0.5063
  148SAPE  H12X16408   2.975   1.381   8.733  0.2037  2.4737 -1.0458
  148SAPE  H12Y16409   3.110   1.281   8.759 -1.2456  0.1448 -0.9979
  148SAPE  C31316410   3.141   1.415   8.592 -0.2881  0.7421 -0.4522
  148SAPE  H13X16411   3.092   1.342   8.525  1.1891 -1.2169  0.5626
  148SAPE  H13Y16412   3.252   1.411   8.597 -0.2824 -0.0152 -1.1375
  148SAPE  C31416413   3.111   1.557   8.532 -0.8951 -0.2564 -0.1605
  148SAPE  H14X16414   3.160   1.632   8.598  2.1296 -2.0295 -0.2913
  148SAPE  H14Y16415   3.008   1.598   8.529  0.1503  2.4594 -1.0710
  148SAPE  C31516416   3.170   1.570   8.386  0.1614  0.0408 -0.1954
  148SAPE  H15X16417   3.080   1.530   8.336 -0.5647  0.5990  0.6556
  148SAPE  H15Y16418   3.272   1.525   8.379  1.2918  2.5443 -0.6824
  148SAPE  C31616419   3.187   1.709   8.342  0.3409 -0.6520  0.1666
  148SAPE  H16X16420   3.260   1.767   8.403  0.3519  0.1864 -0.6347
  148SAPE  H16Y16421   3.091   1.764   8.343  1.3175  1.1413  3.6023
  148SAPE  C31716422   3.244   1.708   8.202  0.1894  0.2040  0.9321
  148SAPE  H17X16423   3.235   1.810   8.160  0.0283  0.2989  1.1950
  148SAPE  H17Y16424   3.184   1.635   8.143 -0.9703  0.0324  2.2906
  148SAPE  C31816425   3.385   1.661   8.194 -0.4158  0.4708 -0.4469
  148SAPE  H18X16426   3.399   1.552   8.212 -0.7296  0.4728 -0.2007
  148SAPE  H18Y16427   3.444   1.724   8.264  0.8495 -1.5278  0.3430
  148SAPE  H18Z16428   3.432   1.675   8.094  0.8239 -1.0263 -0.0914
  149SAPE     N16429   5.531   3.370  10.910 -0.5807  0.2179  0.1319
  149SAPE   HN116430   5.620   3.345  10.957 -0.9574 -0.9223  0.2468
  149SAPE   HN216431   5.489   3.443  10.971 -0.7976  0.0670  0.1650
  149SAPE   HN316432   5.469   3.287  10.906  1.4012 -1.3478  1.3216
  149SAPE   C1216433   5.556   3.421  10.773 -0.1321 -0.3751  0.2997
  149SAPE  H12A16434   5.455   3.448  10.735  0.1774 -0.7752 -0.8332
  149SAPE  H12B16435   5.620   3.352  10.714  0.8794  0.3420  0.5224
  149SAPE   C1116436   5.626   3.555  10.788 -0.7134 -0.1455  0.0803
  149SAPE  H11A16437   5.565   3.615  10.859  0.1806  1.0197 -0.1274
  149SAPE  H11B16438   5.633   3.608  10.691 -0.3457  1.9278  1.2047
  149SAPE     P16439   5.863   3.653  10.874 -0.2462  0.3437 -0.0526
  149SAPE   O1316440   5.822   3.774  10.801  0.1019  0.0810 -0.1681
  149SAPE   O1416441   5.886   3.675  11.020  0.2321 -0.2536  0.2902
  149SAPE   O1216442   5.758   3.536  10.849 -0.7166 -0.3992  0.4782
  149SAPE   O1116443   6.006   3.606  10.814 -0.2957 -0.2587 -1.3236
  149SAPE    C116444   6.050   3.472  10.825 -0.4776 -0.6537 -0.3662
  149SAPE    HA16445   6.152   3.475  10.869 -0.0305 -0.2471 -1.4304
  149SAPE    HB16446   5.997   3.405  10.896  1.5495 -0.7513  1.1039
  149SAPE    C216447   6.062   3.407  10.691  0.1661 -0.5332  0.0595
  149SAPE    HS16448   6.091   3.300  10.706 -2.9032 -1.4485 -0.1483
  149SAPE   O2116449   6.158   3.482  10.604  0.0257 -0.1533 -0.1110
  149SAPE   C2116450   6.281   3.474  10.640  0.3967 -0.2414  0.3924
  149SAPE   O2216451   6.323   3.402  10.729 -0.1242  0.0408 -0.1182
  149SAPE   C2216452   6.361   3.568  10.547 -0.0106  0.5674  0.3308
  149SAPE   H2R16453   6.360   3.546  10.438 -2.5028  1.0549  0.2302
  149SAPE   H2S16454   6.318   3.670  10.554  0.9091  1.1258 -1.8455
  149SAPE    C316455   5.920   3.415  10.620 -0.2214 -0.4247  0.1774
  149SAPE    HX16456   5.897   3.523  10.614 -0.2165 -0.5230 -2.4139
  149SAPE    HY16457   5.850   3.355  10.681 -0.4688 -1.2083 -0.8489
  149SAPE   O3116458   5.932   3.352  10.493 -0.0357  0.2036 -0.2346
  149SAPE   C3116459   5.817   3.352  10.414  0.1300 -0.4749  0.1814
  149SAPE   O3216460   5.707   3.388  10.458  0.1857  0.5306  0.0142
  149SAPE   C3216461   5.840   3.298  10.272 -0.0784 -0.4076  0.1415
  149SAPE   H2X16462   5.930   3.345  10.227 -1.0737  0.5742 -0.8654
  149SAPE   H2Y16463   5.750   3.330  10.214  2.0456  0.3047 -2.9231
  149SAPE   C2316464   6.520   3.570  10.587  0.2140  0.2112 -0.0963
  149SAPE   H3R16465   6.548   3.463  10.589 -0.8141 -0.0544  0.5167
  149SAPE   H3S16466   6.522   3.610  10.691  1.7083 -1.1982  0.4511
  149SAPE   C2416467   6.614   3.647  10.499 -0.6421  0.5109 -0.0355
  149SAPE   H4R16468   6.585   3.617  10.396 -0.7580 -1.0874  0.4481
  149SAPE   H4S16469   6.718   3.617  10.525 -1.5285 -1.7565  1.0779
  149SAPE   C2516470   6.602   3.796  10.515  0.1581  0.1096 -0.2811
  149SAPE   H5R16471   6.647   3.831  10.609  1.7029 -2.2382 -0.1075
  149SAPE   C2616472   6.543   3.888  10.430  0.8512  0.6505 -0.1510
  149SAPE   H6R16473   6.535   3.993  10.463  2.0418  0.7433 -0.1710
  149SAPE   C2716474   6.476   3.855  10.297  0.5914 -0.7311 -0.1129
  149SAPE   H7R16475   6.456   3.747  10.280  0.0589 -0.5463 -0.6621
  149SAPE   H7S16476   6.534   3.889  10.209 -0.4338  0.7125 -0.2627
  149SAPE   C2816477   6.345   3.930  10.309 -0.1419  0.7677  0.0933
  149SAPE   H8R16478   6.366   4.035  10.331  1.1382  1.3873 -3.7637
  149SAPE   C2916479   6.219   3.885  10.297 -0.1657 -0.1350  0.3510
  149SAPE   H9R16480   6.137   3.958  10.291 -0.8586 -0.9293 -0.0611
  149SAPE  C21016481   6.178   3.738  10.266  0.5808 -0.4283 -0.2431
  149SAPE  H10R16482   6.255   3.663  10.294 -0.6456 -2.4768 -2.1963
  149SAPE  H10S16483   6.155   3.719  10.159  1.4282 -0.5418 -0.4047
  149SAPE  C21116484   6.059   3.708  10.352 -0.1154  0.5518 -0.2768
  149SAPE  H11R16485   6.087   3.661  10.447  1.4849  1.5621 -0.2122
  149SAPE  C21216486   5.922   3.732  10.331  0.4475 -0.4516  0.6387
  149SAPE  H12R16487   5.849   3.702  10.409 -0.9378 -2.2834 -1.2991
  149SAPE  C21316488   5.866   3.779  10.198  0.2613 -0.1686  1.1211
  149SAPE  H13R16489   5.947   3.832  10.143  0.1390  0.4245  1.5118
  149SAPE  H13S16490   5.792   3.858  10.220 -0.4785 -0.1897 -1.2053
  149SAPE  C21416491   5.817   3.658  10.121 -0.3439  0.4738  1.0055
  149SAPE  H14R16492   5.729   3.600  10.153 -1.6820  3.2341  2.4663
  149SAPE  C21516493   5.856   3.616  10.000 -0.2099  0.4047 -0.1014
  149SAPE  H15R16494   5.821   3.523   9.953  4.4447 -1.5896  0.1324
  149SAPE  C21616495   5.961   3.689   9.916  0.3655 -0.0285 -0.1343
  149SAPE  H16R16496   6.042   3.739   9.973  0.4904 -0.8675  0.4416
  149SAPE  H16S16497   5.917   3.776   9.863  0.6429 -0.7774 -1.6404
  149SAPE  C21716498   6.029   3.600   9.802  0.4822  0.3479 -0.4723
  149SAPE  H17R16499   5.945   3.546   9.753 -0.7468  1.2638  0.6049
  149SAPE  H17S16500   6.094   3.523   9.848  0.5597 -0.2509 -1.5515
  149SAPE  C21816501   6.097   3.686   9.688 -0.0257 -0.1717  0.2984
  149SAPE  H18R16502   6.168   3.758   9.734  2.6956 -1.7711 -1.3183
  149SAPE  H18S16503   6.010   3.736   9.640  0.3904 -0.6620 -0.9903
  149SAPE  C21916504   6.188   3.600   9.602 -0.4460 -0.4840  0.0929
  149SAPE  H19R16505   6.118   3.529   9.552  0.2852 -1.5570  0.5738
  149SAPE  H19S16506   6.265   3.549   9.664  1.4478  1.6741 -0.4160
  149SAPE  C22016507   6.260   3.669   9.489  0.5583 -0.0330 -0.2537
  149SAPE  H20R16508   6.188   3.675   9.404  2.6121 -0.1447 -2.0438
  149SAPE  H20S16509   6.341   3.606   9.447  0.6308 -0.4150  0.4563
  149SAPE  H20T16510   6.310   3.762   9.522  2.4127 -1.3616  0.7107
  149SAPE   C3316511   5.852   3.143  10.262  0.0729 -0.1482  0.1310
  149SAPE   H3X16512   5.747   3.110  10.252 -0.0610  0.5876 -0.9615
  149SAPE   H3Y16513   5.905   3.100  10.350 -0.7397  1.8989  1.6507
  149SAPE   C3416514   5.945   3.107  10.147 -0.2541  0.0151 -0.4989
  149SAPE   H4X16515   5.956   2.997  10.145  1.1826  0.0900  1.9250
  149SAPE   H4Y16516   6.051   3.141  10.152 -0.1163 -0.4474 -0.3051
  149SAPE   C3516517   5.884   3.158  10.017 -0.4437  0.3069  0.3703
  149SAPE   H5X16518   5.848   3.261  10.035 -0.3996 -0.2311  3.9794
  149SAPE   H5Y16519   5.798   3.092   9.992  0.7682 -0.9945 -0.4317
  149SAPE   C3616520   5.984   3.161   9.901  0.5404  0.7007 -0.2905
  149SAPE   H6X16521   6.025   3.058   9.898  0.0165  0.3872  2.0183
  149SAPE   H6Y16522   6.066   3.229   9.935 -1.7913  2.3678  2.2411
  149SAPE   C3716523   5.920   3.207   9.771  0.7403  0.1311 -0.0858
  149SAPE   H7X16524   5.870   3.305   9.786 -1.6984 -1.1103  0.1414
  149SAPE   H7Y16525   5.857   3.125   9.729 -3.4010  1.3651  3.3774
  149SAPE   C3816526   6.029   3.226   9.664 -0.8307  0.7280 -0.2835
  149SAPE   H8X16527   6.086   3.130   9.667  1.6563  2.1352 -0.9893
  149SAPE   H8Y16528   6.104   3.292   9.713  1.3297 -2.5102  0.9694
  149SAPE   C3916529   5.989   3.266   9.523 -0.4040  0.3370  0.6539
  149SAPE   H9X16530   5.919   3.352   9.519 -2.3241 -1.1894  0.5837
  149SAPE   H9Y16531   5.921   3.182   9.495  0.2602 -0.4621  1.4109
  149SAPE  C31016532   6.105   3.264   9.424 -0.2919  0.0437 -0.3223
  149SAPE  H10X16533   6.142   3.160   9.422 -0.1314  0.1258 -1.6332
  149SAPE  H10Y16534   6.188   3.328   9.461 -1.6842  0.5464  2.1219
  149SAPE  C31116535   6.051   3.315   9.298  0.1422  0.0848  0.5808
  149SAPE  H11X16536   5.994   3.409   9.310  0.3116  0.5405 -1.9441
  149SAPE  H11Y16537   5.989   3.231   9.258 -2.0094  0.7485  2.3812
  149SAPE  C31216538   6.161   3.327   9.187  0.3117 -1.0555  0.3631
  149SAPE  H12X16539   6.116   3.310   9.086  1.4530  0.0351 -0.3393
  149SAPE  H12Y16540   6.239   3.250   9.204  0.2795 -0.6485  2.4146
  149SAPE  C31316541   6.231   3.467   9.181  0.6558 -0.2238  0.2450
  149SAPE  H13X16542   6.287   3.488   9.275 -0.9292  0.1530  1.1149
  149SAPE  H13Y16543   6.143   3.535   9.181  0.5803 -0.2986 -1.3595
  149SAPE  C31416544   6.311   3.482   9.047 -0.1649 -0.2869 -0.4188
  149SAPE  H14X16545   6.320   3.591   9.027  3.2418 -0.5528 -0.6292
  149SAPE  H14Y16546   6.246   3.457   8.961 -0.6037 -0.5188 -0.0191
  149SAPE  C31516547   6.450   3.414   9.056  0.0131  0.0811 -0.1094
  149SAPE  H15X16548   6.437   3.303   9.063  1.7097 -0.1097  0.4534
  149SAPE  H15Y16549   6.494   3.444   9.154  1.8085 -0.4221 -0.7392
  149SAPE  C31616550   6.534   3.433   8.923 -0.0677  0.1037  0.9107
  149SAPE  H16X16551   6.625   3.371   8.926 -0.4079 -0.4334  0.3689
  149SAPE  H16Y16552   6.576   3.535   8.924  1.2910 -0.4437 -0.2281
  149SAPE  C31716553   6.452   3.415   8.794 -0.1834 -0.3708  0.7319
  149SAPE  H17X16554   6.510   3.441   8.703 -2.5825 -0.0479 -0.7489
  149SAPE  H17Y16555   6.361   3.478   8.795  0.4585  0.5672  0.8049
  149SAPE  C31816556   6.424   3.267   8.780  0.6896 -0.0072  0.2158
  149SAPE  H18X16557   6.360   3.236   8.695  1.0082  0.7332 -0.3049
  149SAPE  H18Y16558   6.368   3.229   8.868 -0.4074  0.2282 -0.3686
  149SAPE  H18Z16559   6.512   3.200   8.782  0.8399  0.1850  0.0712
  150SAPE     N16560   0.797   3.362  10.780 -0.1955 -0.4153 -0.0358
  150SAPE   HN116561   0.866   3.389  10.853 -0.4999  1.7461 -0.5061
  150SAPE   HN216562   0.850   3.307  10.709 -1.3447  0.7567 -1.8776
  150SAPE   HN316563   0.753   3.442  10.730  1.7958  0.1527 -0.9281
  150SAPE   C1216564   0.683   3.288  10.841 -0.4318 -0.4225 -0.3484
  150SAPE  H12A16565   0.670   3.201  10.773 -0.9616 -0.2003 -0.5321
  150SAPE  H12B16566   0.594   3.354  10.834  0.8902  1.3556 -0.9730
  150SAPE   C1116567   0.700   3.240  10.988 -0.1293  0.3182  0.3191
  150SAPE  H11A16568   0.619   3.173  11.022  2.8090 -2.8853  1.2634
  150SAPE  H11B16569   0.689   3.325  11.059 -2.3585  0.4283 -0.1287
  150SAPE     P16570   0.842   3.021  10.963 -0.5414  0.1350 -0.2927
  150SAPE   O1316571   0.879   2.969  11.095 -0.6615  0.0979  0.1651
  150SAPE   O1416572   0.719   2.963  10.911  0.0245 -0.4422 -0.2744
  150SAPE   O1216573   0.828   3.180  10.989  0.2286  0.8115 -0.1609
  150SAPE   O1116574   0.960   3.016  10.855 -0.0266 -0.3985  0.1782
  150SAPE    C116575   1.065   3.112  10.854  0.1386  0.5218 -0.3620
  150SAPE    HA16576   1.023   3.214  10.869  1.8012  1.1694  0.0572
  150SAPE    HB16577   1.131   3.099  10.942  1.0786 -1.6116 -1.3428
  150SAPE    C216578   1.155   3.115  10.720 -0.2454  0.0188  0.3986
  150SAPE    HS16579   1.170   3.219  10.682  0.0701  0.1940  0.9955
  150SAPE   O2116580   1.085   3.043  10.609 -1.0125  0.4021 -0.2062
  150SAPE   C2116581   0.978   3.102  10.567 -0.6099 -0.0427 -0.6473
  150SAPE   O2216582   0.935   3.209  10.607  0.3919  0.2358 -0.2742
  150SAPE   C2216583   0.921   3.019  10.457 -0.0765  0.0641  0.6616
  150SAPE   H2R16584   1.007   2.973  10.404 -0.7238 -0.0532 -0.2912
  150SAPE   H2S16585   0.870   2.934  10.508 -0.4316 -1.0024 -1.4454
  150SAPE    C316586   1.297   3.055  10.739  0.1977  0.0488 -0.5019
  150SAPE    HX16587   1.284   2.964  10.801 -1.7053  0.4163 -0.3178
  150SAPE    HY16588   1.357   3.124  10.802  0.5770 -2.3068  1.7815
  150SAPE   O3116589   1.359   3.027  10.618 -0.3259  0.1370  0.3597
  150SAPE   C3116590   1.433   3.121  10.566  0.8179  0.2200 -0.0745
  150SAPE   O3216591   1.443   3.241  10.602 -0.4059  0.2439  0.0022
  150SAPE   C3216592   1.521   3.072  10.451 -0.3365 -0.2703  0.2471
  150SAPE   H2X16593   1.475   2.977  10.416 -1.5086  0.8435 -1.2513
  150SAPE   H2Y16594   1.624   3.059  10.491  0.9466  0.6656 -2.5808
  150SAPE   C2316595   0.818   3.084  10.366 -0.1926  0.4729  0.0992
  150SAPE   H3R16596   0.871   3.131  10.280 -1.4753  0.0784 -0.9235
  150SAPE   H3S16597   0.754   3.160  10.413 -0.0737  2.1616 -2.3562
  150SAPE   C2416598   0.724   2.972  10.314  0.7538  0.1927  0.2345
  150SAPE   H4R16599   0.654   3.026  10.246  0.5920  0.7835  0.8671
  150SAPE   H4S16600   0.655   2.943  10.396  1.9098  1.4125  1.6631
  150SAPE   C2516601   0.775   2.844  10.249  0.2671 -0.0935  0.0468
  150SAPE   H5R16602   0.849   2.788  10.307  0.5698 -0.5596 -0.7754
  150SAPE   C2616603   0.748   2.792  10.131 -0.7504  0.2317  0.6659
  150SAPE   H6R16604   0.786   2.690  10.111 -2.1433 -0.1279 -0.2177
  150SAPE   C2716605   0.668   2.851  10.014 -0.5128 -0.5618  0.4909
  150SAPE   H7R16606   0.606   2.935  10.053 -0.8756  0.4219 -2.1097
  150SAPE   H7S16607   0.601   2.768   9.985  2.1143 -1.9405 -1.9271
  150SAPE   C2816608   0.765   2.895   9.900 -0.0057 -0.1100 -0.8708
  150SAPE   H8R16609   0.833   2.975   9.931 -0.8190 -0.4186  1.8557
  150SAPE   C2916610   0.785   2.841   9.774 -0.0674 -0.5284 -0.2553
  150SAPE   H9R16611   0.860   2.881   9.704  0.9826 -0.2078  1.0388
  150SAPE  C21016612   0.707   2.721   9.715 -0.1315 -0.6252 -0.1874
  150SAPE  H10R16613   0.665   2.654   9.793  2.3435 -1.8387  0.1612
  150SAPE  H10S16614   0.787   2.656   9.673  0.1611 -0.8773  0.7489
  150SAPE  C21116615   0.611   2.758   9.607 -0.4813  0.0355  0.8899
  150SAPE  H11R16616   0.553   2.846   9.639 -0.6226  0.2052  0.1736
  150SAPE  C21216617   0.609   2.721   9.473  0.5456 -0.5620 -0.1613
  150SAPE  H12R16618   0.521   2.745   9.412  0.4142 -0.2560  0.1493
  150SAPE  C21316619   0.704   2.624   9.404 -0.0533 -0.2231  1.1517
  150SAPE  H13R16620   0.649   2.544   9.351  1.3970  0.6242 -1.7398
  150SAPE  H13S16621   0.774   2.581   9.478 -0.5168 -1.9160  0.6086
  150SAPE  C21416622   0.796   2.701   9.307  0.1145 -0.8391 -0.4500
  150SAPE  H14R16623   0.827   2.800   9.342 -2.9932 -0.2632  0.8907
  150SAPE  C21516624   0.814   2.658   9.182  0.5551  0.5039  0.2718
  150SAPE  H15R16625   0.873   2.723   9.116  0.0174 -1.1324 -1.8752
  150SAPE  C21616626   0.758   2.537   9.112 -0.0494  0.5903 -0.5927
  150SAPE  H16R16627   0.647   2.549   9.111  0.0958  1.9403 -0.8772
  150SAPE  H16S16628   0.782   2.447   9.173  0.4328  1.6493  0.7924
  150SAPE  C21716629   0.808   2.504   8.972 -0.7886  0.2208  0.4713
  150SAPE  H17R16630   0.741   2.426   8.930 -0.5706  0.9989 -1.3621
  150SAPE  H17S16631   0.915   2.476   8.969 -0.9401 -0.1501 -2.0784
  150SAPE  C21816632   0.786   2.620   8.875  0.9526  0.6319  0.2638
  150SAPE  H18R16633   0.838   2.715   8.901 -3.4475  3.0622  0.5698
  150SAPE  H18S16634   0.680   2.645   8.896  0.6374 -0.3754 -0.0781
  150SAPE  C21916635   0.810   2.582   8.724 -0.1445  0.7293  0.2704
  150SAPE  H19R16636   0.765   2.649   8.647  0.2008 -1.7416 -2.1377
  150SAPE  H19S16637   0.762   2.484   8.702  3.6002 -0.7477 -1.6793
  150SAPE  C22016638   0.958   2.567   8.685  0.1296 -0.3000  0.4969
  150SAPE  H20R16639   1.018   2.496   8.746  0.7730 -2.1559 -2.1821
  150SAPE  H20S16640   1.000   2.669   8.678 -1.4555  0.2881 -0.8223
  150SAPE  H20T16641   0.958   2.527   8.581 -2.7033 -0.7492  0.6229
  150SAPE   C3316642   1.526   3.163  10.327  0.3894 -0.1437 -0.0991
  150SAPE   H3X16643   1.629   3.163  10.287  1.0498  3.9760  1.3909
  150SAPE   H3Y16644   1.518   3.271  10.351  0.7015  0.4209 -2.4732
  150SAPE   C3416645   1.419   3.129  10.228 -0.4878  0.0687  0.4386
  150SAPE   H4X16646   1.406   3.019  10.217 -0.4991  0.2819 -1.9430
  150SAPE   H4Y16647   1.453   3.188  10.140 -0.0927  2.0508  1.8765
  150SAPE   C3516648   1.281   3.181  10.268  0.7037  0.1117  0.7145
  150SAPE   H5X16649   1.299   3.291  10.275  0.4544  0.1130  1.3043
  150SAPE   H5Y16650   1.254   3.144  10.369 -1.1405 -2.2207 -0.5918
  150SAPE   C3616651   1.161   3.154  10.176 -0.2989 -0.2594  0.0601
  150SAPE   H6X16652   1.079   3.203  10.232 -0.6357  1.7666 -2.1444
  150SAPE   H6Y16653   1.132   3.047  10.178 -2.2775  0.2539 -0.4250
  150SAPE   C3716654   1.187   3.202  10.036  0.1353 -0.4116 -0.6620
  150SAPE   H7X16655   1.288   3.169  10.001  0.6931 -1.1106  1.5129
  150SAPE   H7Y16656   1.200   3.312  10.041 -0.1091 -0.4100 -0.0033
  150SAPE   C3816657   1.076   3.180   9.935  0.3252  0.5044  0.0020
  150SAPE   H8X16658   0.980   3.199   9.987  1.1872 -1.8914  2.6420
  150SAPE   H8Y16659   1.097   3.072   9.916 -0.2869  0.0781  1.6419
  150SAPE   C3916660   1.086   3.271   9.811 -0.1180 -0.6153 -0.0765
  150SAPE   H9X16661   1.188   3.248   9.773  0.7042  0.7545  1.2168
  150SAPE   H9Y16662   1.089   3.380   9.836  0.1827 -0.8043  0.7253
  150SAPE  C31016663   0.983   3.236   9.706 -0.0379  0.7455  0.2161
  150SAPE  H10X16664   0.893   3.292   9.741 -0.4661  0.4472 -0.4118
  150SAPE  H10Y16665   0.964   3.127   9.716  0.4457  0.7201  0.8637
  150SAPE  C31116666   1.026   3.268   9.565 -0.2569 -0.7500  0.2673
  150SAPE  H11X16667   1.116   3.221   9.520  1.7275  2.6898  0.4750
  150SAPE  H11Y16668   1.044   3.377   9.553 -3.6461 -0.2894 -1.3183
  150SAPE  C31216669   0.912   3.238   9.462 -0.7892 -0.5104 -0.6082
  150SAPE  H12X16670   0.823   3.294   9.497 -1.5020 -0.7959 -1.9261
  150SAPE  H12Y16671   0.880   3.134   9.485 -2.3169  0.6924  3.1930
  150SAPE  C31316672   0.952   3.278   9.319  0.7412 -0.5595 -0.0426
  150SAPE  H13X16673   1.030   3.210   9.279  1.1740 -0.7155  1.0427
  150SAPE  H13Y16674   0.985   3.384   9.313  1.1305 -0.4671  3.0551
  150SAPE  C31416675   0.835   3.267   9.228  0.1082 -0.1351 -0.3926
  150SAPE  H14X16676   0.863   3.306   9.127 -0.8300  2.6771  0.4094
  150SAPE  H14Y16677   0.753   3.336   9.256  1.3992  0.6177  1.6163
  150SAPE  C31516678   0.779   3.123   9.210  0.2844  0.6032  0.1231
  150SAPE  H15X16679   0.752   3.084   9.311  1.9099  0.5101  0.5264
  150SAPE  H15Y16680   0.868   3.069   9.171  0.3399  3.0000 -3.3174
  150SAPE  C31616681   0.669   3.107   9.099 -0.3366 -1.0755  0.1276
  150SAPE  H16X16682   0.710   3.162   9.011  2.0181 -2.2061  0.4869
  150SAPE  H16Y16683   0.575   3.159   9.127 -1.2408 -0.2841 -3.9509
  150SAPE  C31716684   0.642   2.960   9.064 -0.6398 -1.0029  0.7009
  150SAPE  H17X16685   0.594   2.911   9.151  0.9809  0.4644  2.4630
  150SAPE  H17Y16686   0.736   2.906   9.040  0.7258  0.7503  2.0084
  150SAPE  C31816687   0.559   2.953   8.937  0.3781  0.2776  0.4556
  150SAPE  H18X16688   0.598   3.013   8.852 -1.1259 -2.9209 -2.6309
  150SAPE  H18Y16689   0.453   2.978   8.958  0.3646  1.5176 -1.0517
  150SAPE  H18Z16690   0.559   2.844   8.914  3.7207  0.4870 -0.8528
  151SAPE     N16691   4.765   6.209  10.543  0.5618  0.7981  0.0105
  151SAPE   HN116692   4.786   6.109  10.528  0.5819  0.3941  2.6622
  151SAPE   HN216693   4.848   6.269  10.559 -2.0332  4.7105 -0.3128
  151SAPE   HN316694   4.705   6.221  10.627  2.4935 -1.8355  1.8228
  151SAPE   C1216695   4.698   6.253  10.419  0.5312  0.0209  0.2158
  151SAPE  H12A16696   4.609   6.188  10.400 -0.5682  1.7890 -0.7627
  151SAPE  H12B16697   4.777   6.257  10.342 -1.0328  1.7443 -1.3460
  151SAPE   C1116698   4.628   6.390  10.432 -0.4780 -0.3610 -0.6396
  151SAPE  H11A16699   4.553   6.386  10.515  0.8750 -0.0975  0.6141
  151SAPE  H11B16700   4.574   6.406  10.336 -0.2123 -0.8751 -0.8750
  151SAPE     P16701   4.687   6.629  10.476 -0.0981 -0.1675  0.2401
  151SAPE   O1316702   4.557   6.651  10.541  0.1674  0.6585  0.2772
  151SAPE   O1416703   4.810   6.681  10.543 -0.1715 -0.5218 -0.4726
  151SAPE   O1216704   4.727   6.483  10.448 -0.3385 -0.0304 -0.2460
  151SAPE   O1116705   4.655   6.696  10.332  0.1517 -0.4293  0.1707
  151SAPE    C116706   4.759   6.706  10.235 -0.6169 -0.4620 -0.7069
  151SAPE    HA16707   4.831   6.621  10.238  2.3021  1.8857 -1.0955
  151SAPE    HB16708   4.720   6.702  10.131  1.0814  0.0704 -1.3818
  151SAPE    C216709   4.841   6.835  10.249  0.5058 -1.1171 -0.1702
  151SAPE    HS16710   4.804   6.879  10.344 -0.7182 -1.2094 -0.6078
  151SAPE   O2116711   4.810   6.927  10.145  0.2467 -0.7107  0.1473
  151SAPE   C2116712   4.837   7.050  10.171  0.2344 -0.0283  0.5249
  151SAPE   O2216713   4.898   7.090  10.270 -0.1818 -0.5625  0.5271
  151SAPE   C2216714   4.768   7.151  10.070 -1.0705 -0.3117 -0.4167
  151SAPE   H2R16715   4.659   7.133  10.055 -0.3543 -3.5276 -2.0903
  151SAPE   H2S16716   4.777   7.251  10.118 -0.0821 -1.2164  1.3450
  151SAPE    C316717   4.992   6.808  10.271  0.1857 -0.1269  0.2713
  151SAPE    HX16718   4.988   6.751  10.366  2.6410  0.6375  0.8678
  151SAPE    HY16719   5.051   6.900  10.290  0.8142 -0.2033 -1.2204
  151SAPE   O3116720   5.055   6.731  10.171 -0.0790 -0.1728 -0.0638
  151SAPE   C3116721   5.104   6.804  10.074 -0.4802  0.4550  0.3691
  151SAPE   O3216722   5.133   6.921  10.077  0.4090 -0.7778 -0.2382
  151SAPE   C3216723   5.128   6.713   9.948 -0.2359  0.3385 -0.1699
  151SAPE   H2X16724   5.026   6.676   9.924 -0.1605  0.4007 -0.5907
  151SAPE   H2Y16725   5.191   6.629   9.986 -1.8502 -1.3803 -1.2675
  151SAPE   C2316726   4.829   7.154   9.933  0.1716 -0.0843 -0.0645
  151SAPE   H3R16727   4.864   7.058   9.889 -1.2603  0.1942 -1.8735
  151SAPE   H3S16728   4.919   7.215   9.955  0.1277 -0.2509  0.6018
  151SAPE   C2416729   4.749   7.232   9.834  0.6010 -0.5273 -0.5836
  151SAPE   H4R16730   4.821   7.253   9.752 -0.3800 -2.1640 -1.9132
  151SAPE   H4S16731   4.712   7.332   9.866 -0.3446 -0.3875 -2.0401
  151SAPE   C2516732   4.632   7.148   9.780 -0.4244 -0.4922 -0.1100
  151SAPE   H5R16733   4.556   7.133   9.858 -0.0995 -0.3739  0.2329
  151SAPE   C2616734   4.620   7.091   9.662  0.7072 -0.6165  0.6187
  151SAPE   H6R16735   4.519   7.048   9.653 -0.4139  2.5750 -3.5027
  151SAPE   C2716736   4.712   7.086   9.542 -0.2033 -0.0773 -0.2189
  151SAPE   H7R16737   4.806   7.135   9.574 -0.5580 -1.0757  2.4680
  151SAPE   H7S16738   4.670   7.141   9.455  2.2730  1.5411 -0.4420
  151SAPE   C2816739   4.736   6.942   9.516  0.4663  0.1584 -0.1001
  151SAPE   H8R16740   4.732   6.877   9.605  0.8556 -2.1279 -1.7145
  151SAPE   C2916741   4.766   6.890   9.390  0.3943  0.6758 -0.3740
  151SAPE   H9R16742   4.798   6.785   9.394 -0.9711  0.3183  2.4260
  151SAPE  C21016743   4.776   6.967   9.260 -1.2327  0.6990  0.0887
  151SAPE  H10R16744   4.870   6.940   9.208 -2.2008 -0.2344 -1.2049
  151SAPE  H10S16745   4.796   7.075   9.278 -0.3102  0.1010  2.9537
  151SAPE  C21116746   4.645   6.953   9.189 -0.2706  0.5402 -0.4184
  151SAPE  H11R16747   4.564   6.990   9.254  0.7459 -2.4400  2.7193
  151SAPE  C21216748   4.623   6.906   9.064  0.3228  0.0984  0.2166
  151SAPE  H12R16749   4.520   6.895   9.030 -0.5719  2.9373  1.8622
  151SAPE  C21316750   4.730   6.854   8.969 -0.3265  0.0504 -0.1411
  151SAPE  H13R16751   4.812   6.928   8.977 -0.5489  0.2103  0.6924
  151SAPE  H13S16752   4.691   6.870   8.866  0.1922 -0.3416 -0.3966
  151SAPE  C21416753   4.790   6.714   8.984  0.0071 -0.7541  0.1129
  151SAPE  H14R16754   4.838   6.705   9.083  0.4389 -2.9385 -0.2747
  151SAPE  C21516755   4.805   6.615   8.886  0.1143  0.1060  0.0319
  151SAPE  H15R16756   4.853   6.523   8.921  0.3851  0.1644 -0.1824
  151SAPE  C21616757   4.756   6.620   8.740  0.2270  0.0061 -0.3339
  151SAPE  H16R16758   4.679   6.699   8.730 -0.3876 -0.5383  0.0327
  151SAPE  H16S16759   4.716   6.528   8.693 -0.6853  1.6821 -2.9021
  151SAPE  C21716760   4.877   6.653   8.649  0.2084  0.6362  0.1206
  151SAPE  H17R16761   4.956   6.575   8.653 -0.5924 -0.1622  0.8736
  151SAPE  H17S16762   4.932   6.743   8.681  1.2224 -0.1811  0.7207
  151SAPE  C21816763   4.836   6.686   8.496 -0.1610 -0.7584 -0.5626
  151SAPE  H18R16764   4.762   6.769   8.501  2.1668  1.3441 -0.2338
  151SAPE  H18S16765   4.790   6.593   8.457 -0.4204  0.2293 -2.7388
  151SAPE  C21916766   4.965   6.723   8.415  0.5604 -0.1231  0.3008
  151SAPE  H19R16767   4.956   6.695   8.308 -1.7721  0.1476  0.4124
  151SAPE  H19S16768   5.053   6.666   8.452 -0.4405 -0.9278  1.4770
  151SAPE  C22016769   5.010   6.869   8.411 -0.5741  0.5622 -0.2095
  151SAPE  H20R16770   5.113   6.882   8.371 -0.3773 -0.5377 -0.0649
  151SAPE  H20S16771   5.018   6.909   8.514  0.3925 -0.7367  0.2188
  151SAPE  H20T16772   4.942   6.933   8.350  0.0542  1.5056  0.0619
  151SAPE   C3316773   5.173   6.782   9.818 -0.0551  0.5848 -0.4142
  151SAPE   H3X16774   5.180   6.706   9.737  2.3073 -0.1106  0.3962
  151SAPE   H3Y16775   5.266   6.842   9.815 -0.0197  0.6727  1.6554
  151SAPE   C3416776   5.068   6.875   9.762 -0.0763  1.1168  0.6272
  151SAPE   H4X16777   5.060   6.964   9.828 -0.2888  2.6508 -1.4247
  151SAPE   H4Y16778   4.970   6.826   9.775  0.6553 -0.7276 -0.5255
  151SAPE   C3516779   5.096   6.930   9.617  0.4934 -0.6923  0.3214
  151SAPE   H5X16780   5.181   7.002   9.630 -1.3388  1.5985 -0.0788
  151SAPE   H5Y16781   5.009   6.991   9.585  1.7580  0.2724 -1.3416
  151SAPE   C3616782   5.105   6.827   9.499  0.2529  0.3547 -0.0594
  151SAPE   H6X16783   5.012   6.766   9.499 -0.4785  1.4078  1.7627
  151SAPE   H6Y16784   5.189   6.761   9.529 -1.1316 -0.5222  2.0193
  151SAPE   C3716785   5.130   6.898   9.366  0.0951 -0.5808 -0.6530
  151SAPE   H7X16786   5.227   6.952   9.378 -0.3049  0.1217 -0.5393
  151SAPE   H7Y16787   5.056   6.972   9.329 -0.8196 -0.6514  0.9713
  151SAPE   C3816788   5.140   6.790   9.255  0.0085 -0.0401 -0.4379
  151SAPE   H8X16789   5.042   6.738   9.247  1.2010 -2.3022 -0.7240
  151SAPE   H8Y16790   5.221   6.723   9.292 -0.6678 -0.0255  1.0662
  151SAPE   C3916791   5.180   6.863   9.126 -0.6872  0.3395  0.2155
  151SAPE   H9X16792   5.273   6.921   9.142 -0.7863 -0.0214  2.2755
  151SAPE   H9Y16793   5.107   6.942   9.097  1.7831  3.0137  1.0039
  151SAPE  C31016794   5.178   6.759   9.004 -0.0873  1.1560 -0.5614
  151SAPE  H10X16795   5.154   6.824   8.918  1.6672  1.1567 -1.0829
  151SAPE  H10Y16796   5.082   6.704   9.008  0.0635  0.9035 -0.3669
  151SAPE  C31116797   5.300   6.672   8.997 -0.7131  0.2389  0.1184
  151SAPE  H11X16798   5.301   6.605   9.085 -0.7279 -1.4968 -1.1771
  151SAPE  H11Y16799   5.385   6.743   8.999 -0.7792  0.2940  1.0053
  151SAPE  C31216800   5.313   6.595   8.862 -0.3888 -0.0901 -0.5825
  151SAPE  H12X16801   5.312   6.658   8.771  0.5984  2.4172  1.0704
  151SAPE  H12Y16802   5.228   6.527   8.842 -0.6837  0.6858 -1.9864
  151SAPE  C31316803   5.440   6.514   8.860  0.5712 -0.1460  0.2344
  151SAPE  H13X16804   5.430   6.440   8.943  1.1822 -0.9226 -0.3657
  151SAPE  H13Y16805   5.528   6.582   8.863  1.4662 -1.0331 -3.2274
  151SAPE  C31416806   5.452   6.439   8.724  0.6383 -0.5557  0.1908
  151SAPE  H14X16807   5.550   6.388   8.735  2.3728  2.7475  0.7321
  151SAPE  H14Y16808   5.451   6.518   8.646 -0.7561  0.6298  1.3643
  151SAPE  C31516809   5.348   6.328   8.693 -0.6201 -0.0530 -1.0112
  151SAPE  H15X16810   5.246   6.366   8.670 -0.0650  1.5959 -0.8518
  151SAPE  H15Y16811   5.340   6.252   8.773 -3.2433 -0.7444 -1.8928
  151SAPE  C31616812   5.379   6.243   8.570 -0.3837 -0.7772 -0.0788
  151SAPE  H16X16813   5.296   6.169   8.565 -0.8334 -0.3789  1.3547
  151SAPE  H16Y16814   5.476   6.191   8.580 -1.1477 -2.0756  0.7892
  151SAPE  C31716815   5.388   6.336   8.449  0.1911  0.0234 -0.2151
  151SAPE  H17X16816   5.486   6.387   8.463 -0.6401  1.8731 -1.0401
  151SAPE  H17Y16817   5.318   6.422   8.447  0.4327  0.3211  2.5373
  151SAPE  C31816818   5.382   6.255   8.320  0.2327  0.1363  0.4000
  151SAPE  H18X16819   5.396   6.321   8.231  0.1952 -0.0778  0.2354
  151SAPE  H18Y16820   5.285   6.201   8.315  0.7637 -0.6023 -2.8376
  151SAPE  H18Z16821   5.464   6.180   8.313 -0.8658 -1.3188  2.6055
  152SAPE     N16822   0.040   6.596  10.752  0.0574  0.5695 -0.2826
  152SAPE   HN116823   0.037   6.689  10.797 -0.8102  1.5960 -2.3901
  152SAPE   HN216824  -0.031   6.532  10.794  0.6300 -0.0118 -0.1991
  152SAPE   HN316825   0.136   6.557  10.762  1.5794  4.0524 -0.5244
  152SAPE   C1216826  -0.005   6.623  10.610  0.3054 -0.4832  0.0908
  152SAPE  H12A16827   0.006   6.527  10.555 -1.2453  0.8561 -2.6613
  152SAPE  H12B16828   0.059   6.703  10.567  1.1853 -0.7663  0.8416
  152SAPE   C1116829  -0.159   6.658  10.618  0.0544 -0.1912 -0.9084
  152SAPE  H11A16830  -0.204   6.667  10.516  1.1349 -1.4715 -1.5038
  152SAPE  H11B16831  -0.170   6.758  10.666 -2.5824 -0.6942 -0.3589
  152SAPE     P16832  -0.383   6.545  10.716 -0.2688 -0.1131  0.0262
  152SAPE   O1316833  -0.405   6.428  10.800  0.2272  0.8118  0.3158
  152SAPE   O1416834  -0.442   6.673  10.765  0.2254 -0.4352 -0.1364
  152SAPE   O1216835  -0.227   6.561  10.694  0.2410  0.3760 -0.4795
  152SAPE   O1116836  -0.410   6.517  10.558  0.5919 -0.2665 -0.0823
  152SAPE    C116837  -0.369   6.399  10.492 -0.2443  0.0056 -0.1190
  152SAPE    HA16838  -0.259   6.395  10.478 -0.3232  0.3276 -0.8183
  152SAPE    HB16839  -0.389   6.306  10.549 -1.7060  0.4324  0.0846
  152SAPE    C216840  -0.429   6.393  10.348 -0.4304 -1.5138 -0.2012
  152SAPE    HS16841  -0.364   6.329  10.286 -0.0516 -0.6762 -0.6814
  152SAPE   O2116842  -0.442   6.527  10.293 -0.1838 -0.2421  0.0542
  152SAPE   C2116843  -0.340   6.571  10.220 -0.7646 -0.1865  0.2302
  152SAPE   O2216844  -0.234   6.518  10.205 -0.4932  0.1016 -0.5030
  152SAPE   C2216845  -0.374   6.715  10.177  0.0815 -0.0662 -0.1419
  152SAPE   H2R16846  -0.294   6.743  10.104 -1.0760  0.9822 -1.0261
  152SAPE   H2S16847  -0.467   6.722  10.117  0.4810 -0.5674 -0.8374
  152SAPE    C316848  -0.567   6.328  10.352 -0.0039  0.2047  0.7211
  152SAPE    HX16849  -0.620   6.377  10.437 -0.8994 -3.5442  2.3949
  152SAPE    HY16850  -0.559   6.218  10.366  3.0006  0.2533 -0.3122
  152SAPE   O3116851  -0.641   6.355  10.227 -0.1335  0.3314  0.1992
  152SAPE   C3116852  -0.736   6.276  10.199 -0.4352 -0.2188 -0.0931
  152SAPE   O3216853  -0.778   6.179  10.262 -0.1491 -0.2097 -0.7432
  152SAPE   C3216854  -0.781   6.320  10.055 -0.1844 -0.4860  0.2255
  152SAPE   H2X16855  -0.807   6.428  10.052  1.3351 -0.1139 -0.2363
  152SAPE   H2Y16856  -0.875   6.263  10.040 -0.6162  0.4166 -0.5326
  152SAPE   C2316857  -0.397   6.810  10.298  0.1330 -0.0652 -1.2933
  152SAPE   H3R16858  -0.318   6.799  10.376  0.4526  1.4814 -1.3707
  152SAPE   H3S16859  -0.497   6.777  10.333  1.5061 -2.2875  0.7088
  152SAPE   C2416860  -0.396   6.959  10.261 -0.0258 -0.2843  0.3089
  152SAPE   H4R16861  -0.298   7.005  10.239 -1.6488  2.3424 -1.6758
  152SAPE   H4S16862  -0.434   7.017  10.348 -2.0706  0.5989 -1.1421
  152SAPE   C2516863  -0.481   6.995  10.142 -0.4630  0.5277  0.7685
  152SAPE   H5R16864  -0.587   6.978  10.163 -0.0213 -1.3498  1.5346
  152SAPE   C2616865  -0.447   7.040  10.021  0.7669 -0.0344  0.8948
  152SAPE   H6R16866  -0.526   7.049   9.946  0.1178  1.0641  1.6922
  152SAPE   C2716867  -0.308   7.065   9.978  0.4986  0.2384 -0.0583
  152SAPE   H7R16868  -0.235   7.075  10.061  2.2611  0.4114 -1.6022
  152SAPE   H7S16869  -0.295   7.163   9.927 -2.7948  0.1548 -1.1712
  152SAPE   C2816870  -0.254   6.959   9.892 -0.6310 -0.1144 -0.1289
  152SAPE   H8R16871  -0.227   6.868   9.948 -0.3597 -0.0732 -0.1945
  152SAPE   C2916872  -0.223   6.968   9.760 -0.2007 -0.0442 -0.6347
  152SAPE   H9R16873  -0.170   6.879   9.724  0.4678 -0.4702  1.3570
  152SAPE  C21016874  -0.246   7.092   9.674  0.1911  0.1487 -0.2201
  152SAPE  H10R16875  -0.183   7.084   9.583  1.2559  0.6350  0.4597
  152SAPE  H10S16876  -0.221   7.182   9.734 -0.4888 -0.6368  1.2716
  152SAPE  C21116877  -0.390   7.109   9.622 -0.6621 -0.3394  0.2886
  152SAPE  H11R16878  -0.468   7.115   9.699 -0.5298  1.3187  0.3262
  152SAPE  C21216879  -0.425   7.105   9.496  0.4627 -1.0172  0.1804
  152SAPE  H12R16880  -0.529   7.113   9.462 -0.0740  2.3845  2.3726
  152SAPE  C21316881  -0.328   7.102   9.385 -0.1332 -0.2309 -0.1043
  152SAPE  H13R16882  -0.290   7.000   9.367 -1.2743 -0.3890 -1.6831
  152SAPE  H13S16883  -0.246   7.174   9.406 -1.6081  1.5862 -0.4241
  152SAPE  C21416884  -0.394   7.131   9.254  0.3839  0.2777 -0.3523
  152SAPE  H14R16885  -0.456   7.221   9.248 -0.2574 -0.1164  0.3196
  152SAPE  C21516886  -0.388   7.050   9.146  0.1113  0.2103 -0.5239
  152SAPE  H15R16887  -0.454   7.080   9.063 -1.9952  0.0558  1.0500
  152SAPE  C21616888  -0.313   6.923   9.118 -0.0293 -0.0538 -0.0027
  152SAPE  H16R16889  -0.363   6.827   9.141  0.7865 -0.9544 -1.9280
  152SAPE  H16S16890  -0.224   6.914   9.185 -0.3003 -0.5525  0.2908
  152SAPE  C21716891  -0.254   6.918   8.976  0.2201 -0.1786 -0.2982
  152SAPE  H17R16892  -0.196   7.011   8.960 -0.8366  0.4769 -0.3574
  152SAPE  H17S16893  -0.327   6.915   8.892  0.1072  2.1791 -0.3166
  152SAPE  C21816894  -0.147   6.806   8.952  0.1098  0.3892  0.2483
  152SAPE  H18R16895  -0.200   6.710   8.966 -0.2694  0.4932 -0.4539
  152SAPE  H18S16896  -0.068   6.820   9.029 -0.5335  1.6042  0.7069
  152SAPE  C21916897  -0.081   6.825   8.816  0.6132 -0.3267  0.7110
  152SAPE  H19R16898  -0.005   6.905   8.825 -0.0645  0.7777 -2.7264
  152SAPE  H19S16899  -0.159   6.864   8.747 -1.5500 -2.2087  2.0230
  152SAPE  C22016900  -0.008   6.700   8.761  0.0334 -0.2334  0.7270
  152SAPE  H20R16901  -0.001   6.701   8.650 -1.8812  2.5360  0.6021
  152SAPE  H20S16902  -0.049   6.605   8.803 -0.4271  0.0957  1.0138
  152SAPE  H20T16903   0.095   6.702   8.803  1.8325 -2.2971 -3.2209
  152SAPE   C3316904  -0.683   6.292   9.938  0.1096  0.5117 -0.1412
  152SAPE   H3X16905  -0.655   6.184   9.932 -0.9548  0.1736  0.6177
  152SAPE   H3Y16906  -0.592   6.347   9.970  0.1004 -0.2939  1.3650
  152SAPE   C3416907  -0.751   6.329   9.803 -0.2748 -0.2792 -0.3518
  152SAPE   H4X16908  -0.786   6.434   9.802 -1.2245 -0.5983 -1.4584
  152SAPE   H4Y16909  -0.839   6.262   9.789 -0.7008  0.1916  0.0605
  152SAPE   C3516910  -0.662   6.310   9.687 -0.2205 -0.3920  0.1449
  152SAPE   H5X16911  -0.622   6.206   9.678  1.4897  0.3930 -1.6002
  152SAPE   H5Y16912  -0.575   6.379   9.694  0.0196 -0.7594  1.0004
  152SAPE   C3616913  -0.725   6.345   9.550  0.2665  0.1879 -0.7824
  152SAPE   H6X16914  -0.782   6.438   9.571 -2.2393 -1.7935  1.6554
  152SAPE   H6Y16915  -0.807   6.272   9.531 -0.2263  0.2093  1.1033
  152SAPE   C3716916  -0.625   6.338   9.436 -0.2733 -0.3940 -0.2922
  152SAPE   H7X16917  -0.553   6.257   9.458  0.8224  0.6698  0.1133
  152SAPE   H7Y16918  -0.554   6.422   9.453  0.0072 -1.1315  2.5901
  152SAPE   C3816919  -0.679   6.322   9.296  0.2214 -0.0463 -0.0452
  152SAPE   H8X16920  -0.741   6.413   9.283  0.5051  0.3697  1.4401
  152SAPE   H8Y16921  -0.752   6.239   9.292  0.0684  0.1165 -0.8118
  152SAPE   C3916922  -0.571   6.318   9.189 -0.4198 -0.2236  0.2139
  152SAPE   H9X16923  -0.511   6.227   9.210  1.8212  1.6712  2.5311
  152SAPE   H9Y16924  -0.502   6.403   9.211 -0.9574 -0.0322  1.2287
  152SAPE  C31016925  -0.616   6.333   9.044  0.2880  0.1417 -0.7334
  152SAPE  H10X16926  -0.664   6.430   9.023 -0.3782  0.1067  0.5704
  152SAPE  H10Y16927  -0.692   6.253   9.031  0.1570  0.1205  0.1245
  152SAPE  C31116928  -0.502   6.311   8.944  0.8395  0.0778  0.3051
  152SAPE  H11X16929  -0.548   6.287   8.846  1.3043 -0.2169  0.1546
  152SAPE  H11Y16930  -0.443   6.221   8.971  1.1918  0.9182  2.4296
  152SAPE  C31216931  -0.423   6.440   8.910 -0.1052  0.0477  0.0474
  152SAPE  H12X16932  -0.367   6.491   8.991 -1.6188 -0.9825  1.7894
  152SAPE  H12Y16933  -0.495   6.518   8.877 -0.6331 -0.7202 -0.6463
  152SAPE  C31316934  -0.321   6.413   8.802 -0.0674 -0.3661 -0.4958
  152SAPE  H13X16935  -0.263   6.507   8.788 -2.6626  1.0073 -2.4339
  152SAPE  H13Y16936  -0.366   6.359   8.717 -1.3898 -1.1320  0.6611
  152SAPE  C31416937  -0.200   6.315   8.844 -0.0016 -0.3278 -0.1918
  152SAPE  H14X16938  -0.230   6.213   8.875 -1.9695  0.3930  0.3437
  152SAPE  H14Y16939  -0.159   6.366   8.934 -1.7661  1.2789 -0.2570
  152SAPE  C31516940  -0.102   6.306   8.725  0.4640  0.3867 -0.8465
  152SAPE  H15X16941  -0.094   6.404   8.675  1.3113  0.0407 -1.3987
  152SAPE  H15Y16942  -0.134   6.236   8.645  0.5995 -2.5574  1.5389
  152SAPE  C31616943   0.041   6.266   8.768 -0.2559 -0.0239  0.1746
  152SAPE  H16X16944   0.033   6.163   8.809 -0.9195 -0.2962 -0.6148
  152SAPE  H16Y16945   0.074   6.329   8.853  2.3971  0.0109 -0.8359
  152SAPE  C31716946   0.141   6.258   8.658  0.3639 -0.1673 -0.2150
  152SAPE  H17X16947   0.150   6.358   8.610 -3.2523  0.4344  0.2277
  152SAPE  H17Y16948   0.106   6.190   8.577 -2.6404  1.0894 -0.0284
  152SAPE  C31816949   0.281   6.222   8.710  0.9783 -0.4161 -0.6959
  152SAPE  H18X16950   0.339   6.189   8.621  0.8794  0.5129 -1.1078
  152SAPE  H18Y16951   0.279   6.136   8.781  1.6379  1.0932  1.2072
  152SAPE  H18Z16952   0.328   6.314   8.752 -2.3984  0.9241  0.3080
  153SAPE     N16953   6.437   1.069  11.040 -0.9553  0.4959 -0.0109
  153SAPE   HN116954   6.371   1.031  10.969 -0.3947  1.2545 -0.9559
  153SAPE   HN216955   6.529   1.048  10.995 -1.1372  1.2771 -0.7517
  153SAPE   HN316956   6.440   1.007  11.123 -2.2533  1.3200  0.6587
  153SAPE   C1216957   6.418   1.214  11.051 -0.5292 -0.0166 -0.1500
  153SAPE  H12A16958   6.509   1.259  11.095  1.1398 -1.7691 -1.7033
  153SAPE  H12B16959   6.331   1.229  11.119  1.9146  0.4052  2.9713
  153SAPE   C1116960   6.382   1.282  10.920  0.1852  0.6004  0.0543
  153SAPE  H11A16961   6.381   1.390  10.946  1.2393  0.4886  0.6015
  153SAPE  H11B16962   6.279   1.248  10.897  0.6683  0.0481 -1.3789
  153SAPE     P16963   6.420   1.295  10.666  0.2643 -0.1206 -0.2732
  153SAPE   O1316964   6.338   1.421  10.685 -0.1009  0.2109 -0.1069
  153SAPE   O1416965   6.543   1.303  10.576 -0.0951  0.1855  0.4183
  153SAPE   O1216966   6.461   1.239  10.807 -0.5894 -0.4963 -0.1323
  153SAPE   O1116967   6.322   1.187  10.611  0.0178 -0.2119  0.2713
  153SAPE    C116968   6.368   1.067  10.548 -0.3812 -0.0374 -0.1153
  153SAPE    HA16969   6.476   1.048  10.568 -0.3119 -1.2013 -1.5421
  153SAPE    HB16970   6.323   0.977  10.594 -0.9504 -1.0732 -2.6453
  153SAPE    C216971   6.349   1.071  10.393  0.6967 -0.3026 -0.1922
  153SAPE    HS16972   6.410   0.987  10.353  3.7682  0.5753  2.4020
  153SAPE   O2116973   6.369   1.200  10.337 -0.1072  0.3185  1.0793
  153SAPE   C2116974   6.460   1.205  10.240 -0.0462  0.0929 -0.3382
  153SAPE   O2216975   6.545   1.123  10.215 -0.2701 -0.5205  0.5129
  153SAPE   C2216976   6.434   1.339  10.159  0.1702 -0.1016  0.6753
  153SAPE   H2R16977   6.467   1.418  10.229  0.6193 -0.4940  0.9127
  153SAPE   H2S16978   6.495   1.332  10.066 -1.4419  0.0702 -0.4210
  153SAPE    C316979   6.203   1.033  10.361  0.5888 -0.2113 -0.3494
  153SAPE    HX16980   6.175   1.048  10.255  0.3113  0.2226 -0.2160
  153SAPE    HY16981   6.135   1.094  10.424 -0.5033 -2.5062  0.7281
  153SAPE   O3116982   6.191   0.894  10.387 -0.1050 -0.3989  0.2210
  153SAPE   C3116983   6.068   0.853  10.356  0.6312  0.0468 -0.0840
  153SAPE   O3216984   5.983   0.921  10.300 -0.0162  1.1719  0.1033
  153SAPE   C3216985   6.071   0.708  10.384  0.0037 -0.5148  0.2250
  153SAPE   H2X16986   6.055   0.690  10.493  0.8544 -2.5800  0.0355
  153SAPE   H2Y16987   6.170   0.664  10.358  1.0202  1.5097  0.5479
  153SAPE   C2316988   6.294   1.367  10.110  0.2809  0.4129  0.5347
  153SAPE   H3R16989   6.234   1.407  10.194  1.1112 -2.3564  2.4890
  153SAPE   H3S16990   6.241   1.276  10.076 -0.5330  1.2062 -0.3685
  153SAPE   C2416991   6.278   1.466   9.993 -0.3256  0.6189  0.4885
  153SAPE   H4R16992   6.311   1.570  10.013  2.7786 -0.1894 -0.1829
  153SAPE   H4S16993   6.170   1.479   9.973 -0.6162  1.4098  2.4554
  153SAPE   C2516994   6.338   1.403   9.870 -0.1302 -0.9959 -0.3982
  153SAPE   H5R16995   6.394   1.309   9.879  2.2678  0.5056  0.6902
  153SAPE   C2616996   6.316   1.444   9.746  0.0780  0.1121 -0.2589
  153SAPE   H6R16997   6.361   1.380   9.669  1.4402 -0.0403  0.6538
  153SAPE   C2716998   6.232   1.565   9.712  0.7433  0.4775 -0.2151
  153SAPE   H7R16999   6.299   1.620   9.643  0.7786 -0.2945 -0.8110
  153SAPE   H7S17000   6.223   1.631   9.800 -1.7700  0.4731 -0.4258
  153SAPE   C2817001   6.085   1.532   9.665 -1.0283  0.2064 -0.1623
  153SAPE   H8R17002   6.019   1.524   9.753  0.2860 -1.1213  0.7345
  153SAPE   C2917003   6.045   1.508   9.537 -0.1128  0.5128 -0.1319
  153SAPE   H9R17004   5.942   1.477   9.512 -0.0997 -1.3741  1.9562
  153SAPE  C21017005   6.136   1.502   9.415 -0.3896  0.9331  0.4846
  153SAPE  H10R17006   6.071   1.462   9.334 -1.3938  1.4501  1.0169
  153SAPE  H10S17007   6.213   1.426   9.435 -0.4956  0.7096  0.0445
  153SAPE  C21117008   6.213   1.627   9.371 -0.2464 -0.3784 -0.2396
  153SAPE  H11R17009   6.239   1.707   9.441 -0.8846  1.7661 -2.3721
  153SAPE  C21217010   6.266   1.661   9.249 -0.1153  0.6931 -0.1552
  153SAPE  H12R17011   6.301   1.761   9.219  1.5095  0.0857 -0.3372
  153SAPE  C21317012   6.244   1.567   9.131  0.1842  0.3739  0.2733
  153SAPE  H13R17013   6.239   1.460   9.159  1.2323  0.4882  0.9042
  153SAPE  H13S17014   6.341   1.560   9.077  0.2049 -1.0663  0.4690
  153SAPE  C21417015   6.132   1.596   9.029  0.4200 -0.6918 -0.0515
  153SAPE  H14R17016   6.035   1.620   9.076 -0.6859 -1.4017 -1.9211
  153SAPE  C21517017   6.129   1.568   8.889  0.4749 -0.8033  0.1519
  153SAPE  H15R17018   6.048   1.607   8.824 -0.2827 -1.8577  0.4586
  153SAPE  C21617019   6.248   1.527   8.810 -0.4731  0.3360 -0.4335
  153SAPE  H16R17020   6.283   1.426   8.839 -0.6703 -0.0471 -1.5250
  153SAPE  H16S17021   6.327   1.605   8.818  0.2145 -0.4939  1.1514
  153SAPE  C21717022   6.201   1.529   8.663 -0.4404  0.7672 -0.1380
  153SAPE  H17R17023   6.183   1.636   8.637  0.7136  1.8914  3.4675
  153SAPE  H17S17024   6.103   1.480   8.647 -0.0224 -0.4717  1.0627
  153SAPE  C21817025   6.297   1.467   8.564 -0.3862 -0.3713 -0.5569
  153SAPE  H18R17026   6.342   1.377   8.611 -0.5850  0.8319  2.0487
  153SAPE  H18S17027   6.368   1.552   8.572 -1.8841  0.7819  1.0177
  153SAPE  C21917028   6.243   1.447   8.421  0.4453 -0.9051 -0.6799
  153SAPE  H19R17029   6.334   1.444   8.358  2.5042  2.3707  2.0204
  153SAPE  H19S17030   6.176   1.529   8.390  0.0420 -0.4188  1.3770
  153SAPE  C22017031   6.150   1.330   8.395 -0.3612 -0.4513 -0.4512
  153SAPE  H20R17032   6.131   1.323   8.286  0.2471 -2.2925 -0.4567
  153SAPE  H20S17033   6.058   1.336   8.458 -0.7585 -0.2088 -1.0486
  153SAPE  H20T17034   6.211   1.244   8.429 -1.7947 -1.4425 -0.3600
  153SAPE   C3317035   5.958   0.644  10.306 -0.4326 -0.6340 -0.0396
  153SAPE   H3X17036   5.859   0.686  10.336  0.6820  0.6893  1.8652
  153SAPE   H3Y17037   5.959   0.538  10.340 -2.1465 -0.3752  0.8501
  153SAPE   C3417038   5.986   0.619  10.153  0.3883 -0.4577  0.0288
  153SAPE   H4X17039   5.977   0.722  10.112 -0.9033 -0.4305  0.3413
  153SAPE   H4Y17040   5.899   0.562  10.115 -0.5704  0.3152  1.0336
  153SAPE   C3517041   6.107   0.540  10.112  0.0325  0.4106 -0.0025
  153SAPE   H5X17042   6.115   0.445  10.170 -1.9703  1.1754  1.5604
  153SAPE   H5Y17043   6.194   0.606  10.131 -0.8837  1.4837  0.5123
  153SAPE   C3617044   6.118   0.524   9.959 -0.4676  0.2733 -0.2529
  153SAPE   H6X17045   6.214   0.480   9.924 -0.8648 -0.7745 -0.0495
  153SAPE   H6Y17046   6.122   0.628   9.920  1.6173  0.0048 -0.8084
  153SAPE   C3717047   6.004   0.444   9.891  0.1813 -0.6257 -0.6352
  153SAPE   H7X17048   5.930   0.422   9.971  1.8427  0.6484  1.2899
  153SAPE   H7Y17049   6.049   0.345   9.867  2.6109  0.3406 -0.2239
  153SAPE   C3817050   5.927   0.514   9.780 -0.6092  0.4053  0.2276
  153SAPE   H8X17051   5.907   0.620   9.803  1.3326  0.7364  0.4594
  153SAPE   H8Y17052   5.829   0.464   9.760 -1.0619  1.8675 -1.2867
  153SAPE   C3917053   6.014   0.522   9.650  0.0828  0.0268 -0.2127
  153SAPE   H9X17054   6.020   0.417   9.616  0.2358  0.4602 -1.5995
  153SAPE   H9Y17055   6.123   0.538   9.657  0.2472 -0.0132 -2.3720
  153SAPE  C31017056   5.957   0.615   9.542  0.4061  0.0421 -0.1101
  153SAPE  H10X17057   6.010   0.712   9.536  0.4703 -0.0181 -0.4931
  153SAPE  H10Y17058   5.853   0.644   9.565 -0.7031 -1.8096 -2.6353
  153SAPE  C31117059   5.970   0.547   9.407  0.0031 -0.3340  0.4067
  153SAPE  H11X17060   5.899   0.462   9.399  0.6029 -0.9761  1.8892
  153SAPE  H11Y17061   6.073   0.519   9.378  0.1916  2.2531 -1.6238
  153SAPE  C31217062   5.925   0.646   9.289  0.2748 -0.2853  0.0176
  153SAPE  H12X17063   5.963   0.748   9.311  0.2522 -0.1105 -0.7503
  153SAPE  H12Y17064   5.814   0.646   9.284  0.3328  0.0411 -1.3390
  153SAPE  C31317065   5.984   0.606   9.153  0.3224 -0.3191 -0.2457
  153SAPE  H13X17066   6.076   0.552   9.184  0.2720  1.3687  3.0731
  153SAPE  H13Y17067   6.010   0.705   9.109  0.5431  0.0679  0.7380
  153SAPE  C31417068   5.891   0.530   9.051  0.0143 -1.0558 -0.5278
  153SAPE  H14X17069   5.821   0.603   9.006 -0.4189  0.3916  2.3825
  153SAPE  H14Y17070   5.848   0.440   9.100 -1.0901  0.0833  0.6548
  153SAPE  C31517071   5.979   0.476   8.931 -0.2186  0.3406 -0.6351
  153SAPE  H15X17072   6.054   0.400   8.963 -0.2680 -0.1916 -1.7566
  153SAPE  H15Y17073   6.038   0.561   8.891 -0.7539  0.2200 -1.6980
  153SAPE  C31617074   5.906   0.419   8.808 -0.0763  0.6033  0.7403
  153SAPE  H16X17075   5.827   0.491   8.779  0.9520  2.1406  1.6723
  153SAPE  H16Y17076   5.853   0.326   8.838 -0.7112  0.3659 -1.0704
  153SAPE  C31717077   5.994   0.413   8.684 -0.0699  0.3567 -0.2565
  153SAPE  H17X17078   6.069   0.336   8.712 -1.8712 -0.8300  1.4871
  153SAPE  H17Y17079   6.037   0.515   8.671  1.1004 -0.2703 -1.3844
  153SAPE  C31817080   5.926   0.375   8.550  0.1567 -0.3050 -0.3995
  153SAPE  H18X17081   5.840   0.444   8.537  1.0245  0.3719 -2.9365
  153SAPE  H18Y17082   5.889   0.271   8.556 -0.1707 -0.0956  1.4157
  153SAPE  H18Z17083   5.993   0.395   8.463 -1.7129 -0.9022 -2.0117
  154SAPE     N17084   0.184   1.124  11.036 -0.6332  0.2903 -0.1976
  154SAPE   HN117085   0.201   1.214  11.084 -0.9102  1.2652 -1.8945
  154SAPE   HN217086   0.081   1.109  11.030 -0.7162  0.4817  0.6267
  154SAPE   HN317087   0.235   1.050  11.090  1.6618  1.2884 -0.9215
  154SAPE   C1217088   0.257   1.122  10.903  0.4964  0.1659 -0.0127
  154SAPE  H12A17089   0.364   1.139  10.929  0.4899 -0.2457  0.2980
  154SAPE  H12B17090   0.217   1.196  10.831  1.6130  1.9016  1.1082
  154SAPE   C1117091   0.240   1.000  10.829 -0.9086 -0.2110  0.1107
  154SAPE  H11A17092   0.286   1.009  10.729  0.4244  1.3627  0.8555
  154SAPE  H11B17093   0.131   0.996  10.806 -0.3127 -2.2253 -2.7023
  154SAPE     P17094   0.186   0.773  10.924  0.5192  0.0972 -0.4001
  154SAPE   O1317095   0.245   0.657  10.992 -0.1103 -0.5810 -0.4241
  154SAPE   O1417096   0.069   0.842  10.984 -0.0773 -0.1301  0.9011
  154SAPE   O1217097   0.289   0.887  10.907 -0.1220 -0.3986  0.5909
  154SAPE   O1117098   0.158   0.735  10.771 -0.3897 -0.5635 -0.5071
  154SAPE    C117099   0.249   0.657  10.692  0.7091  0.3033  0.2455
  154SAPE    HA17100   0.356   0.679  10.712  0.4769 -0.0095  1.8584
  154SAPE    HB17101   0.229   0.552  10.721  1.1916 -0.4734 -2.0697
  154SAPE    C217102   0.212   0.666  10.540  0.1965  0.0883 -1.0301
  154SAPE    HS17103   0.108   0.627  10.529 -0.6921  1.7539  1.1250
  154SAPE   O2117104   0.314   0.597  10.463  0.4859  0.2690 -0.4171
  154SAPE   C2117105   0.262   0.542  10.350  0.1517  0.7388  0.6069
  154SAPE   O2217106   0.143   0.528  10.325  0.4545 -0.5215 -0.2585
  154SAPE   C2217107   0.375   0.500  10.257 -0.1846  0.1364  0.2395
  154SAPE   H2R17108   0.325   0.492  10.158  0.9237  1.4861 -0.4413
  154SAPE   H2S17109   0.450   0.581  10.252 -1.5450  1.3029 -2.8757
  154SAPE    C317110   0.204   0.817  10.503 -0.2395  0.0308  0.5684
  154SAPE    HX17111   0.303   0.857  10.532 -0.1828 -0.8460  1.6043
  154SAPE    HY17112   0.123   0.870  10.558 -0.0641  2.2810 -1.2386
  154SAPE   O3117113   0.189   0.837  10.357  0.2177 -0.3591 -0.2499
  154SAPE   C3117114   0.070   0.873  10.323  0.8728  0.6765 -0.0776
  154SAPE   O3217115  -0.033   0.848  10.384 -0.3333 -0.4837  0.0576
  154SAPE   C3217116   0.074   0.950  10.185 -0.1301  0.6135  0.1373
  154SAPE   H2X17117   0.137   1.041  10.191  0.0545  0.3904  1.9777
  154SAPE   H2Y17118  -0.029   0.992  10.184  0.8236  3.0655  0.8643
  154SAPE   C2317119   0.435   0.364  10.299 -0.5585  0.8492 -0.6001
  154SAPE   H3R17120   0.358   0.292  10.333  0.7341  0.2989  1.1874
  154SAPE   H3S17121   0.501   0.381  10.386 -1.4788  0.9261  0.0818
  154SAPE   C2417122   0.516   0.300  10.188  0.7570  0.1828  0.4570
  154SAPE   H4R17123   0.451   0.275  10.101  1.1200 -0.9140  0.4947
  154SAPE   H4S17124   0.574   0.211  10.220  1.2878 -0.1748 -1.4549
  154SAPE   C2517125   0.627   0.396  10.146  0.1211  0.7887 -0.6466
  154SAPE   H5R17126   0.705   0.398  10.224 -2.1355  2.0954  1.6628
  154SAPE   C2617127   0.650   0.456  10.031  0.0072 -0.2743  0.6346
  154SAPE   H6R17128   0.732   0.528  10.039 -0.7114  1.0084 -2.5980
  154SAPE   C2717129   0.563   0.459   9.903 -0.1648 -0.0527  0.0939
  154SAPE   H7R17130   0.462   0.424   9.933  0.2773  0.0069  1.6907
  154SAPE   H7S17131   0.603   0.387   9.829 -1.8993  1.0571 -1.9976
  154SAPE   C2817132   0.552   0.604   9.854 -0.3792 -0.0470  0.3064
  154SAPE   H8R17133   0.556   0.678   9.935 -2.7761  0.1457  0.2831
  154SAPE   C2917134   0.546   0.643   9.725  0.7405  0.1221 -0.7916
  154SAPE   H9R17135   0.540   0.749   9.694  0.6356  0.1188 -0.7814
  154SAPE  C21017136   0.540   0.547   9.606 -0.4870  0.7462  0.7919
  154SAPE  H10R17137   0.450   0.577   9.547  0.5166  0.6054 -0.8606
  154SAPE  H10S17138   0.518   0.444   9.641  1.6695  0.0492  0.1717
  154SAPE  C21117139   0.655   0.534   9.510  0.3358  0.2286 -0.0143
  154SAPE  H11R17140   0.748   0.548   9.567  1.2651  1.3871 -1.7446
  154SAPE  C21217141   0.657   0.502   9.375 -0.2253 -0.2251  0.0082
  154SAPE  H12R17142   0.757   0.502   9.329  0.7241  0.8497  2.0094
  154SAPE  C21317143   0.536   0.468   9.287 -0.4760  0.4862 -0.3131
  154SAPE  H13R17144   0.499   0.565   9.249 -0.8884 -0.0776 -1.4042
  154SAPE  H13S17145   0.449   0.426   9.343  0.5669 -0.4908  0.6069
  154SAPE  C21417146   0.554   0.376   9.168 -0.5153 -0.3178  0.5198
  154SAPE  H14R17147   0.553   0.272   9.203 -1.2913 -0.9140 -1.1982
  154SAPE  C21517148   0.585   0.418   9.040 -0.2011 -0.6976  0.1959
  154SAPE  H15R17149   0.585   0.347   8.956 -0.4067 -0.6192  0.1324
  154SAPE  C21617150   0.603   0.563   8.998  0.0918 -0.2620 -0.0002
  154SAPE  H16R17151   0.668   0.621   9.068  3.2564 -1.7971 -1.5262
  154SAPE  H16S17152   0.500   0.602   8.990  1.1888  2.4367 -2.0640
  154SAPE  C21717153   0.677   0.586   8.866 -0.4388 -0.8550  0.1663
  154SAPE  H17R17154   0.668   0.696   8.850  1.8340 -0.4902  1.2445
  154SAPE  H17S17155   0.627   0.539   8.778 -2.6101  1.0828  0.3062
  154SAPE  C21817156   0.834   0.578   8.871  0.0381  1.0274 -0.4254
  154SAPE  H18R17157   0.867   0.485   8.921  0.1397  0.6788 -1.1245
  154SAPE  H18S17158   0.874   0.661   8.933  0.4770  1.2297 -0.9704
  154SAPE  C21917159   0.903   0.594   8.729  0.2260  0.3941  0.0302
  154SAPE  H19R17160   0.842   0.673   8.679  0.4800  1.4262  1.3333
  154SAPE  H19S17161   0.879   0.501   8.673  0.4642  1.8107 -2.5005
  154SAPE  C22017162   1.051   0.613   8.724  0.2559 -0.1028 -0.3367
  154SAPE  H20R17163   1.077   0.607   8.616 -3.0275 -0.4515 -1.1886
  154SAPE  H20S17164   1.095   0.533   8.787 -1.4922  1.7548  3.4072
  154SAPE  H20T17165   1.088   0.708   8.766 -0.6172  0.2468 -0.3430
  154SAPE   C3317166   0.093   0.845  10.072  0.1899  0.0756  0.3401
  154SAPE   H3X17167   0.020   0.762  10.086  3.4363 -2.4425  3.3215
  154SAPE   H3Y17168   0.194   0.806  10.093 -0.7888 -2.4978  0.4747
  154SAPE   C3417169   0.079   0.880   9.927 -0.2911 -0.1896  0.7171
  154SAPE   H4X17170   0.167   0.936   9.889 -1.4756  1.2187 -0.0079
  154SAPE   H4Y17171  -0.018   0.931   9.909  1.7798  4.0668  0.9950
  154SAPE   C3517172   0.078   0.758   9.831  0.1367  0.0633 -0.3400
  154SAPE   H5X17173  -0.009   0.692   9.847 -0.6876  1.5437  1.5530
  154SAPE   H5Y17174   0.175   0.706   9.847  0.9366  1.7704  0.5797
  154SAPE   C3617175   0.071   0.798   9.684 -0.0470 -0.3016  0.1438
  154SAPE   H6X17176   0.178   0.792   9.655  0.2356  2.9015  0.3622
  154SAPE   H6Y17177   0.043   0.905   9.677 -0.5754 -0.2983  1.9375
  154SAPE   C3717178  -0.031   0.725   9.597 -0.3206  0.1576  0.3701
  154SAPE   H7X17179  -0.135   0.744   9.631 -0.4282  0.8784 -0.3544
  154SAPE   H7Y17180  -0.010   0.616   9.594  1.8453  0.5863 -2.3912
  154SAPE   C3817181  -0.040   0.767   9.449  0.9144 -0.6224  0.1485
  154SAPE   H8X17182   0.059   0.774   9.399  1.5550 -1.6865  1.2603
  154SAPE   H8Y17183  -0.093   0.864   9.442 -1.8338 -1.9875  1.2675
  154SAPE   C3917184  -0.131   0.675   9.367 -0.1777  0.5452 -0.1284
  154SAPE   H9X17185  -0.240   0.680   9.389  0.2128  0.8627  1.8159
  154SAPE   H9Y17186  -0.092   0.572   9.380 -0.1130  0.7038  0.9201
  154SAPE  C31017187  -0.103   0.697   9.218  0.2432 -0.4392  0.5877
  154SAPE  H10X17188   0.005   0.690   9.194 -0.6506 -1.2603 -3.6107
  154SAPE  H10Y17189  -0.145   0.796   9.191 -0.1194 -0.6455  0.3871
  154SAPE  C31117190  -0.172   0.599   9.129  0.3711  0.1203 -1.1767
  154SAPE  H11X17191  -0.268   0.568   9.176  0.5786  1.8249  0.4261
  154SAPE  H11Y17192  -0.109   0.507   9.127 -1.0570 -0.9654  1.3159
  154SAPE  C31217193  -0.200   0.630   8.984  1.3654 -0.2378  0.4141
  154SAPE  H12X17194  -0.257   0.547   8.937  2.0227 -0.8990  0.7691
  154SAPE  H12Y17195  -0.107   0.654   8.929  1.2651  1.6588  1.0352
  154SAPE  C31317196  -0.297   0.744   8.987  0.2236 -0.0059  1.2124
  154SAPE  H13X17197  -0.239   0.838   8.998  1.5980 -0.7357  0.3080
  154SAPE  H13Y17198  -0.379   0.729   9.060  0.6942  2.0849  2.2051
  154SAPE  C31417199  -0.371   0.766   8.850 -0.4511 -0.6617  0.1532
  154SAPE  H14X17200  -0.398   0.668   8.805 -0.5047 -0.5012 -0.1663
  154SAPE  H14Y17201  -0.300   0.815   8.779  0.6912 -1.7559  0.5191
  154SAPE  C31517202  -0.509   0.835   8.880 -0.8196  0.1580  0.0928
  154SAPE  H15X17203  -0.477   0.926   8.935  1.0444 -1.2330  1.3466
  154SAPE  H15Y17204  -0.564   0.772   8.953  0.8631  0.4004  1.6033
  154SAPE  C31617205  -0.585   0.868   8.756  0.0171  0.5461 -0.4386
  154SAPE  H16X17206  -0.614   0.772   8.707 -1.0008  1.7815 -2.2956
  154SAPE  H16Y17207  -0.515   0.922   8.689  1.2317  0.2486  0.5676
  154SAPE  C31717208  -0.704   0.955   8.794  0.7074 -0.2004  0.0528
  154SAPE  H17X17209  -0.670   1.029   8.870  1.7646  1.3927 -1.9264
  154SAPE  H17Y17210  -0.775   0.890   8.849 -2.4731  2.3042 -0.9180
  154SAPE  C31817211  -0.774   1.024   8.679 -0.8932 -1.7355 -0.2232
  154SAPE  H18X17212  -0.870   1.076   8.701 -0.2559 -1.1504  1.2538
  154SAPE  H18Y17213  -0.795   0.954   8.595  0.7088 -1.6110 -0.7436
  154SAPE  H18Z17214  -0.703   1.105   8.651 -1.3748 -0.8638  0.9960
  155SAPE     N17215   1.245   1.425  10.911 -0.4540  0.0687  0.4736
  155SAPE   HN117216   1.176   1.348  10.922  1.8335 -1.9450  1.2833
  155SAPE   HN217217   1.225   1.491  10.834  1.8179  0.7642  0.4288
  155SAPE   HN317218   1.337   1.376  10.902 -0.7534 -0.1306 -1.5510
  155SAPE   C1217219   1.247   1.497  11.042 -0.5840 -0.1060 -0.3942
  155SAPE  H12A17220   1.297   1.432  11.118  1.1605 -0.1853 -1.5783
  155SAPE  H12B17221   1.146   1.512  11.087 -0.0146  1.7317  0.3392
  155SAPE   C1117222   1.336   1.624  11.026 -0.0225  0.0224  0.1924
  155SAPE  H11A17223   1.443   1.597  11.014  0.1237 -0.0530  1.5593
  155SAPE  H11B17224   1.330   1.691  11.115  1.0613  1.2439 -0.6497
  155SAPE     P17225   1.402   1.786  10.812  0.2095  0.0263  0.0875
  155SAPE   O1317226   1.388   1.934  10.828  0.3668  0.6423  0.0611
  155SAPE   O1417227   1.538   1.731  10.835 -0.0264 -0.0983  0.1341
  155SAPE   O1217228   1.293   1.709  10.909  0.4390 -0.6441  0.2107
  155SAPE   O1117229   1.365   1.736  10.671 -0.6697  0.0733 -0.8234
  155SAPE    C117230   1.233   1.714  10.618  0.7388 -0.2011 -0.5082
  155SAPE    HA17231   1.180   1.623  10.654 -0.8039  0.7730 -0.2705
  155SAPE    HB17232   1.164   1.799  10.635 -0.8897 -2.0194  2.3460
  155SAPE    C217233   1.240   1.700  10.464  0.0735  0.0148 -0.0719
  155SAPE    HS17234   1.314   1.617  10.454 -0.3254 -0.4835  0.9816
  155SAPE   O2117235   1.274   1.823  10.401  0.4439 -0.3251  0.2829
  155SAPE   C2117236   1.398   1.833  10.363  0.2632  0.7891 -0.0976
  155SAPE   O2217237   1.494   1.763  10.387  0.0736  0.2588  0.2121
  155SAPE   C2217238   1.413   1.962  10.289  0.3505 -1.0733 -0.3040
  155SAPE   H2R17239   1.350   2.035  10.345 -2.0868 -1.9819 -1.7554
  155SAPE   H2S17240   1.521   1.986  10.300  0.0567 -0.0118  0.2889
  155SAPE    C317241   1.099   1.654  10.425  0.2409 -0.7202 -0.1634
  155SAPE    HX17242   1.021   1.730  10.446 -1.5202 -2.0899 -1.6292
  155SAPE    HY17243   1.074   1.565  10.487 -1.0832 -0.1651  0.1243
  155SAPE   O3117244   1.097   1.612  10.288  0.0750  0.9451 -0.6828
  155SAPE   C3117245   1.169   1.503  10.253 -0.2654  0.1031 -0.7373
  155SAPE   O3217246   1.220   1.425  10.334 -0.0241  0.6901  0.7178
  155SAPE   C3217247   1.169   1.499  10.102  0.1125  0.1352  0.6539
  155SAPE   H2X17248   1.131   1.594  10.060 -0.3081 -0.8256 -1.1932
  155SAPE   H2Y17249   1.105   1.414  10.070  2.2474 -1.4170  0.3343
  155SAPE   C2317250   1.393   1.944  10.141 -0.0115  0.5340  1.4634
  155SAPE   H3R17251   1.386   2.043  10.091  1.0902  1.1237  2.4603
  155SAPE   H3S17252   1.292   1.899  10.129  0.0043  1.1657 -1.3941
  155SAPE   C2417253   1.497   1.844  10.075  0.0313 -0.4549  0.0107
  155SAPE   H4R17254   1.459   1.801   9.980  1.1995 -2.3085  0.3528
  155SAPE   H4S17255   1.505   1.751  10.135  0.8443 -1.5043 -1.6907
  155SAPE   C2517256   1.630   1.907  10.046  0.5815  0.6603 -0.1600
  155SAPE   H5R17257   1.702   1.893  10.128  1.1087  1.3153 -0.5088
  155SAPE   C2617258   1.667   1.969   9.935 -0.1692 -0.5289  0.1768
  155SAPE   H6R17259   1.770   2.007   9.934 -0.2655 -0.1130  2.2122
  155SAPE   C2717260   1.590   1.995   9.803 -0.0694 -0.2207 -0.9013
  155SAPE   H7R17261   1.625   2.091   9.759 -3.0714  1.2732 -0.1631
  155SAPE   H7S17262   1.480   2.008   9.816 -0.2255 -1.8957 -0.4617
  155SAPE   C2817263   1.617   1.879   9.715 -0.5446 -0.5640 -0.6871
  155SAPE   H8R17264   1.694   1.811   9.755  0.3730  1.1188  0.4509
  155SAPE   C2917265   1.559   1.859   9.597 -0.7289  0.1088 -0.0777
  155SAPE   H9R17266   1.597   1.777   9.533 -2.7533 -1.1269  0.2595
  155SAPE  C21017267   1.455   1.945   9.541 -0.3857  0.2528 -0.1503
  155SAPE  H10R17268   1.420   2.036   9.595 -1.9181  0.2691 -1.1550
  155SAPE  H10S17269   1.368   1.882   9.514 -0.3358  0.4322 -0.7422
  155SAPE  C21117270   1.520   2.003   9.419  0.0935 -0.1907  0.5523
  155SAPE  H11R17271   1.629   2.018   9.423  0.1683 -0.7201  0.4668
  155SAPE  C21217272   1.458   2.026   9.298 -0.1329  0.0646 -0.8322
  155SAPE  H12R17273   1.518   2.072   9.218 -0.2414  0.7753 -0.4978
  155SAPE  C21317274   1.315   2.003   9.252 -0.3313 -0.5705  0.2520
  155SAPE  H13R17275   1.247   2.053   9.324 -1.5927 -1.4612 -0.2985
  155SAPE  H13S17276   1.283   1.898   9.265  1.3150 -0.8756  2.0326
  155SAPE  C21417277   1.269   2.049   9.114 -0.0009  0.0905  0.2255
  155SAPE  H14R17278   1.191   2.127   9.105  0.2625  0.0317 -3.1655
  155SAPE  C21517279   1.327   2.018   8.993  0.1982  1.1369 -0.4495
  155SAPE  H15R17280   1.291   2.062   8.899  0.8937  2.6190 -0.0384
  155SAPE  C21617281   1.450   1.928   8.978  0.0119 -0.0460 -0.8941
  155SAPE  H16R17282   1.427   1.833   9.031 -1.9036 -0.0161 -1.6306
  155SAPE  H16S17283   1.536   1.977   9.030  0.4054 -1.1167 -0.5088
  155SAPE  C21717284   1.501   1.892   8.833  0.1665 -0.2706  0.4867
  155SAPE  H17R17285   1.513   1.989   8.781  1.7477 -1.0864 -0.7425
  155SAPE  H17S17286   1.412   1.854   8.779 -0.5676  0.3772  1.2251
  155SAPE  C21817287   1.617   1.795   8.828 -0.2440 -0.1505 -0.0065
  155SAPE  H18R17288   1.577   1.697   8.864  1.1845 -0.7513 -0.0292
  155SAPE  H18S17289   1.688   1.820   8.909 -2.6876  2.4898  1.4103
  155SAPE  C21917290   1.713   1.809   8.708 -0.4797  0.5175  0.6744
  155SAPE  H19R17291   1.809   1.763   8.740 -0.4171  1.2392  1.5332
  155SAPE  H19S17292   1.731   1.915   8.683 -0.1611  0.1598 -0.6901
  155SAPE  C22017293   1.660   1.739   8.579 -0.0848 -0.3293 -0.1818
  155SAPE  H20R17294   1.680   1.630   8.577 -0.0542 -0.3042 -1.1694
  155SAPE  H20S17295   1.717   1.766   8.487 -0.4467 -0.1165 -0.3422
  155SAPE  H20T17296   1.552   1.760   8.572 -0.0653 -0.7409 -1.7713
  155SAPE   C3317297   1.302   1.472  10.023 -0.3517 -0.3560  0.5944
  155SAPE   H3X17298   1.338   1.375  10.063  1.8093  0.2051  0.1080
  155SAPE   H3Y17299   1.384   1.547  10.035 -1.3508  1.3415 -2.6349
  155SAPE   C3417300   1.272   1.462   9.873  0.5507  0.1855 -0.7310
  155SAPE   H4X17301   1.246   1.564   9.835  1.2395  0.6880  0.1196
  155SAPE   H4Y17302   1.183   1.396   9.872 -0.3238  1.3059  1.0866
  155SAPE   C3517303   1.389   1.413   9.793 -0.0326 -0.4373  0.0475
  155SAPE   H5X17304   1.416   1.314   9.836  1.6228  0.1417  0.3499
  155SAPE   H5Y17305   1.478   1.478   9.798 -0.3033 -0.1787  1.8068
  155SAPE   C3617306   1.366   1.409   9.639  0.6983 -0.3032  0.7932
  155SAPE   H6X17307   1.267   1.367   9.611  1.4964 -0.3687 -2.0881
  155SAPE   H6Y17308   1.449   1.348   9.597  1.1429 -0.6769  2.2103
  155SAPE   C3717309   1.366   1.547   9.583 -0.1620  0.0399 -0.1353
  155SAPE   H7X17310   1.450   1.612   9.615 -1.6695  2.0716 -0.1545
  155SAPE   H7Y17311   1.271   1.602   9.599  0.5665  1.4164 -0.3890
  155SAPE   C3817312   1.382   1.554   9.425  0.4919  0.1749  0.0262
  155SAPE   H8X17313   1.440   1.469   9.384 -2.1284 -0.9316 -1.5607
  155SAPE   H8Y17314   1.437   1.650   9.411 -0.6142  1.1185  1.9465
  155SAPE   C3917315   1.251   1.536   9.355  0.9266  0.3445  0.4255
  155SAPE   H9X17316   1.202   1.635   9.363  0.1607  0.2254 -2.1705
  155SAPE   H9Y17317   1.193   1.459   9.410  2.3021 -0.5541  0.6447
  155SAPE  C31017318   1.274   1.495   9.206  0.7789  0.4591  0.2485
  155SAPE  H10X17319   1.320   1.394   9.205 -3.4090 -1.5335 -1.4514
  155SAPE  H10Y17320   1.337   1.562   9.144  2.9018 -0.4057  1.4276
  155SAPE  C31117321   1.142   1.483   9.123 -0.3679 -0.2546  0.2642
  155SAPE  H11X17322   1.058   1.433   9.176 -0.4982  1.4934  1.7337
  155SAPE  H11Y17323   1.167   1.437   9.025 -0.2934  2.0816 -0.8615
  155SAPE  C31217324   1.084   1.619   9.089  0.5269  0.7862  0.6531
  155SAPE  H12X17325   1.147   1.687   9.028 -1.7137  1.1293 -1.3296
  155SAPE  H12Y17326   1.064   1.670   9.186  0.8659  0.8314  0.6993
  155SAPE  C31317327   0.952   1.604   9.016  0.0275  0.7351 -0.5340
  155SAPE  H13X17328   0.906   1.705   9.017  1.4587  1.4042 -0.0946
  155SAPE  H13Y17329   0.881   1.529   9.057  0.1297  0.6094 -0.5843
  155SAPE  C31417330   0.980   1.578   8.865 -0.0285  0.0780  0.2819
  155SAPE  H14X17331   1.012   1.473   8.850  0.9406  0.0267  2.5096
  155SAPE  H14Y17332   1.060   1.645   8.827  1.9335 -1.6597  1.2817
  155SAPE  C31517333   0.857   1.586   8.773  0.2495  0.2658  0.3477
  155SAPE  H15X17334   0.791   1.659   8.824  0.9182  1.3614 -0.3407
  155SAPE  H15Y17335   0.794   1.495   8.782  1.7072 -0.6906  1.1501
  155SAPE  C31617336   0.887   1.612   8.615  0.2549 -0.2959  0.2565
  155SAPE  H16X17337   0.959   1.696   8.609  1.2039 -0.9264  2.5475
  155SAPE  H16Y17338   0.794   1.647   8.565  0.8731 -0.3387 -0.9487
  155SAPE  C31717339   0.948   1.492   8.538  0.0988 -0.8322  0.3904
  155SAPE  H17X17340   0.900   1.396   8.564 -0.6153 -0.6910 -0.3798
  155SAPE  H17Y17341   1.051   1.476   8.576  0.2586 -0.2042  0.2227
  155SAPE  C31817342   0.939   1.514   8.391 -0.2485  0.1006  0.1436
  155SAPE  H18X17343   1.006   1.456   8.324 -0.5272  0.2307 -0.2558
  155SAPE  H18Y17344   0.956   1.621   8.364 -3.3611  0.7684  0.5931
  155SAPE  H18Z17345   0.839   1.478   8.356 -1.4893  1.9638  1.6536
  156SAPE     N17346   5.363   5.910  10.569  0.0448  0.0307 -0.2721
  156SAPE   HN117347   5.368   5.968  10.655 -3.4234 -0.2637  0.1909
  156SAPE   HN217348   5.385   5.809  10.579 -1.4684 -0.3388 -0.5852
  156SAPE   HN317349   5.444   5.942  10.511 -0.4860 -0.4820 -1.3206
  156SAPE   C1217350   5.228   5.928  10.501  0.4903 -0.1027  0.2271
  156SAPE  H12A17351   5.136   5.890  10.551  0.0287  0.6796 -0.0105
  156SAPE  H12B17352   5.237   5.889  10.397  0.0564 -0.2170  0.2345
  156SAPE   C1117353   5.205   6.070  10.454 -0.0736  0.3543 -0.2739
  156SAPE  H11A17354   5.108   6.073  10.402 -0.4787  0.8446  0.4952
  156SAPE  H11B17355   5.289   6.098  10.387 -0.6480 -0.5326 -1.3835
  156SAPE     P17356   5.115   6.282  10.575  0.2062 -0.3444  0.1694
  156SAPE   O1317357   5.017   6.248  10.681 -0.0999  0.4127  0.5285
  156SAPE   O1417358   5.203   6.401  10.590 -0.1445 -0.6837  0.2902
  156SAPE   O1217359   5.217   6.160  10.562  0.2252  0.1557  0.1880
  156SAPE   O1117360   5.038   6.291  10.433  0.3775  0.1259 -0.8727
  156SAPE    C117361   5.053   6.407  10.349 -0.0607 -0.2457  0.5035
  156SAPE    HA17362   4.971   6.402  10.274  0.0939 -0.4720  0.3469
  156SAPE    HB17363   5.042   6.496  10.414  1.4538  0.6649 -0.4508
  156SAPE    C217364   5.180   6.403  10.260  0.0266  0.1455 -0.1850
  156SAPE    HS17365   5.159   6.478  10.180 -1.0977 -1.6730 -1.6538
  156SAPE   O2117366   5.195   6.273  10.202 -0.8474  0.5097  0.3462
  156SAPE   C2117367   5.095   6.220  10.119 -0.3652 -0.1484 -0.3562
  156SAPE   O2217368   4.998   6.278  10.082  0.0092  0.1460  0.2825
  156SAPE   C2217369   5.134   6.083  10.084 -0.0580  0.0242  0.1400
  156SAPE   H2R17370   5.224   6.088  10.019 -0.4235 -0.7910 -0.4255
  156SAPE   H2S17371   5.153   6.012  10.167  0.8222 -1.3389 -1.2056
  156SAPE    C317372   5.314   6.437  10.324 -0.3194  0.0681  0.3008
  156SAPE    HX17373   5.339   6.356  10.396 -0.7179  0.8014  1.2730
  156SAPE    HY17374   5.302   6.525  10.391  0.3847  1.2504 -1.1131
  156SAPE   O3117375   5.425   6.438  10.226 -0.0151 -0.3567  0.2852
  156SAPE   C3117376   5.450   6.558  10.166  0.0023  0.2806 -1.0194
  156SAPE   O3217377   5.373   6.658  10.174 -0.2493  0.4280 -0.2270
  156SAPE   C3217378   5.581   6.560  10.086 -0.1191 -0.2169 -0.6234
  156SAPE   H2X17379   5.627   6.461  10.067 -1.3905 -1.2963  1.7568
  156SAPE   H2Y17380   5.643   6.615  10.160 -2.1252  0.0551  0.9033
  156SAPE   C2317381   5.011   6.026  10.009  0.2835  0.2833  0.0708
  156SAPE   H3R17382   4.958   6.097   9.942  1.2696  1.9581  1.0400
  156SAPE   H3S17383   4.935   5.996  10.085 -0.8089  0.9120 -0.7484
  156SAPE   C2417384   5.031   5.891   9.926  0.6377  0.5326 -0.0296
  156SAPE   H4R17385   5.076   5.826  10.004 -0.0035  2.2178  1.7793
  156SAPE   H4S17386   5.106   5.906   9.844 -1.0840  1.9478 -1.3921
  156SAPE   C2517387   4.903   5.827   9.870 -0.5563 -0.0500 -0.5949
  156SAPE   H5R17388   4.826   5.821   9.948  0.6544  1.0246  0.7333
  156SAPE   C2617389   4.889   5.796   9.744 -0.2884  1.1194  0.0797
  156SAPE   H6R17390   4.793   5.751   9.713 -0.3279 -0.8105  2.7689
  156SAPE   C2717391   4.996   5.805   9.639  0.2758 -0.6585  0.4541
  156SAPE   H7R17392   5.096   5.787   9.682  0.5445  1.8025  0.9037
  156SAPE   H7S17393   4.992   5.913   9.614 -0.6829 -0.7561  0.1550
  156SAPE   C2817394   4.968   5.712   9.523 -0.3570 -0.3549 -0.5206
  156SAPE   H8R17395   4.991   5.605   9.533 -0.5341 -0.3928 -0.5130
  156SAPE   C2917396   4.945   5.751   9.396 -0.7813 -0.5463 -0.2205
  156SAPE   H9R17397   4.913   5.673   9.324 -0.5487 -1.2509  0.4276
  156SAPE  C21017398   4.927   5.894   9.350 -0.5052 -0.2000 -0.3461
  156SAPE  H10R17399   4.998   5.962   9.401 -1.3095 -0.1847  0.7834
  156SAPE  H10S17400   4.831   5.934   9.392 -0.8087 -2.1343  0.8780
  156SAPE  C21117401   4.935   5.913   9.194  0.2020  0.8483 -0.1212
  156SAPE  H11R17402   4.852   5.866   9.138  0.6199  0.8832 -0.7744
  156SAPE  C21217403   5.034   5.973   9.125 -0.3878  0.5113 -0.0607
  156SAPE  H12R17404   5.019   5.994   9.018  0.3791 -1.5456 -0.5928
  156SAPE  C21317405   5.151   6.037   9.187 -0.5654  0.4252 -0.6365
  156SAPE  H13R17406   5.231   5.960   9.197 -0.9386  0.3438  1.9158
  156SAPE  H13S17407   5.134   6.070   9.292 -0.0128 -0.8908 -0.1241
  156SAPE  C21417408   5.190   6.151   9.095  0.1458 -0.3177 -1.0595
  156SAPE  H14R17409   5.243   6.117   9.004  2.1228 -1.4789  0.4959
  156SAPE  C21517410   5.160   6.284   9.099 -0.2851  0.1885  0.3414
  156SAPE  H15R17411   5.202   6.350   9.021 -1.2543  0.1243 -0.2448
  156SAPE  C21617412   5.082   6.349   9.214 -0.2744  0.1235  0.2215
  156SAPE  H16R17413   5.031   6.265   9.266  1.0671 -1.3053 -0.7267
  156SAPE  H16S17414   5.003   6.416   9.175 -1.4035 -1.3524 -0.0838
  156SAPE  C21717415   5.172   6.423   9.314  0.4185 -0.4248  0.2057
  156SAPE  H17R17416   5.223   6.518   9.286  0.5021  0.1411  2.2202
  156SAPE  H17S17417   5.264   6.362   9.325 -0.0362 -1.2534 -0.5301
  156SAPE  C21817418   5.087   6.437   9.443 -0.3023  0.0369  0.3392
  156SAPE  H18R17419   5.028   6.344   9.461 -2.3994  1.0006 -1.3382
  156SAPE  H18S17420   5.018   6.519   9.415  1.4057  0.5129 -2.7532
  156SAPE  C21917421   5.168   6.461   9.560 -0.1305  0.7409  0.5832
  156SAPE  H19R17422   5.102   6.480   9.647 -1.8578  1.3805 -0.8324
  156SAPE  H19S17423   5.244   6.541   9.547  2.5042 -1.7611  0.1239
  156SAPE  C22017424   5.240   6.330   9.613  0.1998 -0.2378 -0.2472
  156SAPE  H20R17425   5.328   6.295   9.555  0.8982 -0.8539  1.1629
  156SAPE  H20S17426   5.164   6.250   9.625 -2.2254  2.2145  1.4467
  156SAPE  H20T17427   5.279   6.354   9.714 -0.8800  2.1755 -0.3695
  156SAPE   C3317428   5.570   6.640   9.954 -0.3835  0.4910  0.1435
  156SAPE   H3X17429   5.668   6.661   9.907 -1.0266  0.9497 -0.9943
  156SAPE   H3Y17430   5.527   6.742   9.965  1.5935  1.5700 -1.8317
  156SAPE   C3417431   5.482   6.566   9.853  0.0450  1.0378 -1.0416
  156SAPE   H4X17432   5.375   6.576   9.881  0.0588 -0.0212 -0.6023
  156SAPE   H4Y17433   5.504   6.457   9.852  0.0408  1.0344 -0.7367
  156SAPE   C3517434   5.504   6.618   9.716 -0.2015 -0.7317 -0.0568
  156SAPE   H5X17435   5.504   6.729   9.723 -0.7996 -0.6120 -1.6138
  156SAPE   H5Y17436   5.414   6.599   9.654 -0.0376  1.7739 -1.1534
  156SAPE   C3617437   5.637   6.590   9.643  0.2445  0.6079  0.6174
  156SAPE   H6X17438   5.640   6.479   9.652 -4.8537  0.2038 -0.7793
  156SAPE   H6Y17439   5.719   6.644   9.694  2.3148 -0.0199 -1.9484
  156SAPE   C3717440   5.632   6.628   9.498 -0.2989 -0.2462  0.0400
  156SAPE   H7X17441   5.736   6.636   9.462 -0.4160  1.2478  0.0283
  156SAPE   H7Y17442   5.571   6.719   9.481 -1.6507 -1.2833 -0.8509
  156SAPE   C3817443   5.568   6.508   9.430  0.0171 -0.3486  0.5306
  156SAPE   H8X17444   5.466   6.490   9.471 -0.9610  1.5589 -0.9138
  156SAPE   H8Y17445   5.634   6.423   9.454  1.7463  1.3824  2.0012
  156SAPE   C3917446   5.567   6.523   9.278 -0.1084  0.0015 -0.6657
  156SAPE   H9X17447   5.531   6.626   9.258 -1.5988 -0.2651  0.4826
  156SAPE   H9Y17448   5.503   6.440   9.240  2.2368 -1.7140 -0.9686
  156SAPE  C31017449   5.709   6.511   9.214  0.1718 -0.2125 -0.0721
  156SAPE  H10X17450   5.772   6.443   9.276 -0.1664 -2.3058 -1.9550
  156SAPE  H10Y17451   5.754   6.612   9.228 -0.1760  0.1539 -1.4903
  156SAPE  C31117452   5.701   6.475   9.066  0.2135  0.1858 -0.3346
  156SAPE  H11X17453   5.665   6.562   9.008 -0.2060  0.8103  0.8424
  156SAPE  H11Y17454   5.623   6.397   9.049 -0.2418 -0.3338  3.7129
  156SAPE  C31217455   5.827   6.423   8.984  0.7250 -0.4159 -0.2630
  156SAPE  H12X17456   5.859   6.329   9.033  0.6623 -0.3488 -0.0913
  156SAPE  H12Y17457   5.898   6.508   8.986 -0.9182  0.9788 -0.3065
  156SAPE  C31317458   5.797   6.378   8.841 -0.3460 -0.3132 -0.8128
  156SAPE  H13X17459   5.751   6.461   8.784 -2.1325 -0.3483  0.5548
  156SAPE  H13Y17460   5.733   6.288   8.837 -0.1990 -0.4325 -0.5420
  156SAPE  C31417461   5.926   6.332   8.776  0.1160  0.1128 -0.1681
  156SAPE  H14X17462   5.970   6.247   8.832 -0.3371 -0.2397 -0.3334
  156SAPE  H14Y17463   6.004   6.409   8.764 -0.7609  1.6234  3.1866
  156SAPE  C31517464   5.895   6.266   8.638  0.0537  0.9177  0.3379
  156SAPE  H15X17465   5.817   6.187   8.641  0.5249  0.1833 -3.5623
  156SAPE  H15Y17466   5.991   6.216   8.612 -0.2686  1.4574 -1.9970
  156SAPE  C31617467   5.838   6.366   8.533 -0.0766 -0.2627  0.0688
  156SAPE  H16X17468   5.909   6.450   8.515 -1.8144  1.2667  0.2674
  156SAPE  H16Y17469   5.743   6.403   8.577 -2.0790 -0.5547 -3.8154
  156SAPE  C31717470   5.809   6.298   8.401  0.3849  0.2928 -0.3703
  156SAPE  H17X17471   5.741   6.362   8.340 -1.0122  0.3158  1.1744
  156SAPE  H17Y17472   5.750   6.206   8.418  0.4074  0.2885 -0.3130
  156SAPE  C31817473   5.934   6.283   8.315  0.4625  0.0397  0.3330
  156SAPE  H18X17474   5.996   6.374   8.329 -0.4211  0.8963 -1.1546
  156SAPE  H18Y17475   5.900   6.274   8.209 -1.3123  1.8186  0.7266
  156SAPE  H18Z17476   5.993   6.193   8.343  1.3653  0.2370 -0.8826
  157SAPE     N17477   4.308   5.772  10.607  0.4122  0.2478 -0.0312
  157SAPE   HN117478   4.313   5.847  10.535  0.4513 -1.5495 -1.9478
  157SAPE   HN217479   4.365   5.696  10.566  0.4009 -0.6742  1.6054
  157SAPE   HN317480   4.211   5.736  10.602  0.8860 -0.8264 -1.7183
  157SAPE   C1217481   4.359   5.813  10.740 -0.4714  0.6190  0.5255
  157SAPE  H12A17482   4.394   5.714  10.776 -0.4188  1.4847  2.9118
  157SAPE  H12B17483   4.281   5.846  10.812 -0.5525 -3.1522  2.3034
  157SAPE   C1117484   4.476   5.911  10.722 -0.3054 -0.3351 -0.1675
  157SAPE  H11A17485   4.550   5.878  10.646  0.5021  2.3925 -0.6304
  157SAPE  H11B17486   4.541   5.915  10.812  0.8378  1.3322 -1.0327
  157SAPE     P17487   4.461   6.159  10.758 -0.2223 -0.4673  0.0708
  157SAPE   O1317488   4.406   6.150  10.891 -0.2854 -0.5332 -0.1384
  157SAPE   O1417489   4.607   6.158  10.753 -0.1045 -0.5897 -0.1010
  157SAPE   O1217490   4.415   6.033  10.676 -0.2155  0.0472 -0.2383
  157SAPE   O1117491   4.403   6.278  10.678  0.3711 -0.0953  0.2218
  157SAPE    C117492   4.264   6.279  10.637  0.1271 -0.1596 -0.9804
  157SAPE    HA17493   4.202   6.206  10.693  1.3550 -1.5349 -1.3420
  157SAPE    HB17494   4.228   6.382  10.656  0.0029 -0.6066  1.2981
  157SAPE    C217495   4.256   6.240  10.480  0.4367  0.2117  0.1476
  157SAPE    HS17496   4.341   6.171  10.463  0.5419 -0.0137  1.5228
  157SAPE   O2117497   4.273   6.362  10.409  0.3357 -0.5658  0.1187
  157SAPE   C2117498   4.335   6.348  10.293  0.5453  0.4135 -0.2904
  157SAPE   O2217499   4.406   6.258  10.257  0.3435 -0.6026 -0.6742
  157SAPE   C2217500   4.313   6.474  10.203  0.1034  0.0120 -0.7208
  157SAPE   H2R17501   4.205   6.498  10.213  0.5631  1.5885  0.5156
  157SAPE   H2S17502   4.374   6.559  10.241  2.1701 -0.4440 -2.8787
  157SAPE    C317503   4.124   6.170  10.444 -0.0518  0.5260  0.1291
  157SAPE    HX17504   4.040   6.243  10.437 -0.8705 -0.3902  0.2371
  157SAPE    HY17505   4.090   6.091  10.514  1.0724 -0.7821 -0.7705
  157SAPE   O3117506   4.143   6.107  10.307  0.2094  0.1956 -0.4586
  157SAPE   C3117507   4.193   5.987  10.310  0.0082  0.2609  0.2506
  157SAPE   O3217508   4.233   5.922  10.405  0.1087 -0.4417  0.4469
  157SAPE   C3217509   4.206   5.935  10.163 -0.3894 -0.0627  0.0211
  157SAPE   H2X17510   4.178   5.828  10.166 -1.9835  0.3364  0.0854
  157SAPE   H2Y17511   4.314   5.945  10.142 -0.8295  2.7027 -1.1640
  157SAPE   C2317512   4.345   6.449  10.053 -0.3994 -0.5052  0.6021
  157SAPE   H3R17513   4.281   6.364  10.022  0.5929  0.2424 -3.9179
  157SAPE   H3S17514   4.453   6.425  10.049  0.2405  2.0147  1.8696
  157SAPE   C2417515   4.320   6.570   9.952 -0.4928 -0.3564  0.2388
  157SAPE   H4R17516   4.211   6.587   9.966 -0.0845  0.3045  2.6669
  157SAPE   H4S17517   4.335   6.527   9.850 -0.4458 -0.7811  0.4238
  157SAPE   C2517518   4.399   6.693   9.980 -0.1127 -0.2757  0.0131
  157SAPE   H5R17519   4.438   6.701  10.082  0.1755 -0.7863 -0.0586
  157SAPE   C2617520   4.425   6.791   9.892 -0.1154 -0.1952  1.0376
  157SAPE   H6R17521   4.479   6.880   9.929 -0.0601 -0.7758  2.3797
  157SAPE   C2717522   4.379   6.792   9.749 -0.6941 -0.0786 -0.6910
  157SAPE   H7R17523   4.344   6.895   9.724 -3.3328 -0.9200 -0.5859
  157SAPE   H7S17524   4.292   6.724   9.736 -0.9101 -0.2760  1.5447
  157SAPE   C2817525   4.476   6.732   9.657  0.8143 -0.1625  0.3365
  157SAPE   H8R17526   4.575   6.735   9.705 -0.2791  0.5366  2.5866
  157SAPE   C2917527   4.451   6.682   9.532  0.1968  0.0063  0.9755
  157SAPE   H9R17528   4.535   6.649   9.470 -1.6834 -1.2327 -1.0052
  157SAPE  C21017529   4.314   6.681   9.469  0.0923  0.0199  0.2863
  157SAPE  H10R17530   4.238   6.678   9.551  0.1565 -0.4598  0.3268
  157SAPE  H10S17531   4.292   6.585   9.418 -0.4685 -0.1256  0.7923
  157SAPE  C21117532   4.285   6.802   9.388  0.3057  0.2667 -0.2593
  157SAPE  H11R17533   4.289   6.900   9.437  1.1105  1.5327 -2.7225
  157SAPE  C21217534   4.273   6.789   9.253 -0.2750 -0.5848 -0.6067
  157SAPE  H12R17535   4.252   6.880   9.195  0.8732  0.0261 -0.0757
  157SAPE  C21317536   4.271   6.667   9.163  0.0977  0.7906 -0.1470
  157SAPE  H13R17537   4.274   6.573   9.222 -0.3267  1.8974  1.6705
  157SAPE  H13S17538   4.359   6.677   9.097 -0.8314 -1.0202 -1.7011
  157SAPE  C21417539   4.144   6.671   9.079  0.3031  0.1024  0.0534
  157SAPE  H14R17540   4.051   6.634   9.124 -1.2759  2.2380 -1.4006
  157SAPE  C21517541   4.127   6.702   8.945  0.1118 -0.0218 -0.6594
  157SAPE  H15R17542   4.028   6.699   8.898  1.2785 -0.7528 -3.1316
  157SAPE  C21617543   4.239   6.750   8.857  0.3280  0.2872 -0.6325
  157SAPE  H16R17544   4.277   6.672   8.788 -0.6711 -0.4566 -0.3419
  157SAPE  H16S17545   4.322   6.784   8.922 -1.4201  0.7443  1.4369
  157SAPE  C21717546   4.210   6.863   8.759  0.9647 -0.2949 -0.2951
  157SAPE  H17R17547   4.292   6.878   8.686  0.2398 -0.4389 -1.1535
  157SAPE  H17S17548   4.203   6.961   8.811  0.7285 -1.0324  1.1011
  157SAPE  C21817549   4.086   6.835   8.671 -0.3772  0.2621 -0.7450
  157SAPE  H18R17550   3.997   6.845   8.736 -0.3403 -1.3900 -0.4274
  157SAPE  H18S17551   4.093   6.735   8.623  1.6888  0.2479 -0.4831
  157SAPE  C21917552   4.075   6.931   8.551 -0.1313 -0.3352 -0.6574
  157SAPE  H19R17553   4.165   6.927   8.486 -0.3070 -0.6147 -0.8855
  157SAPE  H19S17554   4.067   7.039   8.576 -0.5601 -0.9421  2.0037
  157SAPE  C22017555   3.945   6.906   8.468 -0.3279  0.9773  0.0754
  157SAPE  H20R17556   3.963   6.811   8.414  0.5802  0.3623  1.4368
  157SAPE  H20S17557   3.918   6.988   8.398  1.9019  1.0222 -0.7562
  157SAPE  H20T17558   3.862   6.883   8.539 -0.8002  0.0918 -0.7513
  157SAPE   C3317559   4.126   6.020  10.062 -0.2404 -0.3170  0.8486
  157SAPE   H3X17560   4.199   6.088  10.013 -0.4401 -0.5968  0.1632
  157SAPE   H3Y17561   4.044   6.080  10.107  1.9576  0.4583  4.0454
  157SAPE   C3417562   4.070   5.933   9.951  1.5379 -0.8756  0.0934
  157SAPE   H4X17563   4.027   5.849  10.010 -1.5307  1.7127  1.7170
  157SAPE   H4Y17564   4.154   5.883   9.898  0.8954 -0.7226 -1.0881
  157SAPE   C3517565   3.984   6.000   9.845 -0.5520 -0.1953 -0.4639
  157SAPE   H5X17566   4.050   6.084   9.812 -1.3686 -0.5529 -3.1077
  157SAPE   H5Y17567   3.894   6.040   9.897 -0.6697 -0.7814 -0.2183
  157SAPE   C3617568   3.931   5.925   9.722 -0.2821 -0.2997  0.9662
  157SAPE   H6X17569   3.828   5.961   9.699  0.0108 -0.5684 -0.8203
  157SAPE   H6Y17570   3.923   5.816   9.743  0.3323 -1.0396 -2.4537
  157SAPE   C3717571   4.019   5.946   9.597 -0.4060 -0.2720 -0.4541
  157SAPE   H7X17572   4.113   5.889   9.610 -1.0971 -1.1203  0.9979
  157SAPE   H7Y17573   4.050   6.052   9.589 -1.5401  0.0366 -0.8669
  157SAPE   C3817574   3.949   5.900   9.466 -0.3670  0.2007 -0.0396
  157SAPE   H8X17575   3.874   5.979   9.445 -1.3706 -1.1405 -1.5934
  157SAPE   H8Y17576   3.895   5.803   9.469 -2.8519  1.5421 -0.2333
  157SAPE   C3917577   4.055   5.908   9.357  0.2068 -0.0764  0.2388
  157SAPE   H9X17578   4.143   5.849   9.391 -0.7725 -0.5027  2.0554
  157SAPE   H9Y17579   4.082   6.015   9.339 -0.9233 -0.1906 -2.3831
  157SAPE  C31017580   3.997   5.847   9.232 -0.0348  0.1847  0.3406
  157SAPE  H10X17581   3.938   5.927   9.180  0.0807  1.8721  2.7128
  157SAPE  H10Y17582   3.914   5.782   9.267 -2.1559  1.3204 -2.3129
  157SAPE  C31117583   4.101   5.772   9.147  1.5834  0.0208  0.0786
  157SAPE  H11X17584   4.048   5.698   9.085  1.2137  0.6626 -0.3753
  157SAPE  H11Y17585   4.176   5.715   9.207  0.3994  0.3160  1.8925
  157SAPE  C31217586   4.194   5.864   9.064  0.6659  0.6948 -0.5028
  157SAPE  H12X17587   4.263   5.915   9.135 -0.0647  2.0546 -0.7606
  157SAPE  H12Y17588   4.127   5.938   9.016 -1.9228  0.0114  1.9152
  157SAPE  C31317589   4.259   5.782   8.954  0.5238 -0.3169  0.3794
  157SAPE  H13X17590   4.195   5.718   8.890  1.1693  1.1530 -1.8231
  157SAPE  H13Y17591   4.316   5.701   9.003 -1.4678 -1.4361  0.9181
  157SAPE  C31417592   4.355   5.857   8.864 -0.0852  0.2220  0.8777
  157SAPE  H14X17593   4.425   5.916   8.928 -0.2282 -0.3013  1.5270
  157SAPE  H14Y17594   4.297   5.926   8.800  0.0493 -1.2950 -0.8966
  157SAPE  C31517595   4.433   5.768   8.770  0.5351  0.5462  0.6227
  157SAPE  H15X17596   4.357   5.725   8.701  1.0800 -1.5449  1.2805
  157SAPE  H15Y17597   4.458   5.687   8.843 -2.0886 -1.6742 -0.8128
  157SAPE  C31617598   4.545   5.839   8.699 -0.0396  0.0283 -0.2862
  157SAPE  H16X17599   4.612   5.902   8.762  0.4667  0.5276 -1.3190
  157SAPE  H16Y17600   4.494   5.913   8.634 -0.2505  0.9664  0.9248
  157SAPE  C31717601   4.631   5.755   8.612  0.3498  0.5726  0.0903
  157SAPE  H17X17602   4.686   5.817   8.538 -0.6483 -0.6446 -1.7302
  157SAPE  H17Y17603   4.568   5.680   8.559  0.3029  0.3494  0.4576
  157SAPE  C31817604   4.727   5.665   8.694  0.0055  0.2425  0.4636
  157SAPE  H18X17605   4.780   5.737   8.760 -2.0961  1.2789  1.0880
  157SAPE  H18Y17606   4.795   5.610   8.626 -0.0998  0.2796  0.3301
  157SAPE  H18Z17607   4.681   5.585   8.757 -0.4498 -1.0279 -1.4520
  158SAPE     N17608   5.463   6.359  10.636 -0.3162  0.3954  0.0662
  158SAPE   HN117609   5.365   6.356  10.601  0.3279 -0.0992 -1.7142
  158SAPE   HN217610   5.439   6.320  10.730  2.4772 -0.1626  0.5980
  158SAPE   HN317611   5.491   6.459  10.629 -2.7288  1.1608  0.7941
  158SAPE   C1217612   5.556   6.263  10.565  0.6546  0.1877  0.2916
  158SAPE  H12A17613   5.572   6.301  10.462  1.3184  0.4233  0.4767
  158SAPE  H12B17614   5.505   6.165  10.560 -2.2361  1.6291  0.8575
  158SAPE   C1117615   5.696   6.259  10.628  0.4807  0.1753 -0.1440
  158SAPE  H11A17616   5.754   6.176  10.582  1.2707  0.3943  0.4373
  158SAPE  H11B17617   5.692   6.232  10.735  2.5985 -0.5903 -0.2337
  158SAPE     P17618   5.896   6.429  10.597 -0.4811 -0.3123 -0.0514
  158SAPE   O1317619   5.916   6.562  10.667  0.1056  0.7082 -0.0854
  158SAPE   O1417620   5.982   6.317  10.646  0.4606 -0.0459  0.4216
  158SAPE   O1217621   5.747   6.396  10.613 -0.2993 -0.2881  0.2168
  158SAPE   O1117622   5.903   6.448  10.437  0.6194  0.3178 -0.5083
  158SAPE    C117623   5.807   6.532  10.368 -0.8067  0.0012 -0.3918
  158SAPE    HA17624   5.802   6.497  10.263  0.7765  0.5027 -0.6380
  158SAPE    HB17625   5.706   6.529  10.416  0.1935  0.1354  1.7552
  158SAPE    C217626   5.863   6.675  10.359  0.3698  0.7730  0.4965
  158SAPE    HS17627   5.901   6.700  10.460 -0.8974 -1.5039  1.5726
  158SAPE   O2117628   5.756   6.762  10.319  0.4687  0.2711  1.1642
  158SAPE   C2117629   5.786   6.887  10.313 -0.0109  0.0943  0.7600
  158SAPE   O2217630   5.885   6.943  10.355  0.5883  0.1061 -0.2411
  158SAPE   C2217631   5.667   6.962  10.247  0.3884  0.0009  0.5817
  158SAPE   H2R17632   5.620   6.899  10.168 -0.8372  1.4479  0.1396
  158SAPE   H2S17633   5.582   6.970  10.319  1.0772 -1.6357  1.6285
  158SAPE    C317634   5.993   6.676  10.275  0.1794 -0.2691  0.3501
  158SAPE    HX17635   6.065   6.599  10.311  0.3333 -0.7328 -0.9452
  158SAPE    HY17636   6.042   6.773  10.299  1.0301 -0.3793 -0.8873
  158SAPE   O3117637   5.950   6.654  10.138 -0.1562  0.6769  1.0312
  158SAPE   C3117638   5.990   6.746  10.050 -0.3627  0.1972 -0.1674
  158SAPE   O3217639   6.021   6.863  10.075  0.0181 -0.0409 -0.4653
  158SAPE   C3217640   5.983   6.698   9.905 -0.0241 -0.4781 -0.2244
  158SAPE   H2X17641   5.880   6.665   9.877 -0.4614 -0.2045  1.0559
  158SAPE   H2Y17642   6.062   6.620   9.901  2.9386  2.2939  1.7926
  158SAPE   C2317643   5.713   7.100  10.195 -0.0522 -0.4575 -0.2954
  158SAPE   H3R17644   5.770   7.075  10.103 -2.3128 -1.7695 -1.3722
  158SAPE   H3S17645   5.771   7.150  10.276 -0.8041 -1.6961  1.0101
  158SAPE   C2417646   5.597   7.197  10.155  0.0165 -0.4001  0.3993
  158SAPE   H4R17647   5.632   7.285  10.096  0.8851 -0.1431  1.2932
  158SAPE   H4S17648   5.555   7.233  10.251  0.2650 -1.5407  0.9371
  158SAPE   C2517649   5.495   7.132  10.071  0.5353  0.1581 -0.1170
  158SAPE   H5R17650   5.403   7.105  10.123 -1.1031 -0.0086 -3.0064
  158SAPE   C2617651   5.482   7.118   9.939  0.5368 -0.4403  0.6889
  158SAPE   H6R17652   5.395   7.062   9.901  1.0536 -0.0247 -1.1525
  158SAPE   C2717653   5.569   7.153   9.819  0.2898 -0.0030 -0.3287
  158SAPE   H7R17654   5.648   7.225   9.850  0.6297  0.3953 -2.0835
  158SAPE   H7S17655   5.507   7.190   9.735 -0.6449  0.1867  0.4362
  158SAPE   C2817656   5.638   7.021   9.781 -0.6968  0.7522 -0.1060
  158SAPE   H8R17657   5.681   6.960   9.863  0.0511 -0.8438 -1.6558
  158SAPE   C2917658   5.684   6.988   9.656  0.4311 -0.2247  0.1522
  158SAPE   H9R17659   5.725   6.887   9.638 -2.2831 -1.0671 -1.6201
  158SAPE  C21017660   5.660   7.074   9.526 -0.2096  0.1007  0.0484
  158SAPE  H10R17661   5.747   7.054   9.460 -0.7864 -2.3038 -0.0194
  158SAPE  H10S17662   5.670   7.180   9.558 -0.9094  0.5365 -1.1274
  158SAPE  C21117663   5.520   7.073   9.458  0.2201  0.0029  0.5374
  158SAPE  H11R17664   5.434   7.109   9.515 -0.7401  0.2265 -1.0195
  158SAPE  C21217665   5.501   7.035   9.324  0.4112 -0.0542 -1.3403
  158SAPE  H12R17666   5.399   7.032   9.283  0.4667  1.1025 -1.6025
  158SAPE  C21317667   5.618   7.004   9.231  0.8071  0.0437 -0.1310
  158SAPE  H13R17668   5.676   6.929   9.289 -1.9643 -1.4441  0.7807
  158SAPE  H13S17669   5.682   7.095   9.220 -0.6142  1.1546  0.6207
  158SAPE  C21417670   5.574   6.948   9.102  0.3505 -0.7024 -0.5846
  158SAPE  H14R17671   5.570   6.841   9.079 -2.3086 -0.3916 -1.8007
  158SAPE  C21517672   5.515   7.024   9.007 -0.7021  0.2154  0.0388
  158SAPE  H15R17673   5.481   6.974   8.915  0.9560 -1.8279  0.4870
  158SAPE  C21617674   5.500   7.173   9.000  0.8852 -0.9199 -0.5135
  158SAPE  H16R17675   5.557   7.230   9.077 -0.5399  0.5321 -0.5083
  158SAPE  H16S17676   5.399   7.212   9.025  2.0531  0.7322  1.8196
  158SAPE  C21717677   5.526   7.228   8.856 -0.6518 -0.3790 -0.1584
  158SAPE  H17R17678   5.622   7.197   8.809 -0.3538 -2.0986  1.5715
  158SAPE  H17S17679   5.536   7.339   8.862  1.3820 -0.6294  1.7370
  158SAPE  C21817680   5.418   7.179   8.752 -0.9194 -0.7836  0.4223
  158SAPE  H18R17681   5.316   7.200   8.789  0.5230  3.5979  2.3330
  158SAPE  H18S17682   5.430   7.071   8.732 -1.1529 -0.7943  0.3429
  158SAPE  C21917683   5.422   7.252   8.617 -0.1407  0.4900  0.3934
  158SAPE  H19R17684   5.518   7.242   8.561  0.5680  1.2823  1.4366
  158SAPE  H19S17685   5.410   7.359   8.643 -1.9271  0.5808 -0.7914
  158SAPE  C22017686   5.310   7.218   8.524  0.5697  0.5603 -0.5446
  158SAPE  H20R17687   5.217   7.273   8.550  0.6385  0.7114 -0.6211
  158SAPE  H20S17688   5.289   7.110   8.543 -0.2536  0.5852 -1.3248
  158SAPE  H20T17689   5.340   7.248   8.422  1.0685 -1.0333 -0.8888
  158SAPE   C3317690   6.016   6.816   9.811 -0.4061  0.3084 -0.5407
  158SAPE   H3X17691   6.119   6.850   9.834 -0.9208  1.0403  0.7502
  158SAPE   H3Y17692   5.943   6.900   9.815 -0.7558  0.0380 -1.2727
  158SAPE   C3417693   6.020   6.764   9.670 -0.2849  0.2160 -0.2125
  158SAPE   H4X17694   5.918   6.727   9.645  0.0162  0.3378 -1.6255
  158SAPE   H4Y17695   6.102   6.689   9.668 -0.6409 -0.1763 -0.2465
  158SAPE   C3517696   6.042   6.871   9.566  0.3361  0.7538  0.6649
  158SAPE   H5X17697   6.149   6.898   9.575  0.3282  0.5838  1.3382
  158SAPE   H5Y17698   5.973   6.957   9.583 -0.5128 -0.1796  2.0968
  158SAPE   C3617699   6.007   6.820   9.423  0.7425 -0.6831 -0.2043
  158SAPE   H6X17700   5.898   6.804   9.409  0.6539  0.9637 -1.5201
  158SAPE   H6Y17701   6.060   6.729   9.386  2.0945  1.0917 -2.8436
  158SAPE   C3717702   6.047   6.931   9.320 -0.1278  0.0863  0.6132
  158SAPE   H7X17703   6.158   6.930   9.321 -0.1221  0.6174  0.6215
  158SAPE   H7Y17704   6.007   7.031   9.348 -3.8217 -0.6974 -1.5727
  158SAPE   C3817705   6.010   6.904   9.175  0.4159  1.0434  0.2375
  158SAPE   H8X17706   6.046   6.987   9.111  3.2765 -0.2135  0.1768
  158SAPE   H8Y17707   5.899   6.899   9.165  0.5353  0.1900 -0.7098
  158SAPE   C3917708   6.065   6.779   9.117 -0.0336  1.0690  0.1160
  158SAPE   H9X17709   6.027   6.691   9.172  0.6386 -0.0557 -1.1907
  158SAPE   H9Y17710   6.172   6.784   9.146  0.1799  2.7749 -0.9008
  158SAPE  C31017711   6.040   6.760   8.969  0.1837 -0.7384  0.0873
  158SAPE  H10X17712   6.070   6.655   8.949  1.7482  0.1473 -2.4259
  158SAPE  H10Y17713   6.103   6.818   8.898 -2.9889  1.1693 -1.2800
  158SAPE  C31117714   5.895   6.791   8.928  0.3920  0.3418  0.0723
  158SAPE  H11X17715   5.858   6.889   8.963  0.9170  0.5698 -0.0129
  158SAPE  H11Y17716   5.832   6.713   8.976  2.4682 -0.2671  1.9238
  158SAPE  C31217717   5.874   6.771   8.780 -0.3313 -0.5002 -0.5534
  158SAPE  H12X17718   5.905   6.675   8.734 -2.3695 -0.4410 -2.1319
  158SAPE  H12Y17719   5.928   6.850   8.723 -0.5643 -0.4218 -0.6666
  158SAPE  C31317720   5.728   6.793   8.737 -0.2047 -0.3674 -0.1107
  158SAPE  H13X17721   5.711   6.898   8.769 -0.4230 -0.1986 -0.7741
  158SAPE  H13Y17722   5.664   6.722   8.795  1.1764 -0.4784  1.3122
  158SAPE  C31417723   5.692   6.771   8.587 -0.8456  0.4296 -0.1956
  158SAPE  H14X17724   5.689   6.665   8.554 -0.2258  1.3238 -3.3184
  158SAPE  H14Y17725   5.769   6.832   8.534 -0.0666  2.3935  3.0681
  158SAPE  C31517726   5.551   6.834   8.554 -0.2677 -0.3686 -0.8696
  158SAPE  H15X17727   5.559   6.944   8.571 -1.5684 -0.0272 -2.4184
  158SAPE  H15Y17728   5.471   6.795   8.621  1.1499  0.3473  1.3022
  158SAPE  C31617729   5.504   6.823   8.408 -0.3490  0.1526  0.2160
  158SAPE  H16X17730   5.594   6.811   8.344  1.0405 -0.3704  2.2207
  158SAPE  H16Y17731   5.457   6.922   8.388  1.4984  0.4888 -2.6485
  158SAPE  C31717732   5.404   6.718   8.394  0.3012 -0.0457 -0.3138
  158SAPE  H17X17733   5.318   6.736   8.461 -1.1689  0.0257 -2.1670
  158SAPE  H17Y17734   5.438   6.617   8.425  0.2467  0.3538  1.0449
  158SAPE  C31817735   5.354   6.694   8.259  0.2395  0.4692  0.4609
  158SAPE  H18X17736   5.321   6.791   8.217  0.4841  0.2192 -0.3081
  158SAPE  H18Y17737   5.274   6.617   8.262 -0.5525  1.2887  0.8413
  158SAPE  H18Z17738   5.435   6.666   8.188  0.2264 -0.0364  0.6421
  159SAPE     N17739   5.272   4.305   6.155 -0.2695  0.0530 -0.3314
  159SAPE   HN117740   5.302   4.212   6.191 -0.8052  0.8171  2.1892
  159SAPE   HN217741   5.236   4.276   6.061  0.9081  0.4467 -0.9056
  159SAPE   HN317742   5.363   4.353   6.147  0.0812 -0.7962 -1.6289
  159SAPE   C1217743   5.186   4.370   6.266 -0.2726  0.4983 -0.0181
  159SAPE  H12A17744   5.097   4.307   6.287 -0.0622  0.1893 -0.0527
  159SAPE  H12B17745   5.157   4.470   6.229 -0.2611  0.5127  0.0108
  159SAPE   C1117746   5.270   4.380   6.393  0.4444  0.3725 -0.1170
  159SAPE  H11A17747   5.202   4.424   6.469  0.9751  1.4295 -0.2372
  159SAPE  H11B17748   5.347   4.459   6.380  1.3222 -0.3624  0.5420
  159SAPE     P17749   5.246   4.142   6.508  0.1461  0.0440 -0.3045
  159SAPE   O1317750   5.156   4.081   6.407  0.4310 -0.4126 -0.2868
  159SAPE   O1417751   5.344   4.051   6.576  0.5241  0.2027 -0.1148
  159SAPE   O1217752   5.322   4.248   6.434 -0.1792 -0.1792  0.3444
  159SAPE   O1117753   5.157   4.217   6.616  0.1243  0.2100  0.0402
  159SAPE    C117754   5.236   4.303   6.703 -0.0496  0.4445 -0.6996
  159SAPE    HA17755   5.334   4.341   6.669 -0.1090  1.0526 -0.2148
  159SAPE    HB17756   5.177   4.395   6.725  0.6148  0.8897 -0.7812
  159SAPE    C217757   5.254   4.236   6.848 -0.4343  0.6643 -0.6046
  159SAPE    HS17758   5.273   4.128   6.833 -1.0710 -0.0528  3.1041
  159SAPE   O2117759   5.126   4.254   6.922 -0.2206  0.7578 -0.0595
  159SAPE   C2117760   5.104   4.163   7.022  0.5231 -0.1442 -0.2845
  159SAPE   O2217761   5.163   4.060   7.038 -0.3150  0.2055  0.5299
  159SAPE   C2217762   4.990   4.215   7.100  0.7141  0.2354  0.2807
  159SAPE   H2R17763   5.022   4.318   7.126  1.7609 -0.2513  0.9710
  159SAPE   H2S17764   4.896   4.219   7.041 -0.4592 -0.4482  2.0571
  159SAPE    C317765   5.382   4.289   6.920  0.2776  0.1122  0.3155
  159SAPE    HX17766   5.379   4.400   6.921 -2.1377  0.1079 -2.3699
  159SAPE    HY17767   5.473   4.271   6.859  0.6868  1.0991  0.6188
  159SAPE   O3117768   5.394   4.248   7.056  0.0976 -0.2195  0.4542
  159SAPE   C3117769   5.437   4.132   7.078 -0.2715  0.9544 -0.1699
  159SAPE   O3217770   5.466   4.046   7.000 -0.3899  0.2500 -0.2935
  159SAPE   C3217771   5.478   4.123   7.226  1.0035  0.4690  0.0900
  159SAPE   H2X17772   5.442   4.213   7.280  3.6608  1.4331  0.3058
  159SAPE   H2Y17773   5.589   4.120   7.229  0.9375 -0.6426  2.7411
  159SAPE   C2317774   4.942   4.134   7.235  0.3198  0.5493 -0.0507
  159SAPE   H3R17775   5.020   4.125   7.313 -0.2035  1.6109  0.6179
  159SAPE   H3S17776   4.928   4.026   7.214  0.9438  0.3353  0.6467
  159SAPE   C2417777   4.819   4.200   7.298  0.3479  0.2247 -0.4039
  159SAPE   H4R17778   4.772   4.116   7.354 -1.7719  0.9547 -1.0191
  159SAPE   H4S17779   4.747   4.221   7.216  1.1263 -1.4505 -1.5392
  159SAPE   C2517780   4.853   4.326   7.375  0.7501 -0.1690 -0.2308
  159SAPE   H5R17781   4.835   4.424   7.327 -0.1940  0.2228  0.8956
  159SAPE   C2617782   4.878   4.322   7.507  0.5442  0.9883  0.3201
  159SAPE   H6R17783   4.909   4.408   7.569  2.3689 -0.2729  1.2274
  159SAPE   C2717784   4.869   4.199   7.598  0.1265 -0.5993 -0.5115
  159SAPE   H7R17785   4.787   4.129   7.572  0.9964 -1.0097 -2.1954
  159SAPE   H7S17786   4.830   4.233   7.696 -0.9644  1.6551 -1.6752
  159SAPE   C2817787   4.997   4.118   7.590 -0.0278 -0.6082  0.2506
  159SAPE   H8R17788   5.011   4.067   7.494 -0.1413 -0.7345  0.3009
  159SAPE   C2917789   5.088   4.093   7.682  0.2335 -0.4109 -0.1698
  159SAPE   H9R17790   5.173   4.030   7.653  0.1224 -0.3591 -0.6270
  159SAPE  C21017791   5.104   4.156   7.815  0.7760  0.5410  0.2793
  159SAPE  H10R17792   5.118   4.085   7.899 -0.8714 -1.2741 -0.9309
  159SAPE  H10S17793   5.010   4.204   7.849  0.2387 -0.6346  0.5031
  159SAPE  C21117794   5.201   4.268   7.823  0.7755 -0.1686  0.4468
  159SAPE  H11R17795   5.258   4.302   7.736  0.8188 -1.7174 -0.1324
  159SAPE  C21217796   5.206   4.331   7.940 -0.2837  0.6644  0.5145
  159SAPE  H12R17797   5.280   4.410   7.959 -0.9043  0.7777  2.6307
  159SAPE  C21317798   5.129   4.295   8.069 -0.7927 -0.4613  0.1216
  159SAPE  H13R17799   5.194   4.322   8.155  0.2933  2.5270 -1.5610
  159SAPE  H13S17800   5.107   4.188   8.087 -1.2070 -0.3680  0.1765
  159SAPE  C21417801   4.992   4.370   8.071 -0.3375  0.2226  0.1674
  159SAPE  H14R17802   4.930   4.369   7.980 -1.5456  2.8996  0.9038
  159SAPE  C21517803   4.941   4.429   8.177 -0.0461  0.1000 -0.1532
  159SAPE  H15R17804   4.837   4.463   8.164 -0.4366 -0.4962  1.3225
  159SAPE  C21617805   5.003   4.444   8.315 -0.0584  0.1672  0.1811
  159SAPE  H16R17806   5.114   4.432   8.315 -0.4150 -3.8151  1.0890
  159SAPE  H16S17807   4.958   4.376   8.391 -0.5003  1.8487  1.4513
  159SAPE  C21717808   4.973   4.590   8.350 -0.3719 -0.3323 -0.0528
  159SAPE  H17R17809   4.867   4.609   8.323 -0.2193  1.7312  0.7420
  159SAPE  H17S17810   5.033   4.653   8.281 -0.4455 -1.7333 -1.4201
  159SAPE  C21817811   4.983   4.620   8.506 -0.1932 -0.0883 -0.3369
  159SAPE  H18R17812   5.092   4.616   8.531  0.2735 -2.0115 -2.4305
  159SAPE  H18S17813   4.936   4.534   8.559 -0.3081  0.7314  0.9175
  159SAPE  C21917814   4.911   4.743   8.553  0.1819 -1.3611 -0.4011
  159SAPE  H19R17815   4.802   4.743   8.531  0.0681  2.4654 -0.0970
  159SAPE  H19S17816   4.941   4.835   8.497 -1.3598 -1.0094 -0.6581
  159SAPE  C22017817   4.920   4.758   8.706  0.0977  0.1349 -0.6325
  159SAPE  H20R17818   4.873   4.665   8.747  1.3489 -1.4343 -2.6367
  159SAPE  H20S17819   4.867   4.848   8.743  0.2484 -0.3819  0.8479
  159SAPE  H20T17820   5.025   4.753   8.742  0.0166 -0.3534 -0.4577
  159SAPE   C3317821   5.418   3.996   7.287  0.3291 -0.4679 -0.5663
  159SAPE   H3X17822   5.472   3.900   7.274 -1.2597 -1.6318  1.1893
  159SAPE   H3Y17823   5.315   3.983   7.246 -0.3966 -1.0854  1.4130
  159SAPE   C3417824   5.373   4.018   7.440  0.2565 -0.3186 -0.7536
  159SAPE   H4X17825   5.314   3.929   7.470 -0.9353  0.2199 -1.4498
  159SAPE   H4Y17826   5.308   4.108   7.443  0.4699 -0.2052  0.5207
  159SAPE   C3517827   5.500   4.023   7.529 -0.4580  0.0493  0.1979
  159SAPE   H5X17828   5.568   4.100   7.484  0.3544 -1.3178 -0.9586
  159SAPE   H5Y17829   5.548   3.924   7.520 -0.7679 -0.2107  1.3336
  159SAPE   C3617830   5.496   4.058   7.686 -0.3382  0.5813  0.1707
  159SAPE   H6X17831   5.419   4.139   7.685  0.5048  1.3930 -1.2515
  159SAPE   H6Y17832   5.592   4.105   7.718  1.4137 -1.8970 -1.2620
  159SAPE   C3717833   5.450   3.945   7.778 -0.1599  0.5022  0.2259
  159SAPE   H7X17834   5.516   3.856   7.770 -1.2170 -0.3033  0.4158
  159SAPE   H7Y17835   5.344   3.934   7.748 -0.5469  0.3017  1.6210
  159SAPE   C3817836   5.462   3.987   7.927  0.9132  0.2398 -0.9751
  159SAPE   H8X17837   5.415   4.087   7.932 -1.4493 -0.8907 -0.0479
  159SAPE   H8Y17838   5.572   3.994   7.943  0.7943  0.7169 -0.3341
  159SAPE   C3917839   5.382   3.886   8.018 -0.3931  0.1286  0.2937
  159SAPE   H9X17840   5.442   3.794   8.034 -2.9165 -1.3425  1.5798
  159SAPE   H9Y17841   5.283   3.859   7.975 -1.8432  0.0771  3.5697
  159SAPE  C31017842   5.351   3.940   8.158 -0.5938 -0.3560  0.1272
  159SAPE  H10X17843   5.312   3.852   8.215  3.3872 -0.6358  2.5969
  159SAPE  H10Y17844   5.271   4.016   8.145 -0.9325 -0.7400 -0.0510
  159SAPE  C31117845   5.466   3.995   8.242 -0.1242  0.1606  0.0909
  159SAPE  H11X17846   5.494   4.097   8.210  2.6095 -0.6707 -0.2927
  159SAPE  H11Y17847   5.560   3.938   8.223  0.3828  1.1090 -0.2499
  159SAPE  C31217848   5.432   4.021   8.389  0.2315  0.1587  0.4656
  159SAPE  H12X17849   5.518   4.077   8.433  1.1485  0.6273 -1.8397
  159SAPE  H12Y17850   5.437   3.919   8.434  2.6640  0.6758  1.4871
  159SAPE  C31317851   5.293   4.083   8.423  0.0951 -0.2507 -0.3678
  159SAPE  H13X17852   5.225   3.995   8.416  0.2416 -0.4079  0.1867
  159SAPE  H13Y17853   5.256   4.171   8.366  1.7326  1.9223  1.8517
  159SAPE  C31417854   5.295   4.120   8.571  1.1225 -0.8924 -0.0809
  159SAPE  H14X17855   5.394   4.165   8.593  1.4006 -0.1122 -2.7312
  159SAPE  H14Y17856   5.276   4.032   8.635 -0.8949  0.5701  1.4182
  159SAPE  C31517857   5.186   4.223   8.600  0.1070 -0.9877 -0.7026
  159SAPE  H15X17858   5.092   4.166   8.588  0.5936 -1.4921 -2.3115
  159SAPE  H15Y17859   5.193   4.300   8.520 -1.0755 -0.9771 -0.8061
  159SAPE  C31617860   5.196   4.298   8.735 -0.4731 -0.0576 -0.1768
  159SAPE  H16X17861   5.237   4.221   8.804 -3.4579 -0.6172  1.0242
  159SAPE  H16Y17862   5.098   4.334   8.772 -0.6669 -0.5288 -0.2376
  159SAPE  C31717863   5.290   4.416   8.726  0.4946  0.5248 -0.0199
  159SAPE  H17X17864   5.296   4.455   8.622  0.8914  0.3963 -0.0454
  159SAPE  H17Y17865   5.389   4.377   8.758 -1.6790 -2.5096  3.2672
  159SAPE  C31817866   5.251   4.526   8.828 -0.0258  0.4053 -0.0644
  159SAPE  H18X17867   5.165   4.590   8.797  0.3305  1.1566  0.4694
  159SAPE  H18Y17868   5.333   4.598   8.851  0.2881 -0.5065  1.7465
  159SAPE  H18Z17869   5.240   4.469   8.923  0.5234  0.3253 -0.0457
  160SAPE     N17870   4.488   5.606   6.314 -0.4657  0.3387  0.5038
  160SAPE   HN117871   4.412   5.565   6.256 -2.1995  1.7644  1.7141
  160SAPE   HN217872   4.450   5.688   6.366  0.7429  0.6494  0.8913
  160SAPE   HN317873   4.571   5.632   6.257  0.1883  0.5422  1.5336
  160SAPE   C1217874   4.535   5.503   6.410 -0.0717  0.2608 -0.3715
  160SAPE  H12A17875   4.611   5.554   6.473  3.4932 -3.3162 -1.4964
  160SAPE  H12B17876   4.588   5.424   6.352  1.4833  0.2501  0.9947
  160SAPE   C1117877   4.416   5.441   6.489  0.5609  0.0846 -0.4615
  160SAPE  H11A17878   4.362   5.506   6.561  1.4713 -1.1175  1.3349
  160SAPE  H11B17879   4.465   5.367   6.555  1.6300 -0.4518 -1.8197
  160SAPE     P17880   4.168   5.386   6.415  0.3047 -0.2857 -0.1147
  160SAPE   O1317881   4.132   5.527   6.372  0.4547 -0.1906  0.1838
  160SAPE   O1417882   4.099   5.272   6.351  0.4439 -0.2969 -0.4051
  160SAPE   O1217883   4.327   5.375   6.394  0.0735  0.3019  0.1532
  160SAPE   O1117884   4.156   5.366   6.570  0.7920  0.4014  0.1937
  160SAPE    C117885   4.139   5.234   6.629  0.1442  0.1612  0.0281
  160SAPE    HA17886   4.036   5.195   6.610  0.9503 -2.4628  0.8134
  160SAPE    HB17887   4.208   5.163   6.578  0.8568  0.0962  1.0645
  160SAPE    C217888   4.165   5.229   6.779  0.3654 -0.0329 -0.2166
  160SAPE    HS17889   4.123   5.134   6.820  1.0701 -0.2009  0.1293
  160SAPE   O2117890   4.100   5.332   6.842 -0.1039  0.1853  0.1331
  160SAPE   C2117891   3.970   5.355   6.839 -0.4365  0.1165  0.3671
  160SAPE   O2217892   3.885   5.283   6.792  0.1710 -0.0629 -0.6429
  160SAPE   C2217893   3.947   5.488   6.909 -0.2302 -0.3337  0.1989
  160SAPE   H2R17894   4.042   5.536   6.938 -0.7729  0.1388  1.2220
  160SAPE   H2S17895   3.906   5.562   6.838  0.2614  0.7127  0.9948
  160SAPE    C317896   4.313   5.240   6.808 -0.5728  0.3815  0.1793
  160SAPE    HX17897   4.347   5.341   6.774  2.4097 -0.6227  0.0042
  160SAPE    HY17898   4.364   5.170   6.739 -0.5406  1.1954 -0.6368
  160SAPE   O3117899   4.342   5.216   6.952  0.5719  0.9212 -0.1185
  160SAPE   C3117900   4.379   5.326   7.017  0.3034 -0.1910 -0.0592
  160SAPE   O3217901   4.390   5.435   6.969  0.3893 -0.0469 -0.0398
  160SAPE   C3217902   4.398   5.301   7.169 -0.0965  0.0570  0.0966
  160SAPE   H2X17903   4.504   5.268   7.174  0.0181  0.4541  0.3490
  160SAPE   H2Y17904   4.338   5.213   7.203 -1.9425  0.7201 -1.3602
  160SAPE   C2317905   3.853   5.464   7.030  0.6428  0.4141 -0.4000
  160SAPE   H3R17906   3.886   5.379   7.093  0.5295 -0.6919 -1.8256
  160SAPE   H3S17907   3.757   5.441   6.979 -0.3398  0.5504  1.3307
  160SAPE   C2417908   3.839   5.584   7.121 -0.3061 -0.4338 -0.0263
  160SAPE   H4R17909   3.943   5.613   7.149 -0.0215  0.9005 -2.3284
  160SAPE   H4S17910   3.790   5.564   7.219  1.6900  2.1435  1.5641
  160SAPE   C2517911   3.771   5.705   7.054  0.8223 -0.0610  0.5238
  160SAPE   H5R17912   3.759   5.703   6.945  2.4663 -1.2494  0.3473
  160SAPE   C2617913   3.717   5.809   7.117  0.0936 -0.1896  0.7296
  160SAPE   H6R17914   3.679   5.885   7.047  1.1913 -0.4668 -0.1733
  160SAPE   C2717915   3.711   5.837   7.264 -0.0456  0.8902 -0.5231
  160SAPE   H7R17916   3.664   5.745   7.304  1.6917 -0.8822 -2.4582
  160SAPE   H7S17917   3.638   5.916   7.292  0.4113  1.5272 -1.0980
  160SAPE   C2817918   3.838   5.845   7.339  0.0233 -0.2387  0.0573
  160SAPE   H8R17919   3.924   5.871   7.275 -0.1980 -0.3575 -0.2892
  160SAPE   C2917920   3.866   5.832   7.468  0.0515 -0.7638 -0.4583
  160SAPE   H9R17921   3.970   5.853   7.497  0.0523 -1.1419 -0.1880
  160SAPE  C21017922   3.775   5.800   7.585 -0.0396  0.5519 -0.7189
  160SAPE  H10R17923   3.682   5.766   7.534  1.4281 -1.8566 -1.8761
  160SAPE  H10S17924   3.752   5.899   7.628  1.3126  0.9946 -1.0078
  160SAPE  C21117925   3.818   5.693   7.680  0.0278  0.7264 -0.2807
  160SAPE  H11R17926   3.846   5.597   7.634 -1.7742  0.1058 -0.1457
  160SAPE  C21217927   3.814   5.696   7.816 -0.5744 -0.1852  0.6194
  160SAPE  H12R17928   3.833   5.597   7.860  2.2818  0.3109  0.5804
  160SAPE  C21317929   3.766   5.815   7.897  0.4851  0.1583  0.5957
  160SAPE  H13R17930   3.688   5.774   7.965 -1.9465 -0.4196 -2.4503
  160SAPE  H13S17931   3.709   5.898   7.850 -0.4509 -0.1795  1.1084
  160SAPE  C21417932   3.883   5.873   7.971 -0.3901 -0.2866 -0.2127
  160SAPE  H14R17933   3.950   5.926   7.901 -1.6942  0.8894 -0.5918
  160SAPE  C21517934   3.918   5.861   8.104 -0.0550  0.5788  0.1527
  160SAPE  H15R17935   4.012   5.905   8.141 -0.5236  0.1679  1.8973
  160SAPE  C21617936   3.845   5.774   8.204  0.7255  0.1871 -0.5325
  160SAPE  H16R17937   3.911   5.687   8.226  1.2752  0.4646 -1.0556
  160SAPE  H16S17938   3.744   5.738   8.178 -0.2892  2.2614  0.4467
  160SAPE  C21717939   3.835   5.836   8.337 -0.3361  0.2777  0.3964
  160SAPE  H17R17940   3.777   5.769   8.404 -1.2783  0.5295 -0.1623
  160SAPE  H17S17941   3.771   5.927   8.332 -1.4976 -0.6183 -1.8936
  160SAPE  C21817942   3.970   5.881   8.394  0.0746 -0.0076  0.2789
  160SAPE  H18R17943   3.995   5.980   8.350  0.5007 -0.6852 -1.0455
  160SAPE  H18S17944   4.043   5.806   8.356 -1.7714 -1.1986 -1.0331
  160SAPE  C21917945   3.975   5.891   8.550  0.7087 -0.7544  0.3628
  160SAPE  H19R17946   3.900   5.969   8.577  0.6722  0.0015 -1.8173
  160SAPE  H19S17947   4.073   5.931   8.583  2.1645  1.0780 -5.4812
  160SAPE  C22017948   3.950   5.752   8.622  0.2484  0.2917  0.2700
  160SAPE  H20R17949   4.017   5.670   8.588 -0.5182 -0.3697  0.3183
  160SAPE  H20S17950   3.847   5.715   8.600  1.1144 -2.1571  0.1235
  160SAPE  H20T17951   3.960   5.763   8.732  1.3428 -0.1282  0.2158
  160SAPE   C3317952   4.375   5.415   7.264  0.0203 -0.4871 -0.8066
  160SAPE   H3X17953   4.404   5.512   7.218  0.8914  0.1165  0.9610
  160SAPE   H3Y17954   4.431   5.392   7.357 -1.4141  0.9162  0.4426
  160SAPE   C3417955   4.221   5.433   7.289 -0.3815 -0.1105 -0.4807
  160SAPE   H4X17956   4.182   5.349   7.350  0.5094  0.1984  0.5097
  160SAPE   H4Y17957   4.157   5.425   7.198 -0.2206  0.3349 -0.6349
  160SAPE   C3517958   4.199   5.561   7.365  0.4684  0.0975  0.1512
  160SAPE   H5X17959   4.089   5.561   7.380  0.0693 -3.3253 -2.2993
  160SAPE   H5Y17960   4.232   5.643   7.298  0.7903 -0.4540 -0.3683
  160SAPE   C3617961   4.266   5.568   7.503 -0.4984 -0.2087 -0.3481
  160SAPE   H6X17962   4.373   5.584   7.476 -0.3686  3.8659  2.0729
  160SAPE   H6Y17963   4.249   5.475   7.560 -1.5812  0.2195  0.0344
  160SAPE   C3717964   4.223   5.679   7.599 -0.3073 -0.5012 -0.4048
  160SAPE   H7X17965   4.112   5.683   7.611 -0.4969  0.4092 -2.2480
  160SAPE   H7Y17966   4.247   5.775   7.549  1.5307  0.8704  2.9904
  160SAPE   C3817967   4.301   5.683   7.735 -0.0196  0.4591 -0.1232
  160SAPE   H8X17968   4.409   5.679   7.709  0.0508  1.5614 -0.0299
  160SAPE   H8Y17969   4.281   5.587   7.788  0.8536  1.1943  1.5974
  160SAPE   C3917970   4.275   5.809   7.817 -0.3165 -0.1936  0.0438
  160SAPE   H9X17971   4.181   5.793   7.873  0.0235 -0.0411  0.6630
  160SAPE   H9Y17972   4.265   5.904   7.761  1.2497 -0.3704 -0.5717
  160SAPE  C31017973   4.374   5.825   7.936  0.0733  0.7280 -0.5366
  160SAPE  H10X17974   4.473   5.848   7.890  1.0882 -1.1144  0.6797
  160SAPE  H10Y17975   4.385   5.728   7.989  1.0971  1.2117  0.1634
  160SAPE  C31117976   4.328   5.938   8.031 -0.1919  0.0318  0.6933
  160SAPE  H11X17977   4.221   5.939   8.060 -0.9239  0.9995 -1.8614
  160SAPE  H11Y17978   4.350   6.034   7.979  1.0025 -1.6114 -1.9577
  160SAPE  C31217979   4.402   5.967   8.166  0.6133  0.3210  0.7151
  160SAPE  H12X17980   4.505   6.006   8.149  0.0103  0.9685 -1.7183
  160SAPE  H12Y17981   4.403   5.875   8.229  1.4966 -1.2353 -1.5062
  160SAPE  C31317982   4.321   6.068   8.257  0.6742 -0.3332  0.0270
  160SAPE  H13X17983   4.224   6.022   8.286  0.4601  0.0884 -0.0337
  160SAPE  H13Y17984   4.291   6.162   8.207 -0.7180 -1.4126 -1.2244
  160SAPE  C31417985   4.395   6.100   8.388  1.1662 -0.4738 -0.0296
  160SAPE  H14X17986   4.470   6.180   8.370  1.9308 -0.9938  0.7704
  160SAPE  H14Y17987   4.450   6.007   8.417 -0.1925 -1.1466  0.4535
  160SAPE  C31517988   4.308   6.144   8.504  0.1079 -0.2615  0.0582
  160SAPE  H15X17989   4.364   6.165   8.597 -1.5579 -1.8665  1.4720
  160SAPE  H15Y17990   4.223   6.078   8.533 -1.2694  1.7385  0.6400
  160SAPE  C31617991   4.256   6.293   8.498  0.7947  1.4434  0.1857
  160SAPE  H16X17992   4.167   6.312   8.434  1.3454 -0.5038 -1.1983
  160SAPE  H16Y17993   4.344   6.351   8.462  1.3907  1.3917  1.5332
  160SAPE  C31717994   4.216   6.348   8.638  0.3713 -0.1852 -0.0468
  160SAPE  H17X17995   4.306   6.360   8.703  0.7676 -1.4602 -0.3495
  160SAPE  H17Y17996   4.136   6.294   8.693 -0.0614  2.7241  2.2908
  160SAPE  C31817997   4.155   6.485   8.615 -0.3341  0.0802 -0.0302
  160SAPE  H18X17998   4.129   6.532   8.713 -1.2409  0.8000 -0.6050
  160SAPE  H18Y17999   4.056   6.474   8.566  0.5368  1.9681 -2.2815
  160SAPE  H18Z18000   4.223   6.544   8.550  0.3893  1.3185  1.7984
  161SAPE     N18001   6.515   2.868   6.364  0.1859 -0.3201  0.1684
  161SAPE   HN118002   6.583   2.800   6.323  1.4114 -0.7195  2.7802
  161SAPE   HN218003   6.513   2.871   6.467 -0.0962  1.0540  0.1224
  161SAPE   HN318004   6.421   2.833   6.338  0.0375  1.2738 -1.5439
  161SAPE   C1218005   6.530   3.004   6.309  0.1175  0.0122 -0.7497
  161SAPE  H12A18006   6.520   3.012   6.199 -1.4961 -0.6243 -0.6651
  161SAPE  H12B18007   6.636   3.030   6.334  0.0713  0.8188 -1.3531
  161SAPE   C1118008   6.442   3.100   6.390 -0.0434 -0.0764 -0.3034
  161SAPE  H11A18009   6.469   3.091   6.497  0.8683 -0.7806 -0.5811
  161SAPE  H11B18010   6.336   3.066   6.388 -0.0667 -0.1116  1.0916
  161SAPE     P18011   6.548   3.341   6.406 -0.2653 -0.0865  0.0107
  161SAPE   O1318012   6.670   3.351   6.318 -0.4405  0.2038  0.3669
  161SAPE   O1418013   6.477   3.464   6.428 -0.1626 -0.7217  0.3251
  161SAPE   O1218014   6.448   3.238   6.338  0.0750  0.2227 -0.2881
  161SAPE   O1118015   6.589   3.286   6.543 -0.5245  0.1663  0.4569
  161SAPE    C118016   6.684   3.359   6.625  0.9861 -0.0331 -0.2977
  161SAPE    HA18017   6.771   3.394   6.564  2.4376 -2.3119  0.3814
  161SAPE    HB18018   6.638   3.453   6.662 -0.1575  0.4149 -2.7465
  161SAPE    C218019   6.736   3.265   6.737 -0.5324 -0.7803  0.1748
  161SAPE    HS18020   6.780   3.180   6.681 -1.8411  0.7906 -3.3528
  161SAPE   O2118021   6.617   3.228   6.804  0.1864 -0.5422  0.6926
  161SAPE   C2118022   6.611   3.102   6.859  0.2820 -0.6129 -0.0005
  161SAPE   O2218023   6.704   3.024   6.847  0.2369  0.0136 -0.6838
  161SAPE   C2218024   6.479   3.059   6.928  1.2639 -0.1199 -0.6295
  161SAPE   H2R18025   6.401   3.106   6.864  0.3693 -0.1902  0.3713
  161SAPE   H2S18026   6.466   2.949   6.921  1.1054  0.0342 -2.9248
  161SAPE    C318027   6.844   3.333   6.829 -0.4624  0.2134  0.0844
  161SAPE    HX18028   6.800   3.431   6.859  1.0516  0.7257  0.6635
  161SAPE    HY18029   6.929   3.362   6.765  0.0940 -1.6819 -0.0635
  161SAPE   O3118030   6.891   3.259   6.951  0.5099  0.0130 -0.4804
  161SAPE   C3118031   6.839   3.302   7.071 -0.0538 -0.5313 -0.1478
  161SAPE   O3218032   6.754   3.393   7.081  0.2563  0.0375 -0.4911
  161SAPE   C3218033   6.901   3.224   7.181  0.4624 -0.4496 -0.0685
  161SAPE   H2X18034   7.011   3.218   7.170  0.5043  0.7418 -0.4177
  161SAPE   H2Y18035   6.854   3.124   7.175 -0.5959 -0.0735  1.5470
  161SAPE   C2318036   6.478   3.116   7.074 -0.6515 -0.4025  0.3923
  161SAPE   H3R18037   6.486   3.227   7.068  2.8305 -0.7902 -3.3514
  161SAPE   H3S18038   6.572   3.089   7.125 -1.3523 -0.0922  1.8997
  161SAPE   C2418039   6.352   3.069   7.149 -0.5027 -0.2555  0.4588
  161SAPE   H4R18040   6.363   3.076   7.259  1.3752 -0.4757  0.2868
  161SAPE   H4S18041   6.318   2.966   7.121  0.2749 -1.2265  2.9550
  161SAPE   C2518042   6.243   3.166   7.112  0.1405 -0.3346 -0.1944
  161SAPE   H5R18043   6.270   3.242   7.038 -0.4540  2.2664  2.1944
  161SAPE   C2618044   6.125   3.165   7.178  0.5892  0.2693  0.8266
  161SAPE   H6R18045   6.048   3.237   7.146  2.5996  1.5867 -1.1762
  161SAPE   C2718046   6.093   3.070   7.290 -0.1757 -0.0423  0.4967
  161SAPE   H7R18047   6.144   2.972   7.299  0.6136  0.3377  0.2037
  161SAPE   H7S18048   5.988   3.038   7.270  0.6378 -1.4562 -1.6717
  161SAPE   C2818049   6.100   3.153   7.420  0.0598  1.1149 -0.1686
  161SAPE   H8R18050   6.065   3.256   7.407  2.4695  2.4531  3.2077
  161SAPE   C2918051   6.142   3.118   7.538  0.3919 -0.1987 -0.2388
  161SAPE   H9R18052   6.140   3.191   7.620  1.9548 -2.5369  1.9419
  161SAPE  C21018053   6.206   2.980   7.563  0.4752 -0.3340 -0.4625
  161SAPE  H10R18054   6.274   2.934   7.488 -0.1444 -0.5361 -0.9047
  161SAPE  H10S18055   6.118   2.912   7.567  0.3636 -0.1514  0.1647
  161SAPE  C21118056   6.287   2.997   7.687 -0.0055  0.2465 -0.0310
  161SAPE  H11R18057   6.395   2.998   7.672 -0.1486 -0.0162 -1.0527
  161SAPE  C21218058   6.242   2.991   7.815 -0.2316 -0.1663 -0.0318
  161SAPE  H12R18059   6.306   3.003   7.904 -0.8953 -0.8917  0.5543
  161SAPE  C21318060   6.103   2.974   7.851  0.0033  0.7730 -0.5885
  161SAPE  H13R18061   6.099   2.869   7.886  0.4919  0.9197 -0.0879
  161SAPE  H13S18062   6.034   2.975   7.763  1.3324  1.0444 -1.6420
  161SAPE  C21418063   6.051   3.059   7.964 -0.2192  0.3012 -0.3459
  161SAPE  H14R18064   5.999   3.146   7.923 -1.3140  1.1032  2.6096
  161SAPE  C21518065   6.053   3.041   8.096 -0.1208  0.5294  0.2960
  161SAPE  H15R18066   6.020   3.127   8.156 -1.9090 -0.1069  0.2503
  161SAPE  C21618067   6.111   2.922   8.170  0.0085 -0.2279  0.6427
  161SAPE  H16R18068   6.128   2.837   8.101 -1.3080 -1.6669  2.0437
  161SAPE  H16S18069   6.036   2.889   8.246 -1.1014  0.3002 -0.2212
  161SAPE  C21718070   6.244   2.956   8.237  0.4001  0.2485 -0.2705
  161SAPE  H17R18071   6.222   3.053   8.286  0.7721  0.9877 -1.5254
  161SAPE  H17S18072   6.320   2.982   8.160 -1.0885  2.1150 -1.1443
  161SAPE  C21818073   6.304   2.854   8.336 -0.0245 -0.0623 -0.3400
  161SAPE  H18R18074   6.319   2.753   8.291  0.3193  0.1847 -0.7865
  161SAPE  H18S18075   6.228   2.843   8.416 -0.2162  0.5870 -0.4325
  161SAPE  C21918076   6.431   2.915   8.396 -0.1763 -0.4046 -0.4121
  161SAPE  H19R18077   6.419   3.023   8.416 -1.0252 -0.9362  2.1065
  161SAPE  H19S18078   6.515   2.907   8.323  0.4176 -4.8201  0.5849
  161SAPE  C22018079   6.476   2.841   8.521  0.4424 -0.5786 -0.4497
  161SAPE  H20R18080   6.412   2.873   8.605  1.1186 -0.9028  0.1910
  161SAPE  H20S18081   6.581   2.863   8.551  0.9936 -1.2573 -1.8330
  161SAPE  H20T18082   6.454   2.733   8.505 -1.6410  0.1881 -3.3773
  161SAPE   C3318083   6.884   3.267   7.331  0.4937 -0.4041  0.6109
  161SAPE   H3X18084   6.779   3.238   7.355 -0.9054  3.2553 -0.6726
  161SAPE   H3Y18085   6.894   3.376   7.353 -3.1409  0.2197 -0.3994
  161SAPE   C3418086   6.971   3.185   7.430 -0.2081  0.6507  0.6134
  161SAPE   H4X18087   7.076   3.222   7.427  0.8834 -2.4548 -1.5860
  161SAPE   H4Y18088   6.972   3.079   7.398  0.9663  1.0491 -0.7045
  161SAPE   C3518089   6.919   3.188   7.575 -0.4648  0.4802  0.1128
  161SAPE   H5X18090   6.813   3.156   7.584 -0.9203  2.1121  0.8744
  161SAPE   H5Y18091   6.927   3.296   7.601 -1.4068  0.0948  2.1822
  161SAPE   C3618092   7.005   3.118   7.676 -0.6027  0.0960  0.5228
  161SAPE   H6X18093   7.115   3.117   7.658 -0.8724  0.9538 -1.3095
  161SAPE   H6Y18094   6.984   3.010   7.684  1.9951 -0.2577  3.4137
  161SAPE   C3718095   6.975   3.173   7.815  0.1545  0.4968 -1.2002
  161SAPE   H7X18096   6.864   3.169   7.826  0.2761  1.7879  0.8137
  161SAPE   H7Y18097   6.995   3.282   7.819 -1.4874  0.8233 -1.6160
  161SAPE   C3818098   7.053   3.113   7.935  0.6500  0.0991  0.0271
  161SAPE   H8X18099   7.159   3.143   7.921  0.1144  1.2724 -1.7498
  161SAPE   H8Y18100   7.043   3.004   7.920  1.2264 -0.0064  0.4188
  161SAPE   C3918101   6.985   3.150   8.069  0.0181  0.8155  0.1002
  161SAPE   H9X18102   6.904   3.074   8.083  0.1859  0.2694 -1.8216
  161SAPE   H9Y18103   6.940   3.251   8.060  0.7690  1.2174  0.7929
  161SAPE  C31018104   7.067   3.129   8.191 -1.0398 -0.2020  0.1040
  161SAPE  H10X18105   7.154   3.198   8.193 -0.9856 -0.2861  0.7456
  161SAPE  H10Y18106   7.106   3.025   8.196 -1.6967 -0.4629 -0.1109
  161SAPE  C31118107   6.986   3.151   8.315  0.1267 -0.1263  0.1932
  161SAPE  H11X18108   6.891   3.206   8.296  1.1909  1.6942 -0.0272
  161SAPE  H11Y18109   7.042   3.218   8.383 -0.5850  0.0960  0.5678
  161SAPE  C31218110   6.957   3.013   8.381 -0.6453 -0.1256 -0.3988
  161SAPE  H12X18111   6.913   2.939   8.311  0.8296 -1.1267 -0.2951
  161SAPE  H12Y18112   6.868   3.018   8.448  0.3222 -2.2841  1.1234
  161SAPE  C31318113   7.085   2.953   8.447  0.3317  0.5634 -0.2448
  161SAPE  H13X18114   7.087   3.027   8.529 -2.4997 -1.5711  1.8869
  161SAPE  H13Y18115   7.173   2.969   8.382 -0.2188 -1.1766 -1.4703
  161SAPE  C31418116   7.066   2.809   8.504 -0.3100  0.4781  0.1130
  161SAPE  H14X18117   7.072   2.737   8.420  0.3986  0.0656  0.5123
  161SAPE  H14Y18118   6.969   2.789   8.554 -1.6969  0.2817 -2.5611
  161SAPE  C31518119   7.172   2.773   8.607  0.5721  0.1142  0.0583
  161SAPE  H15X18120   7.192   2.849   8.685  0.2923 -0.2924  0.5266
  161SAPE  H15Y18121   7.267   2.763   8.550  0.3140  1.9526 -0.7248
  161SAPE  C31618122   7.153   2.633   8.666 -0.0002  0.5331 -0.3419
  161SAPE  H16X18123   7.059   2.635   8.725 -1.9323  0.7411 -3.3039
  161SAPE  H16Y18124   7.244   2.614   8.726 -1.8462 -1.8342  1.8576
  161SAPE  C31718125   7.151   2.504   8.581 -0.0893 -0.5090  0.2948
  161SAPE  H17X18126   7.249   2.488   8.530  0.5046 -1.5904  1.7148
  161SAPE  H17Y18127   7.074   2.530   8.506 -0.0751  2.0890  1.1442
  161SAPE  C31818128   7.124   2.379   8.666  0.4592 -0.5193  0.1232
  161SAPE  H18X18129   7.142   2.292   8.599  1.8082  0.4676 -0.8140
  161SAPE  H18Y18130   7.021   2.382   8.708  0.0586 -1.1313 -0.8092
  161SAPE  H18Z18131   7.205   2.363   8.741  0.0262  0.6696  0.8492
  162SAPE     N18132   5.344   5.772   6.293 -0.2344 -0.0692  0.3197
  162SAPE   HN118133   5.310   5.807   6.201  0.9558  0.6272  0.1472
  162SAPE   HN218134   5.442   5.738   6.285 -0.5557 -1.1449  0.7298
  162SAPE   HN318135   5.282   5.695   6.327  0.5620 -0.8456  0.0130
  162SAPE   C1218136   5.353   5.886   6.394  0.4867  0.0566  0.4876
  162SAPE  H12A18137   5.453   5.932   6.379  0.9378 -0.8473  0.6695
  162SAPE  H12B18138   5.349   5.832   6.491 -1.8109 -1.7705 -0.5897
  162SAPE   C1118139   5.231   5.978   6.374 -0.4757 -0.5885 -0.1407
  162SAPE  H11A18140   5.236   6.050   6.458  1.8157  0.9936 -1.5671
  162SAPE  H11B18141   5.134   5.926   6.384 -1.7987  1.7626 -0.4181
  162SAPE     P18142   5.194   6.031   6.113  0.4573 -0.2537 -0.1951
  162SAPE   O1318143   5.253   6.136   6.031 -0.1976 -0.2246  1.0214
  162SAPE   O1418144   5.230   5.892   6.085 -0.2259 -0.1360 -0.1759
  162SAPE   O1218145   5.235   6.064   6.259  0.0166  0.0017  0.1395
  162SAPE   O1118146   5.043   6.039   6.092 -0.7327 -0.5854 -0.1814
  162SAPE    C118147   4.946   5.985   6.181  0.3112 -0.1879  0.2646
  162SAPE    HA18148   4.873   5.941   6.110 -0.0251 -0.0447  0.5177
  162SAPE    HB18149   4.986   5.903   6.244  0.4928 -1.9222 -2.0384
  162SAPE    C218150   4.881   6.097   6.262 -0.2780 -0.4175  0.0603
  162SAPE    HS18151   4.854   6.171   6.184 -2.1408 -0.9338  0.1928
  162SAPE   O2118152   4.975   6.148   6.356 -0.2976  0.2929 -0.0505
  162SAPE   C2118153   4.947   6.260   6.415  0.1162 -0.5228  0.2839
  162SAPE   O2218154   4.847   6.328   6.403  0.0590 -0.0193 -1.2410
  162SAPE   C2218155   5.062   6.299   6.510 -0.0010  0.3356  0.2477
  162SAPE   H2R18156   5.089   6.210   6.572 -1.8869 -0.8805 -0.6557
  162SAPE   H2S18157   5.148   6.327   6.445 -0.8858 -0.5921 -1.3451
  162SAPE    C318158   4.752   6.043   6.320  0.1472 -0.0044  0.5537
  162SAPE    HX18159   4.701   5.968   6.255  0.2407  0.6381 -0.2684
  162SAPE    HY18160   4.689   6.133   6.331 -0.7317 -0.6080  0.5194
  162SAPE   O3118161   4.772   5.990   6.452 -0.5701  0.0153 -0.6019
  162SAPE   C3118162   4.766   5.858   6.462  0.0789  0.5755  0.3182
  162SAPE   O3218163   4.746   5.781   6.370  0.6766  0.3185 -0.0108
  162SAPE   C3218164   4.775   5.810   6.608  0.3639 -0.1861  0.8576
  162SAPE   H2X18165   4.856   5.876   6.647  0.6866  0.5481 -1.0123
  162SAPE   H2Y18166   4.803   5.703   6.615 -0.4038 -0.4101  0.4807
  162SAPE   C2318167   5.034   6.414   6.607 -0.5125 -0.3304 -0.0242
  162SAPE   H3R18168   4.963   6.386   6.689 -1.6904 -1.3774 -1.3817
  162SAPE   H3S18169   4.999   6.498   6.544 -1.7888 -2.1140 -1.7842
  162SAPE   C2418170   5.169   6.462   6.664 -0.0169  0.5419 -0.6554
  162SAPE   H4R18171   5.227   6.486   6.572 -0.3408 -1.4909 -1.4224
  162SAPE   H4S18172   5.221   6.383   6.722 -0.4811 -0.5382 -1.6912
  162SAPE   C2518173   5.163   6.580   6.748  1.5374  0.4476 -0.3039
  162SAPE   H5R18174   5.105   6.660   6.699 -0.2276 -0.7419 -0.2112
  162SAPE   C2618175   5.210   6.603   6.879  0.2656 -0.8682  0.1476
  162SAPE   H6R18176   5.186   6.700   6.925  0.1798  1.2469 -4.0971
  162SAPE   C2718177   5.287   6.514   6.972  0.0223  0.1711  0.5507
  162SAPE   H7R18178   5.285   6.414   6.923  0.0458  0.0124  0.8708
  162SAPE   H7S18179   5.241   6.498   7.072 -3.4861  0.1930 -0.9906
  162SAPE   C2818180   5.426   6.569   6.984 -0.5120  0.5177 -0.6527
  162SAPE   H8R18181   5.483   6.572   6.890  0.7283  3.1246  0.1289
  162SAPE   C2918182   5.481   6.608   7.101  0.4704 -1.0956  0.2428
  162SAPE   H9R18183   5.585   6.645   7.096  1.1346 -2.9919 -0.4632
  162SAPE  C21018184   5.418   6.618   7.240  0.3480 -0.4656 -0.0996
  162SAPE  H10R18185   5.311   6.588   7.242  0.8138 -2.0446  2.8756
  162SAPE  H10S18186   5.409   6.724   7.270 -0.5754 -0.4565 -0.3721
  162SAPE  C21118187   5.484   6.528   7.340 -0.0032 -0.2934  0.4810
  162SAPE  H11R18188   5.487   6.421   7.313  3.0355 -0.2844  0.6375
  162SAPE  C21218189   5.515   6.562   7.468  0.5185 -0.0743 -0.0061
  162SAPE  H12R18190   5.558   6.484   7.533  1.3757 -0.6305 -1.2143
  162SAPE  C21318191   5.508   6.701   7.529 -0.8067  0.5191  0.0335
  162SAPE  H13R18192   5.558   6.775   7.462 -0.0671  0.7968  0.8896
  162SAPE  H13S18193   5.566   6.701   7.623  0.4790 -0.7523 -0.7373
  162SAPE  C21418194   5.369   6.750   7.553  0.4268  0.3475  0.1621
  162SAPE  H14R18195   5.317   6.775   7.459  0.2248 -0.5324  0.0419
  162SAPE  C21518196   5.321   6.800   7.667  0.4695  0.2419  0.0582
  162SAPE  H15R18197   5.214   6.824   7.674  0.8542  1.9814  0.0738
  162SAPE  C21618198   5.399   6.795   7.797  0.2783 -0.0319 -0.0798
  162SAPE  H16R18199   5.503   6.835   7.790 -0.1664  1.8271  3.0143
  162SAPE  H16S18200   5.410   6.688   7.825  1.0543 -0.6705 -2.6857
  162SAPE  C21718201   5.337   6.867   7.926 -0.2995 -1.0621 -1.2077
  162SAPE  H17R18202   5.403   6.837   8.011 -1.4212 -1.2898 -0.4106
  162SAPE  H17S18203   5.236   6.827   7.949 -0.6437  0.6750  0.4574
  162SAPE  C21818204   5.338   7.020   7.916  0.4532  0.4566 -0.1460
  162SAPE  H18R18205   5.276   7.049   7.829  0.7782  0.5963 -0.3293
  162SAPE  H18S18206   5.440   7.057   7.892 -0.1278  2.6154  0.6748
  162SAPE  C21918207   5.286   7.094   8.041  0.9415 -0.4794  0.0943
  162SAPE  H19R18208   5.306   7.202   8.024 -0.7268 -0.4734 -2.0520
  162SAPE  H19S18209   5.346   7.071   8.132  0.2108  0.8719  0.9349
  162SAPE  C22018210   5.142   7.066   8.071  0.0592  0.0430 -0.2505
  162SAPE  H20R18211   5.110   7.115   8.165  0.6907  0.1199 -0.0775
  162SAPE  H20S18212   5.124   6.961   8.103 -2.8872  0.6712  0.3057
  162SAPE  H20T18213   5.072   7.088   7.987 -0.1174  0.6283  0.0479
  162SAPE   C3318214   4.642   5.816   6.685  0.1585 -0.5151 -0.9278
  162SAPE   H3X18215   4.577   5.735   6.645  0.0397 -0.1467 -1.4914
  162SAPE   H3Y18216   4.588   5.910   6.663  0.1428  0.1776  1.9260
  162SAPE   C3418217   4.649   5.804   6.842  0.2229 -0.3819  0.0879
  162SAPE   H4X18218   4.568   5.860   6.893  1.7480  0.5968  1.4732
  162SAPE   H4Y18219   4.740   5.861   6.870  0.6445 -0.6892 -0.6504
  162SAPE   C3518220   4.653   5.657   6.897 -0.2124 -0.1129  0.1154
  162SAPE   H5X18221   4.736   5.596   6.854 -0.2753  0.3671 -0.6933
  162SAPE   H5Y18222   4.560   5.602   6.869 -1.2584  1.5296  0.2686
  162SAPE   C3618223   4.669   5.654   7.049 -0.1289 -0.4910 -0.0272
  162SAPE   H6X18224   4.691   5.546   7.066 -1.8025 -1.1896 -2.1457
  162SAPE   H6Y18225   4.570   5.676   7.095  0.8272  1.1929  1.2843
  162SAPE   C3718226   4.785   5.733   7.114  0.0338  0.2117 -0.9146
  162SAPE   H7X18227   4.789   5.842   7.093 -3.4159  0.4435 -0.6884
  162SAPE   H7Y18228   4.881   5.685   7.086  0.5339 -0.1110  1.2694
  162SAPE   C3818229   4.766   5.713   7.264 -0.1222 -0.1667  0.0051
  162SAPE   H8X18230   4.729   5.611   7.290  3.6512 -1.8143 -0.7540
  162SAPE   H8Y18231   4.681   5.779   7.293  0.7168  1.6065 -1.4586
  162SAPE   C3918232   4.895   5.755   7.346  0.2378 -0.3588  0.4906
  162SAPE   H9X18233   4.909   5.858   7.307  1.1302 -0.7417 -0.2117
  162SAPE   H9Y18234   4.987   5.698   7.323  0.1740 -0.4513  0.4674
  162SAPE  C31018235   4.878   5.750   7.498 -0.3374  0.0073  0.2698
  162SAPE  H10X18236   4.838   5.649   7.522  1.2318 -0.5280  0.6571
  162SAPE  H10Y18237   4.797   5.812   7.544 -0.5395 -1.4574  1.9322
  162SAPE  C31118238   5.006   5.803   7.573  0.0155  0.4025  0.4571
  162SAPE  H11X18239   5.006   5.913   7.562  0.5642  0.2736 -0.9636
  162SAPE  H11Y18240   5.088   5.744   7.527 -0.6363 -0.3123  0.1947
  162SAPE  C31218241   5.005   5.756   7.717  0.1775  0.0057 -0.3572
  162SAPE  H12X18242   5.102   5.780   7.763 -0.0533 -0.8082  0.5688
  162SAPE  H12Y18243   5.004   5.645   7.720 -1.9267  0.0256  0.7612
  162SAPE  C31318244   4.879   5.799   7.797 -0.0667  0.1711 -0.1964
  162SAPE  H13X18245   4.800   5.745   7.741  0.6269 -1.2928  0.2018
  162SAPE  H13Y18246   4.847   5.904   7.780 -1.0804 -0.3051 -1.2995
  162SAPE  C31418247   4.887   5.751   7.944 -0.7700 -0.3635 -0.1618
  162SAPE  H14X18248   4.951   5.821   8.002  1.0244 -1.1036 -1.1853
  162SAPE  H14Y18249   4.954   5.663   7.941 -0.1041  0.0787  1.1438
  162SAPE  C31518250   4.750   5.729   7.996  0.2504 -0.1321 -1.0403
  162SAPE  H15X18251   4.706   5.640   7.948  0.0648 -0.2798 -0.5994
  162SAPE  H15Y18252   4.691   5.822   7.982  0.6836 -0.2714 -4.0476
  162SAPE  C31618253   4.761   5.688   8.146  0.2692  0.3071 -0.3248
  162SAPE  H16X18254   4.664   5.670   8.196  1.7166 -0.7886  2.1982
  162SAPE  H16Y18255   4.806   5.767   8.209 -1.6591  0.5320  0.7768
  162SAPE  C31718256   4.849   5.561   8.174 -0.0406  0.3759 -0.2736
  162SAPE  H17X18257   4.953   5.561   8.135 -0.2332 -1.0937 -0.8080
  162SAPE  H17Y18258   4.805   5.488   8.104  0.7963  0.4916 -0.9331
  162SAPE  C31818259   4.841   5.501   8.317  0.1077  0.1029  0.1713
  162SAPE  H18X18260   4.740   5.460   8.336 -0.8754  2.1874 -0.3866
  162SAPE  H18Y18261   4.851   5.577   8.397 -1.5287  2.1896 -1.5158
  162SAPE  H18Z18262   4.912   5.417   8.326  1.6626  1.2870 -0.7194
  163SAPE     N18263   3.609   4.472   6.462 -0.0811  0.2383 -0.2922
  163SAPE   HN118264   3.706   4.484   6.424  0.0094  1.3427  0.2822
  163SAPE   HN218265   3.587   4.371   6.448 -0.0039  0.1231  0.3908
  163SAPE   HN318266   3.540   4.525   6.406  1.0167  1.0925 -0.8569
  163SAPE   C1218267   3.599   4.488   6.611 -0.0297 -0.3212  0.2334
  163SAPE  H12A18268   3.510   4.434   6.651 -0.3161  1.3402  1.9244
  163SAPE  H12B18269   3.589   4.598   6.627  0.3369  0.1283 -2.4505
  163SAPE   C1118270   3.729   4.423   6.665  0.6306  0.0131 -0.5974
  163SAPE  H11A18271   3.723   4.443   6.775  1.2030 -3.2784  0.0987
  163SAPE  H11B18272   3.820   4.479   6.634  0.4891  0.5392 -0.0924
  163SAPE     P18273   3.882   4.209   6.641 -0.2887 -0.1702 -0.2042
  163SAPE   O1318274   3.861   4.072   6.605 -0.6068  0.0148  0.3344
  163SAPE   O1418275   3.976   4.293   6.560 -0.0181  0.1052 -0.5581
  163SAPE   O1218276   3.743   4.280   6.643  0.0943  0.1781  0.8469
  163SAPE   O1118277   3.912   4.214   6.795  0.4944  0.2641  0.7880
  163SAPE    C118278   3.813   4.183   6.893 -0.4741  0.0983  0.6080
  163SAPE    HA18279   3.760   4.274   6.928  0.3515  1.0518 -0.6020
  163SAPE    HB18280   3.741   4.108   6.855 -0.8469 -0.7829  2.9408
  163SAPE    C218281   3.873   4.122   7.027  0.2172  0.1517 -0.0011
  163SAPE    HS18282   3.784   4.084   7.082 -0.9467  1.3818 -0.9992
  163SAPE   O2118283   3.950   4.211   7.096 -0.2147 -0.0063 -0.4797
  163SAPE   C2118284   3.890   4.289   7.180  0.0654 -0.3123  0.6755
  163SAPE   O2218285   3.771   4.302   7.192  0.1909 -0.1027 -0.2722
  163SAPE   C2218286   3.983   4.358   7.271 -1.0328  0.4985  0.0280
  163SAPE   H2R18287   4.088   4.324   7.261 -0.2526  2.9193 -0.2406
  163SAPE   H2S18288   4.001   4.457   7.224  0.9736  0.2450  0.2074
  163SAPE    C318289   3.964   3.995   6.993 -0.5132  0.1445  0.4863
  163SAPE    HX18290   4.061   4.027   6.950 -0.6204  1.0026  0.8756
  163SAPE    HY18291   3.914   3.931   6.918 -0.4157 -0.0140  0.5573
  163SAPE   O3118292   3.984   3.911   7.111  0.3756  0.3749  0.6495
  163SAPE   C3118293   4.083   3.827   7.106 -0.4811  0.2776  0.4646
  163SAPE   O3218294   4.168   3.813   7.019  0.4105 -0.1336 -0.4725
  163SAPE   C3218295   4.081   3.740   7.227  0.4820 -0.3872  0.4814
  163SAPE   H2X18296   4.031   3.643   7.205 -1.9647  0.5950  1.5153
  163SAPE   H2Y18297   4.026   3.792   7.308  0.3554  0.0363  0.1260
  163SAPE   C2318298   3.932   4.367   7.412 -0.5462  0.0078 -0.1350
  163SAPE   H3R18299   3.825   4.392   7.424 -0.8845 -2.1346  1.5927
  163SAPE   H3S18300   3.978   4.458   7.455  2.9176 -1.0742 -1.3849
  163SAPE   C2418301   3.967   4.247   7.506 -0.1562  0.1086 -0.6756
  163SAPE   H4R18302   3.946   4.281   7.609 -0.9104  2.2552 -1.5020
  163SAPE   H4S18303   4.073   4.217   7.498 -0.6164 -1.6326 -0.3872
  163SAPE   C2518304   3.884   4.120   7.483  0.3549 -0.3901 -0.4014
  163SAPE   H5R18305   3.827   4.104   7.391  0.3171  0.5863 -0.5456
  163SAPE   C2618306   3.897   4.007   7.560 -0.2193 -0.4822  0.3505
  163SAPE   H6R18307   3.839   3.919   7.530 -0.7812  0.2281 -0.6703
  163SAPE   C2718308   3.998   3.995   7.672 -0.7772 -0.0718 -0.1457
  163SAPE   H7R18309   4.076   4.072   7.657 -0.4540 -0.0700  1.3977
  163SAPE   H7S18310   4.055   3.900   7.667 -1.1070 -0.3529  1.1748
  163SAPE   C2818311   3.941   4.012   7.815  0.1995  1.0715 -0.4572
  163SAPE   H8R18312   3.840   4.056   7.822  0.1444  0.8715 -0.0158
  163SAPE   C2918313   4.016   3.995   7.921  0.3690 -0.2176 -0.0594
  163SAPE   H9R18314   3.985   3.999   8.027  0.5971 -3.2567  0.1603
  163SAPE  C21018315   4.161   3.957   7.921  0.2126  0.0874 -0.0781
  163SAPE  H10R18316   4.206   4.041   7.979 -1.1506 -0.4978  1.8547
  163SAPE  H10S18317   4.198   3.971   7.817 -0.7448 -4.0082 -1.0365
  163SAPE  C21118318   4.207   3.824   7.980 -0.2258 -0.1193  0.4194
  163SAPE  H11R18319   4.253   3.758   7.905 -0.4536  0.6187 -0.3780
  163SAPE  C21218320   4.227   3.781   8.104  0.0475  0.3729  0.1727
  163SAPE  H12R18321   4.281   3.685   8.118  1.6172  1.0837 -0.8926
  163SAPE  C21318322   4.182   3.846   8.232  1.0162  0.0649  0.3679
  163SAPE  H13R18323   4.104   3.920   8.204  1.4909  0.1169 -0.8260
  163SAPE  H13S18324   4.263   3.900   8.286 -0.5739  0.9365  1.9542
  163SAPE  C21418325   4.121   3.749   8.328  0.0592 -0.1053 -0.6358
  163SAPE  H14R18326   4.130   3.642   8.302 -1.4158 -0.6648  1.0122
  163SAPE  C21518327   4.068   3.791   8.441 -0.4143 -0.8572 -1.0405
  163SAPE  H15R18328   4.029   3.724   8.519  0.7664  1.5277  1.7081
  163SAPE  C21618329   4.065   3.933   8.487  0.3421 -0.1172  0.4654
  163SAPE  H16R18330   4.076   4.000   8.399 -0.1151  0.7237  1.0495
  163SAPE  H16S18331   4.149   3.949   8.558  0.4723 -1.9208  0.7395
  163SAPE  C21718332   3.938   3.969   8.561 -0.3143  0.3863 -0.7012
  163SAPE  H17R18333   3.925   3.896   8.644  1.4754  0.9729  0.1180
  163SAPE  H17S18334   3.852   3.976   8.491 -1.1862 -1.3548  0.1624
  163SAPE  C21818335   3.960   4.100   8.633  0.5037 -0.3941  0.0210
  163SAPE  H18R18336   3.964   4.179   8.555  0.1207 -1.5696 -1.2166
  163SAPE  H18S18337   4.058   4.100   8.684 -0.1851  0.0811  1.3782
  163SAPE  C21918338   3.836   4.125   8.721 -0.1361  0.7880 -0.2094
  163SAPE  H19R18339   3.804   4.023   8.749  1.0636  0.5413  0.2922
  163SAPE  H19S18340   3.746   4.154   8.663 -0.4042  1.8436  0.7100
  163SAPE  C22018341   3.858   4.213   8.838 -0.0157 -0.2008  0.1445
  163SAPE  H20R18342   3.966   4.210   8.862 -0.1755 -1.5845  0.6863
  163SAPE  H20S18343   3.805   4.172   8.926 -1.2077  0.5517 -0.2019
  163SAPE  H20T18344   3.821   4.316   8.814  0.2528 -0.6447 -2.3147
  163SAPE   C3318345   4.220   3.709   7.282 -0.1338  0.9212  0.2137
  163SAPE   H3X18346   4.265   3.804   7.318 -0.4324  0.2777  2.3426
  163SAPE   H3Y18347   4.303   3.678   7.214  0.0448 -0.0146  0.8439
  163SAPE   C3418348   4.209   3.612   7.399 -0.0477 -0.2375  0.3344
  163SAPE   H4X18349   4.182   3.512   7.357 -0.7599 -0.6779  1.8011
  163SAPE   H4Y18350   4.128   3.649   7.466  0.4477  1.5030 -0.0245
  163SAPE   C3518351   4.328   3.599   7.496 -0.5391 -0.0831  0.2098
  163SAPE   H5X18352   4.319   3.686   7.564 -0.5602 -0.2003  0.3579
  163SAPE   H5Y18353   4.425   3.614   7.443 -1.2486 -0.4818 -1.2130
  163SAPE   C3618354   4.345   3.472   7.580  0.1656 -0.2040 -0.3908
  163SAPE   H6X18355   4.316   3.381   7.524  1.3692 -1.2510  0.6683
  163SAPE   H6Y18356   4.265   3.467   7.657 -0.1657  1.1240 -0.6317
  163SAPE   C3718357   4.473   3.455   7.657 -0.6865 -0.3529  0.1722
  163SAPE   H7X18358   4.518   3.553   7.685 -1.6071  0.1365 -0.0652
  163SAPE   H7Y18359   4.544   3.403   7.589  0.0944 -0.4703  1.0691
  163SAPE   C3818360   4.453   3.374   7.790  0.3167  0.0413  0.4677
  163SAPE   H8X18361   4.557   3.364   7.826  0.8909 -0.1895 -1.1981
  163SAPE   H8Y18362   4.412   3.275   7.763 -0.7980  0.7839 -0.6602
  163SAPE   C3918363   4.354   3.439   7.894 -0.2201 -0.5110  0.4879
  163SAPE   H9X18364   4.247   3.442   7.864  0.3571 -0.3499 -1.6419
  163SAPE   H9Y18365   4.376   3.548   7.897  1.2433 -0.7685 -0.5144
  163SAPE  C31018366   4.357   3.383   8.036 -0.7097  0.4603 -0.2633
  163SAPE  H10X18367   4.345   3.272   8.033  1.4807  0.0649  3.3496
  163SAPE  H10Y18368   4.272   3.430   8.089 -1.1271 -0.8054  0.2071
  163SAPE  C31118369   4.487   3.419   8.108  0.8130 -0.4408 -0.2252
  163SAPE  H11X18370   4.514   3.527   8.110  1.5236 -0.6336  1.4131
  163SAPE  H11Y18371   4.569   3.371   8.050  0.3236  0.4630 -1.6947
  163SAPE  C31218372   4.482   3.374   8.260 -0.3108  0.5281 -0.5007
  163SAPE  H12X18373   4.472   3.263   8.262  1.1636  0.3625 -1.8237
  163SAPE  H12Y18374   4.400   3.423   8.317 -0.0862 -0.9912  1.2001
  163SAPE  C31318375   4.615   3.410   8.321  0.1118  0.1641 -0.0323
  163SAPE  H13X18376   4.622   3.521   8.319  0.8182  0.1525  0.8533
  163SAPE  H13Y18377   4.706   3.371   8.270 -0.1754  2.9523 -2.8371
  163SAPE  C31418378   4.620   3.366   8.473 -1.2364 -0.3588  0.5317
  163SAPE  H14X18379   4.721   3.391   8.512 -2.1835  1.1371  2.0806
  163SAPE  H14Y18380   4.599   3.258   8.488  0.2400 -0.7226  0.0746
  163SAPE  C31518381   4.527   3.451   8.554 -0.2612  0.0797  0.3816
  163SAPE  H15X18382   4.426   3.407   8.543 -0.1088 -1.0704  3.1545
  163SAPE  H15Y18383   4.520   3.557   8.520  1.8026  0.6599  1.6690
  163SAPE  C31618384   4.563   3.453   8.702  0.4965  0.6341 -0.4775
  163SAPE  H16X18385   4.672   3.468   8.715  0.7554 -0.5469 -1.2153
  163SAPE  H16Y18386   4.543   3.346   8.725 -1.7031  0.6993 -1.8882
  163SAPE  C31718387   4.492   3.555   8.791  0.6019  0.6197  0.5643
  163SAPE  H17X18388   4.523   3.659   8.770 -2.4810  1.8493  1.7748
  163SAPE  H17Y18389   4.515   3.536   8.898 -1.6986  0.3859  1.0521
  163SAPE  C31818390   4.334   3.561   8.790  0.2256  0.1385 -0.2448
  163SAPE  H18X18391   4.298   3.564   8.685 -0.1359 -2.0479 -0.1983
  163SAPE  H18Y18392   4.313   3.657   8.842 -0.4661 -0.1418 -0.0082
  163SAPE  H18Z18393   4.297   3.470   8.842  1.0725  0.3892  0.8140
  164SAPE     N18394   0.518   0.700   5.571  0.2279  0.2218  0.0001
  164SAPE   HN118395   0.495   0.710   5.470  1.3361 -0.4807 -0.3307
  164SAPE   HN218396   0.495   0.602   5.595 -1.4337  0.3584 -0.9116
  164SAPE   HN318397   0.463   0.765   5.631 -1.0135 -0.0500 -0.8288
  164SAPE   C1218398   0.665   0.731   5.580  0.9963 -0.1622  0.0962
  164SAPE  H12A18399   0.683   0.823   5.521  0.9268  1.3580  2.3909
  164SAPE  H12B18400   0.718   0.642   5.540 -0.6786 -0.4941 -1.4783
  164SAPE   C1118401   0.688   0.753   5.731 -0.5517  0.4280  0.3278
  164SAPE  H11A18402   0.798   0.764   5.738 -0.5923  1.4925 -0.7422
  164SAPE  H11B18403   0.663   0.665   5.795 -0.7899 -0.1764 -0.5893
  164SAPE     P18404   0.686   0.967   5.877  0.0882 -0.1711  0.4181
  164SAPE   O1318405   0.838   0.961   5.870 -0.1127  0.3194  0.1151
  164SAPE   O1418406   0.634   1.101   5.860 -0.1841  0.3697  0.8665
  164SAPE   O1218407   0.621   0.870   5.771  0.6229  0.0045 -0.3219
  164SAPE   O1118408   0.642   0.909   6.014 -0.5117  0.5975  0.0837
  164SAPE    C118409   0.525   0.826   6.023  0.1406 -0.7630 -0.2249
  164SAPE    HA18410   0.447   0.858   5.950  1.0334 -0.1254 -0.9128
  164SAPE    HB18411   0.556   0.720   6.011 -0.2184 -1.0171  1.0618
  164SAPE    C218412   0.448   0.844   6.161  0.6221 -0.1312 -0.0578
  164SAPE    HS18413   0.425   0.953   6.156 -2.8630 -0.7340  1.2190
  164SAPE   O2118414   0.528   0.813   6.274  0.3361  0.2782 -0.0157
  164SAPE   C2118415   0.521   0.900   6.367  0.4407  0.2994 -0.8403
  164SAPE   O2218416   0.470   1.012   6.369 -0.1464  0.8331  0.3142
  164SAPE   C2218417   0.572   0.835   6.495 -0.0382 -0.8077 -0.2334
  164SAPE   H2R18418   0.500   0.755   6.523 -0.4765  0.0661  1.1583
  164SAPE   H2S18419   0.673   0.792   6.482 -1.4330 -4.6634  0.9680
  164SAPE    C318420   0.318   0.764   6.160 -0.0141 -0.1086  0.3275
  164SAPE    HX18421   0.330   0.657   6.186  0.6914  0.1962  1.3021
  164SAPE    HY18422   0.280   0.766   6.056 -1.2947 -0.9202  0.7709
  164SAPE   O3118423   0.222   0.825   6.247 -0.0807 -0.2098 -0.0421
  164SAPE   C3118424   0.167   0.746   6.341  0.1681 -0.1677  0.1075
  164SAPE   O3218425   0.190   0.628   6.362  0.2137 -0.3485  0.4039
  164SAPE   C3218426   0.063   0.828   6.417 -0.2419 -0.3638 -0.2460
  164SAPE   H2X18427  -0.038   0.787   6.396 -0.4126  0.4688 -1.1154
  164SAPE   H2Y18428   0.062   0.930   6.372  0.5867 -0.0818  0.3572
  164SAPE   C2318429   0.576   0.935   6.615 -0.0636  0.0083  0.3555
  164SAPE   H3R18430   0.481   0.989   6.631 -0.6524 -0.7108 -0.6465
  164SAPE   H3S18431   0.652   1.015   6.601  1.0288 -1.2260 -0.8525
  164SAPE   C2418432   0.605   0.859   6.743 -0.1495  1.0247  0.6088
  164SAPE   H4R18433   0.684   0.782   6.729 -1.2812 -0.1537  0.7305
  164SAPE   H4S18434   0.512   0.801   6.752 -0.7172  1.8866  0.4075
  164SAPE   C2518435   0.622   0.938   6.869 -0.3968  0.1905 -0.4039
  164SAPE   H5R18436   0.647   1.044   6.853  1.9328 -0.6986 -3.1372
  164SAPE   C2618437   0.580   0.889   6.989 -0.3802 -0.0775 -0.1343
  164SAPE   H6R18438   0.618   0.945   7.076  0.0064 -1.3416  0.5344
  164SAPE   C2718439   0.508   0.761   7.014  0.3684 -0.1598 -0.5554
  164SAPE   H7R18440   0.516   0.690   6.929  0.5807 -1.7086  0.7364
  164SAPE   H7S18441   0.400   0.785   7.025  0.4379  0.0242 -0.2376
  164SAPE   C2818442   0.566   0.681   7.127  0.0296  0.2337 -0.1665
  164SAPE   H8R18443   0.673   0.656   7.121  0.4312  1.7331  0.3811
  164SAPE   C2918444   0.505   0.636   7.232  0.3864 -0.5164 -0.6217
  164SAPE   H9R18445   0.556   0.581   7.312 -2.6102 -1.5942  0.6289
  164SAPE  C21018446   0.358   0.637   7.271 -0.4370  0.0241  0.2797
  164SAPE  H10R18447   0.335   0.543   7.326  0.3385 -0.1096  0.3875
  164SAPE  H10S18448   0.295   0.630   7.180 -0.8826  0.1005  0.5811
  164SAPE  C21118449   0.333   0.753   7.373  0.2259  0.6738  0.4924
  164SAPE  H11R18450   0.331   0.850   7.321  1.0567  1.1389  1.3166
  164SAPE  C21218451   0.300   0.741   7.501 -0.6266  0.3240 -0.2648
  164SAPE  H12R18452   0.261   0.831   7.552 -1.2462  0.2243 -0.5653
  164SAPE  C21318453   0.295   0.614   7.584 -0.0149 -0.4709  0.2854
  164SAPE  H13R18454   0.293   0.516   7.530 -1.5713 -1.0755  1.3915
  164SAPE  H13S18455   0.200   0.629   7.641  0.6827  0.0025  1.3279
  164SAPE  C21418456   0.413   0.610   7.675  0.2160  0.1011  0.3653
  164SAPE  H14R18457   0.500   0.562   7.628  1.2818 -0.0895  2.4761
  164SAPE  C21518458   0.422   0.648   7.803  0.0972  0.5321  0.3103
  164SAPE  H15R18459   0.517   0.623   7.853  0.5803 -1.2362 -1.4393
  164SAPE  C21618460   0.310   0.714   7.889 -0.0288  0.0290 -0.4711
  164SAPE  H16R18461   0.240   0.638   7.930  3.0994 -2.0477  1.2399
  164SAPE  H16S18462   0.259   0.778   7.814  0.2263  0.5028 -0.2458
  164SAPE  C21718463   0.355   0.807   8.000  0.2079 -0.2135 -0.3040
  164SAPE  H17R18464   0.416   0.890   7.959 -1.3998 -0.0922 -2.5292
  164SAPE  H17S18465   0.423   0.757   8.072 -1.7011 -2.2685  0.1055
  164SAPE  C21818466   0.243   0.863   8.084  0.4783 -0.2383  0.4777
  164SAPE  H18R18467   0.162   0.792   8.108 -0.1159  1.1717  2.8053
  164SAPE  H18S18468   0.192   0.938   8.020  0.8206 -1.2218 -0.9751
  164SAPE  C21918469   0.294   0.908   8.215 -0.0599 -0.6239 -0.1995
  164SAPE  H19R18470   0.354   1.001   8.201  0.3332 -0.7460  0.6358
  164SAPE  H19S18471   0.362   0.829   8.254 -1.1331 -1.3334  0.2542
  164SAPE  C22018472   0.184   0.924   8.317  0.3264  0.0947  0.0114
  164SAPE  H20R18473   0.111   1.003   8.290  0.8968  1.2355  1.7188
  164SAPE  H20S18474   0.227   0.958   8.414 -1.1795 -0.1448  0.7702
  164SAPE  H20T18475   0.126   0.831   8.334  0.1849 -0.0515 -1.2263
  164SAPE   C3318476   0.086   0.826   6.569 -0.2667 -0.4420 -0.8428
  164SAPE   H3X18477   0.189   0.861   6.588 -0.1361 -0.7390 -0.9980
  164SAPE   H3Y18478   0.076   0.718   6.596  3.9529 -0.3460  1.3955
  164SAPE   C3418479  -0.024   0.905   6.648  0.3245 -0.5271 -0.3207
  164SAPE   H4X18480  -0.121   0.854   6.634  0.4054 -1.6159  2.7333
  164SAPE   H4Y18481  -0.026   1.007   6.603 -1.8921 -0.0754  0.7148
  164SAPE   C3518482   0.020   0.916   6.794  0.3674  0.6263  0.7082
  164SAPE   H5X18483   0.069   0.818   6.812  0.8490  0.5947 -0.6940
  164SAPE   H5Y18484  -0.072   0.930   6.855 -0.5026  2.2479 -0.9076
  164SAPE   C3618485   0.122   1.040   6.814 -0.1451  0.2770  0.0904
  164SAPE   H6X18486   0.056   1.124   6.843  0.5240  0.6418  0.5566
  164SAPE   H6Y18487   0.168   1.059   6.715 -0.2867  0.9139  0.1445
  164SAPE   C3718488   0.215   1.011   6.933 -0.6074  0.1644 -0.2733
  164SAPE   H7X18489   0.299   1.083   6.934 -2.0714  1.9878 -2.1788
  164SAPE   H7Y18490   0.259   0.916   6.896 -1.0590 -0.0759 -0.1989
  164SAPE   C3818491   0.155   0.981   7.070 -0.2236 -0.6532  1.0352
  164SAPE   H8X18492   0.244   0.952   7.129  0.7423 -1.3092 -0.7107
  164SAPE   H8Y18493   0.075   0.904   7.069 -1.4699  0.6079  1.1343
  164SAPE   C3918494   0.095   1.104   7.125  0.3905  0.0348  0.0492
  164SAPE   H9X18495  -0.004   1.134   7.084 -0.6658 -2.0627  0.9993
  164SAPE   H9Y18496   0.169   1.185   7.104  1.4441 -0.0123  3.2424
  164SAPE  C31018497   0.085   1.115   7.275 -0.1079  0.1935  0.1992
  164SAPE  H10X18498   0.054   1.220   7.294  0.1208  0.2203  0.4274
  164SAPE  H10Y18499   0.184   1.105   7.323 -0.2501 -2.1940  0.0317
  164SAPE  C31118500  -0.005   1.021   7.347  0.1798 -0.3111  0.9481
  164SAPE  H11X18501   0.029   0.916   7.332 -1.2874 -0.7399  0.5494
  164SAPE  H11Y18502  -0.106   1.028   7.301 -0.3625 -2.9322  1.7039
  164SAPE  C31218503  -0.017   1.057   7.497  0.2055  1.0555 -0.0632
  164SAPE  H12X18504  -0.083   1.146   7.500  1.2391  1.8419 -0.3081
  164SAPE  H12Y18505   0.078   1.092   7.542  1.1736 -2.2964  0.6497
  164SAPE  C31318506  -0.059   0.937   7.580  1.7550  0.1250  0.0997
  164SAPE  H13X18507  -0.010   0.842   7.549 -1.8496 -0.8389 -3.0095
  164SAPE  H13Y18508  -0.168   0.922   7.563  1.9434  0.8179 -1.9033
  164SAPE  C31418509  -0.027   0.958   7.724 -0.5291 -0.6249 -0.4613
  164SAPE  H14X18510  -0.076   1.053   7.754  0.8924 -0.1606  0.4409
  164SAPE  H14Y18511   0.082   0.954   7.745 -0.7948  3.4323  2.2691
  164SAPE  C31518512  -0.098   0.857   7.816  0.2080  0.4890 -0.3834
  164SAPE  H15X18513  -0.020   0.791   7.860  1.6954  2.1751 -0.4257
  164SAPE  H15Y18514  -0.175   0.797   7.765 -0.1251 -1.0431  1.8667
  164SAPE  C31618515  -0.171   0.937   7.932 -0.9077 -0.6224  0.3156
  164SAPE  H16X18516  -0.254   0.999   7.893  0.8377  1.3097 -0.3951
  164SAPE  H16Y18517  -0.106   1.004   7.993  2.1057 -0.4703 -2.8866
  164SAPE  C31718518  -0.239   0.836   8.031  0.6686 -0.5201  0.4057
  164SAPE  H17X18519  -0.322   0.785   7.977  0.3966  1.9993 -1.6679
  164SAPE  H17Y18520  -0.286   0.903   8.105  2.6111  0.4861  0.7587
  164SAPE  C31818521  -0.139   0.742   8.097  0.1210  0.0495  0.3680
  164SAPE  H18X18522  -0.184   0.691   8.185 -2.0864 -1.1366 -1.4316
  164SAPE  H18Y18523  -0.052   0.799   8.137 -0.4954  0.7359  0.7411
  164SAPE  H18Z18524  -0.100   0.660   8.034  0.2285 -0.9957  1.7829
  165SAPE     N18525   6.543   3.738   6.458  0.1377  0.6672  0.4786
  165SAPE   HN118526   6.509   3.791   6.375 -0.4018  0.3895  0.5218
  165SAPE   HN218527   6.643   3.717   6.439 -0.5594 -3.1029  0.5641
  165SAPE   HN318528   6.498   3.644   6.458 -0.0626  0.7546  1.2659
  165SAPE   C1218529   6.529   3.816   6.583 -0.2607 -1.1504  0.0115
  165SAPE  H12A18530   6.588   3.760   6.658  1.0010 -1.0919 -0.9100
  165SAPE  H12B18531   6.422   3.812   6.612 -0.7534  0.2039 -1.5304
  165SAPE   C1118532   6.579   3.956   6.559  0.5469  0.1129 -0.2762
  165SAPE  H11A18533   6.687   3.962   6.536  0.4971  3.6973  0.0620
  165SAPE  H11B18534   6.570   4.012   6.655 -2.4484  0.4951 -0.7175
  165SAPE     P18535   6.552   4.062   6.317  0.5071  0.1575 -0.0155
  165SAPE   O1318536   6.589   3.938   6.253 -0.7351 -0.3158  0.1472
  165SAPE   O1418537   6.448   4.154   6.256  0.0421  0.0960 -0.2035
  165SAPE   O1218538   6.497   4.023   6.458  0.3061 -0.3042 -0.2106
  165SAPE   O1118539   6.687   4.143   6.348 -0.2931  0.0891  0.2685
  165SAPE    C118540   6.681   4.289   6.352  0.1995 -0.2069 -0.4312
  165SAPE    HA18541   6.677   4.338   6.252 -0.9237  1.5467  0.4526
  165SAPE    HB18542   6.594   4.321   6.412 -1.1075 -2.7565 -0.9188
  165SAPE    C218543   6.803   4.340   6.434 -0.6682 -0.4645 -0.5309
  165SAPE    HS18544   6.888   4.300   6.375 -2.9754 -4.1378 -1.4879
  165SAPE   O2118545   6.789   4.267   6.555  0.6471  0.0155  0.2878
  165SAPE   C2118546   6.891   4.274   6.640  0.1593 -0.3516  0.0608
  165SAPE   O2218547   6.984   4.353   6.626  0.0570  0.3338 -0.3469
  165SAPE   C2218548   6.869   4.172   6.756 -0.3407  0.4114  0.1085
  165SAPE   H2R18549   6.765   4.134   6.765  0.7021 -2.5906 -0.0404
  165SAPE   H2S18550   6.923   4.080   6.725 -3.3118 -1.2873 -0.2103
  165SAPE    C318551   6.809   4.495   6.454 -0.0857 -0.2100  0.4681
  165SAPE    HX18552   6.807   4.552   6.359 -0.3597  1.5506  1.5100
  165SAPE    HY18553   6.907   4.524   6.499  0.5632 -0.1632 -0.9383
  165SAPE   O3118554   6.698   4.519   6.536 -0.4929  0.2789  0.0937
  165SAPE   C3118555   6.687   4.655   6.554  0.0408 -0.3254  0.3979
  165SAPE   O3218556   6.749   4.736   6.492 -0.3720 -0.0130 -0.0124
  165SAPE   C3218557   6.566   4.680   6.640 -0.2166  0.3933 -0.1430
  165SAPE   H2X18558   6.467   4.651   6.599 -1.0763  1.1296  1.3729
  165SAPE   H2Y18559   6.554   4.787   6.669 -1.8670 -0.1227  1.1497
  165SAPE   C2318560   6.915   4.215   6.900  0.3530 -0.3104  0.2364
  165SAPE   H3R18561   6.859   4.307   6.927 -0.1140 -0.4521 -0.2358
  165SAPE   H3S18562   7.022   4.245   6.900  0.2377  0.1699 -2.0022
  165SAPE   C2418563   6.892   4.105   7.007 -0.6627  0.6576 -0.5510
  165SAPE   H4R18564   6.979   4.036   6.997 -0.1461  1.3469 -0.8372
  165SAPE   H4S18565   6.794   4.061   6.978  0.7290 -2.2459 -1.1221
  165SAPE   C2518566   6.879   4.164   7.145  0.7792 -0.0038 -0.3984
  165SAPE   H5R18567   6.791   4.228   7.163  0.2905 -0.7711 -0.0597
  165SAPE   C2618568   6.976   4.154   7.248 -0.1515  0.3547 -0.3523
  165SAPE   H6R18569   6.952   4.216   7.336  1.2847 -1.2103  1.1685
  165SAPE   C2718570   7.101   4.072   7.255  0.1509 -0.3444 -0.1377
  165SAPE   H7R18571   7.190   4.128   7.292  1.0601 -0.9816 -1.3535
  165SAPE   H7S18572   7.131   4.048   7.151 -0.1550  1.2407 -0.5910
  165SAPE   C2818573   7.082   3.937   7.317  0.0461  0.4015 -0.9309
  165SAPE   H8R18574   7.038   3.872   7.240  1.2696 -1.9232  0.2870
  165SAPE   C2918575   7.122   3.886   7.437 -0.0607 -0.1451 -0.5449
  165SAPE   H9R18576   7.080   3.788   7.465 -0.6161  0.0001 -0.8574
  165SAPE  C21018577   7.199   3.968   7.539  0.1536 -0.2039 -0.5546
  165SAPE  H10R18578   7.128   4.019   7.607 -1.2534 -0.5243 -1.7614
  165SAPE  H10S18579   7.257   4.050   7.493  1.2567 -0.5007  0.2675
  165SAPE  C21118580   7.292   3.875   7.613 -0.2608  0.7852  0.0642
  165SAPE  H11R18581   7.356   3.820   7.543 -1.7490 -0.2656 -0.4976
  165SAPE  C21218582   7.296   3.858   7.750  0.1883  0.2565  0.1919
  165SAPE  H12R18583   7.380   3.801   7.794  1.5611  1.1448 -1.2211
  165SAPE  C21318584   7.212   3.928   7.847  0.5363 -0.3969  0.8178
  165SAPE  H13R18585   7.104   3.905   7.848  0.1887  1.0206  4.4333
  165SAPE  H13S18586   7.219   4.035   7.818  2.1165 -1.3254 -2.5229
  165SAPE  C21418587   7.256   3.910   7.992  0.3161 -0.4009  0.0672
  165SAPE  H14R18588   7.340   3.842   8.012  0.4684  0.0091  0.8440
  165SAPE  C21518589   7.223   3.980   8.104 -1.1078  0.0196 -0.2254
  165SAPE  H15R18590   7.265   3.940   8.197 -0.6523 -0.4874 -0.6451
  165SAPE  C21618591   7.123   4.093   8.113  0.0504 -0.1901 -0.1430
  165SAPE  H16R18592   7.088   4.124   8.013 -1.4772 -3.1116 -0.5678
  165SAPE  H16S18593   7.162   4.176   8.176  0.7886 -0.0103 -0.8351
  165SAPE  C21718594   6.995   4.042   8.182  0.2048  0.0148  0.5907
  165SAPE  H17R18595   6.976   3.936   8.154  1.7286  0.0905 -0.8077
  165SAPE  H17S18596   6.909   4.107   8.154 -0.7423 -1.7111 -0.6296
  165SAPE  C21818597   7.013   4.059   8.334  0.3696  0.3532  0.0564
  165SAPE  H18R18598   7.030   4.164   8.364 -2.0465  1.3625 -1.9434
  165SAPE  H18S18599   7.100   3.994   8.361  0.2829 -0.0949 -0.7347
  165SAPE  C21918600   6.893   4.007   8.409 -0.8543  0.0327 -0.0909
  165SAPE  H19R18601   6.897   3.898   8.389  2.3083  0.2406 -0.8781
  165SAPE  H19S18602   6.803   4.053   8.364  0.2987  2.4127 -0.0194
  165SAPE  C22018603   6.895   4.042   8.560 -0.5762  0.3786 -0.3025
  165SAPE  H20R18604   6.824   3.976   8.614  0.6318 -1.8225 -1.3056
  165SAPE  H20S18605   6.875   4.150   8.576 -1.5661  0.4375 -1.7802
  165SAPE  H20T18606   6.999   4.024   8.594 -0.7582  2.9503  1.7765
  165SAPE   C3318607   6.566   4.613   6.780 -0.3314  0.0016 -0.2668
  165SAPE   H3X18608   6.510   4.673   6.855  1.8007  1.2055  0.3848
  165SAPE   H3Y18609   6.671   4.598   6.812 -0.2352 -2.0764 -1.4578
  165SAPE   C3418610   6.485   4.486   6.763  0.8194 -0.3656 -0.2720
  165SAPE   H4X18611   6.513   4.428   6.672 -0.0493 -1.2207 -0.0042
  165SAPE   H4Y18612   6.381   4.519   6.743  0.6723 -1.2674 -1.0459
  165SAPE   C3518613   6.495   4.402   6.891  0.5276 -0.5818 -0.0669
  165SAPE   H5X18614   6.489   4.478   6.971  1.3707 -0.6245  0.0382
  165SAPE   H5Y18615   6.594   4.354   6.902 -0.1179 -2.2038 -1.0859
  165SAPE   C3618616   6.376   4.303   6.907 -0.0815  0.6306 -0.1389
  165SAPE   H6X18617   6.375   4.234   6.820 -0.9812  0.7884 -0.2669
  165SAPE   H6Y18618   6.276   4.353   6.909 -0.3622  0.0602  0.7192
  165SAPE   C3718619   6.383   4.224   7.034 -0.2738 -0.6813 -0.4305
  165SAPE   H7X18620   6.302   4.148   7.033 -1.6853  0.7358  1.9530
  165SAPE   H7Y18621   6.364   4.291   7.120 -0.0031 -0.0165 -0.8832
  165SAPE   C3818622   6.516   4.146   7.062  0.1443  0.5052  0.3226
  165SAPE   H8X18623   6.591   4.219   7.097 -3.0716  2.4306  3.4646
  165SAPE   H8Y18624   6.551   4.086   6.974  1.7113  2.8180 -0.6686
  165SAPE   C3918625   6.499   4.041   7.179 -0.0253 -0.2185  0.1327
  165SAPE   H9X18626   6.596   3.988   7.180  2.0457  3.3105 -1.6622
  165SAPE   H9Y18627   6.415   3.974   7.152  0.7889 -1.5599  0.8914
  165SAPE  C31018628   6.473   4.107   7.315 -0.4712 -0.0419 -0.6996
  165SAPE  H10X18629   6.364   4.131   7.320 -0.0140  1.7044  1.6874
  165SAPE  H10Y18630   6.523   4.206   7.323 -0.5957  0.0246 -0.7295
  165SAPE  C31118631   6.506   4.012   7.439  0.2154 -0.1891 -0.2980
  165SAPE  H11X18632   6.615   4.016   7.459  0.7261  1.5716 -3.1343
  165SAPE  H11Y18633   6.482   3.906   7.414  0.5390 -0.7457  1.6614
  165SAPE  C31218634   6.434   4.044   7.571  0.2605 -0.7064  0.4944
  165SAPE  H12X18635   6.324   4.055   7.556  0.2232 -1.2321  0.3641
  165SAPE  H12Y18636   6.480   4.139   7.607  0.7477 -0.5924 -0.4056
  165SAPE  C31318637   6.475   3.946   7.685  0.4727 -0.4850  0.0025
  165SAPE  H13X18638   6.585   3.929   7.682  0.2952 -1.8066  0.7885
  165SAPE  H13Y18639   6.429   3.847   7.667 -0.1598 -0.2470  0.2753
  165SAPE  C31418640   6.436   4.000   7.821  0.7068  0.4724  0.6145
  165SAPE  H14X18641   6.328   4.025   7.824  0.1110 -1.3967 -2.3678
  165SAPE  H14Y18642   6.493   4.092   7.848 -2.5543  2.9746 -0.6588
  165SAPE  C31518643   6.477   3.910   7.940 -0.1017 -0.6755  0.0366
  165SAPE  H15X18644   6.572   3.860   7.910  1.5524  2.2593  0.0782
  165SAPE  H15Y18645   6.394   3.841   7.964 -1.0137  0.1623 -0.6962
  165SAPE  C31618646   6.515   3.979   8.073 -0.5489  0.1438  0.1571
  165SAPE  H16X18647   6.446   4.062   8.098 -1.2825  0.1095 -1.7258
  165SAPE  H16Y18648   6.612   4.031   8.066  0.3732 -1.4357  0.9539
  165SAPE  C31718649   6.517   3.880   8.187  0.2162 -0.4823 -0.0068
  165SAPE  H17X18650   6.572   3.933   8.268  0.2385 -0.5702  0.0348
  165SAPE  H17Y18651   6.570   3.786   8.159  0.6227 -1.5146  3.9075
  165SAPE  C31818652   6.375   3.840   8.236 -0.6925  0.0105  0.5298
  165SAPE  H18X18653   6.376   3.774   8.325 -1.7156  0.3938  0.8319
  165SAPE  H18Y18654   6.318   3.786   8.157  1.2387 -0.5026 -0.5362
  165SAPE  H18Z18655   6.311   3.928   8.258 -0.1968  0.2219  1.1306
  166SAPE     N18656   6.641   0.627   5.891 -0.1744 -0.0665  0.1255
  166SAPE   HN118657   6.700   0.542   5.905 -0.4866 -0.1403  1.0622
  166SAPE   HN218658   6.664   0.693   5.968  1.1820 -0.6168  0.2077
  166SAPE   HN318659   6.543   0.593   5.901 -0.0477 -1.1009 -1.8671
  166SAPE   C1218660   6.625   0.685   5.758  0.1033  0.8137  0.0591
  166SAPE  H12A18661   6.598   0.605   5.686 -0.4416  0.9528  0.1101
  166SAPE  H12B18662   6.726   0.721   5.728 -0.4480  0.8549 -1.8202
  166SAPE   C1118663   6.529   0.807   5.756 -0.6389  0.2241 -0.0006
  166SAPE  H11A18664   6.426   0.772   5.737 -0.5442  0.6527 -1.3327
  166SAPE  H11B18665   6.548   0.859   5.660  1.2780 -0.6801 -0.1404
  166SAPE     P18666   6.439   1.003   5.895  0.2426  0.0300 -0.5717
  166SAPE   O1318667   6.496   1.094   5.999  0.4204  0.3952 -1.0691
  166SAPE   O1418668   6.403   1.066   5.768  0.0202 -0.0977  0.3041
  166SAPE   O1218669   6.543   0.895   5.865 -0.4239 -0.2866 -0.3418
  166SAPE   O1118670   6.310   0.929   5.945 -0.5311  0.1224  0.4983
  166SAPE    C118671   6.317   0.811   6.029  1.0934  0.0954  0.4306
  166SAPE    HA18672   6.246   0.744   5.976  0.6580  1.0148 -0.1822
  166SAPE    HB18673   6.416   0.764   6.042  0.4499 -1.5702 -0.6018
  166SAPE    C218674   6.254   0.838   6.171 -0.0890 -0.2216 -0.2563
  166SAPE    HS18675   6.170   0.907   6.151 -0.6006 -1.5866 -3.1110
  166SAPE   O2118676   6.357   0.902   6.255 -0.1634 -0.6536 -0.0652
  166SAPE   C2118677   6.309   0.979   6.354  0.0630  0.7634 -0.0275
  166SAPE   O2218678   6.193   1.002   6.374 -0.8291  0.0330  0.2938
  166SAPE   C2218679   6.420   1.024   6.451 -0.5660  0.0969  0.0285
  166SAPE   H2R18680   6.488   0.941   6.481 -1.0377 -0.8451 -1.4506
  166SAPE   H2S18681   6.476   1.106   6.401 -0.3926 -0.0513 -0.0236
  166SAPE    C318682   6.216   0.700   6.237 -0.4309  0.6960 -0.0302
  166SAPE    HX18683   6.307   0.659   6.286 -2.3208 -1.7372  1.5552
  166SAPE    HY18684   6.181   0.628   6.160  1.8012 -1.5423  0.9475
  166SAPE   O3118685   6.109   0.728   6.328  0.5176  0.0438  0.5479
  166SAPE   C3118686   6.122   0.658   6.440  0.3718  0.3846 -0.6679
  166SAPE   O3218687   6.203   0.570   6.468  0.2170 -0.7474 -0.4579
  166SAPE   C3218688   5.998   0.697   6.525 -0.3560  0.2645  0.3102
  166SAPE   H2X18689   5.907   0.686   6.463 -0.6884  1.3079  0.5889
  166SAPE   H2Y18690   6.019   0.805   6.543 -1.1323  0.2256  1.5265
  166SAPE   C2318691   6.356   1.095   6.577  0.5206  0.6561 -0.3109
  166SAPE   H3R18692   6.282   1.173   6.553 -0.9244 -0.7393 -0.4869
  166SAPE   H3S18693   6.437   1.147   6.632  0.7143  0.2910 -0.2502
  166SAPE   C2418694   6.283   0.992   6.665  0.0673  0.1952  1.2462
  166SAPE   H4R18695   6.363   0.922   6.698  1.5077  0.2622 -1.8837
  166SAPE   H4S18696   6.201   0.938   6.613 -0.3853  0.9190  1.1986
  166SAPE   C2518697   6.213   1.049   6.787 -0.0925 -1.2011 -0.2851
  166SAPE   H5R18698   6.137   1.125   6.765  1.4722  2.3572  5.2026
  166SAPE   C2618699   6.248   1.031   6.912 -0.6035 -0.3914 -0.4080
  166SAPE   H6R18700   6.187   1.064   6.997 -0.4849 -1.2962  0.0379
  166SAPE   C2718701   6.365   0.935   6.948  0.0460 -0.0969  0.3107
  166SAPE   H7R18702   6.456   0.966   6.894  0.3049 -2.1950 -0.5277
  166SAPE   H7S18703   6.354   0.831   6.911 -0.9075 -0.1484  0.7085
  166SAPE   C2818704   6.400   0.924   7.097 -0.3643 -0.0352 -0.3024
  166SAPE   H8R18705   6.403   0.821   7.136 -2.0004 -0.8118 -2.1315
  166SAPE   C2918706   6.436   1.024   7.179  0.2201  0.1019  0.5159
  166SAPE   H9R18707   6.455   0.995   7.284  0.1318 -3.2442 -0.3422
  166SAPE  C21018708   6.439   1.176   7.133  0.0263  0.5392  0.3647
  166SAPE  H10R18709   6.334   1.206   7.115  0.5170  1.7213 -0.6128
  166SAPE  H10S18710   6.483   1.177   7.031 -2.2370  1.9409 -0.6199
  166SAPE  C21118711   6.507   1.262   7.229 -0.8201 -0.1623 -0.7984
  166SAPE  H11R18712   6.595   1.314   7.191 -1.1109 -0.4738 -1.9100
  166SAPE  C21218713   6.454   1.296   7.351  0.2723 -0.0988  0.4393
  166SAPE  H12R18714   6.520   1.365   7.407  0.1801 -0.3595  0.8666
  166SAPE  C21318715   6.322   1.258   7.412  0.6970  0.3443  0.1321
  166SAPE  H13R18716   6.258   1.222   7.328 -0.8984 -0.1252  1.5233
  166SAPE  H13S18717   6.261   1.344   7.445  0.6999  0.5198 -0.3187
  166SAPE  C21418718   6.325   1.153   7.522 -0.7954 -0.1711 -0.0483
  166SAPE  H14R18719   6.287   1.052   7.504  1.0214 -0.5537 -1.9074
  166SAPE  C21518720   6.391   1.180   7.643  0.7529  0.7191  0.1078
  166SAPE  H15R18721   6.382   1.096   7.713 -2.5421  0.6913 -0.2666
  166SAPE  C21618722   6.455   1.311   7.689 -0.1420  0.4254 -0.0311
  166SAPE  H16R18723   6.456   1.392   7.613  0.8206  0.9628  0.5369
  166SAPE  H16S18724   6.563   1.299   7.712 -0.4588  1.8968  2.4237
  166SAPE  C21718725   6.383   1.372   7.816 -1.0242 -0.5359 -0.1247
  166SAPE  H17R18726   6.272   1.376   7.814 -1.1141 -1.5969  1.2663
  166SAPE  H17S18727   6.422   1.475   7.802 -0.6124 -0.7898 -0.8574
  166SAPE  C21818728   6.418   1.313   7.952 -0.7458  0.5268 -0.5517
  166SAPE  H18R18729   6.440   1.204   7.946  2.9507  1.1745  0.1073
  166SAPE  H18S18730   6.332   1.310   8.022  1.1104  3.2867  1.9621
  166SAPE  C21918731   6.537   1.391   8.009  0.2123  0.0746 -0.2805
  166SAPE  H19R18732   6.524   1.502   8.008 -0.6008 -0.0176 -0.9840
  166SAPE  H19S18733   6.621   1.372   7.939  1.8096  0.2062  1.5583
  166SAPE  C22018734   6.572   1.359   8.155 -0.4267 -0.8321 -0.4082
  166SAPE  H20R18735   6.569   1.249   8.171 -2.7849 -0.5569  1.3640
  166SAPE  H20S18736   6.489   1.400   8.216  0.1337  2.3593 -1.6712
  166SAPE  H20T18737   6.663   1.413   8.189 -1.0271 -0.6070  0.8658
  166SAPE   C3318738   5.977   0.630   6.664  0.7318 -0.1128  0.1446
  166SAPE   H3X18739   5.968   0.520   6.648  0.7942 -0.1570  0.4092
  166SAPE   H3Y18740   5.878   0.666   6.699  1.4651  0.2070  1.8875
  166SAPE   C3418741   6.070   0.663   6.774  0.1509 -0.6619 -0.3011
  166SAPE   H4X18742   6.065   0.773   6.785 -0.9230 -0.8246  1.0176
  166SAPE   H4Y18743   6.174   0.629   6.756  0.4344  0.2532 -0.4236
  166SAPE   C3518744   6.014   0.594   6.908 -0.6951 -0.6754 -0.0961
  166SAPE   H5X18745   6.023   0.486   6.884  1.6543 -0.5952  0.2993
  166SAPE   H5Y18746   5.905   0.609   6.917 -0.5417  0.0977  0.5373
  166SAPE   C3618747   6.095   0.635   7.031 -0.2607  0.1820 -0.5871
  166SAPE   H6X18748   6.093   0.745   7.044  0.9791 -0.1191  2.3793
  166SAPE   H6Y18749   6.198   0.602   7.007 -1.1051 -2.5326 -0.7579
  166SAPE   C3718750   6.033   0.576   7.161 -0.2249 -0.7438 -0.1287
  166SAPE   H7X18751   6.039   0.465   7.162 -1.1622 -0.7959  0.1815
  166SAPE   H7Y18752   5.928   0.613   7.161  0.8705  2.5864 -0.9343
  166SAPE   C3818753   6.091   0.649   7.287 -0.2561 -0.1845  0.4232
  166SAPE   H8X18754   6.074   0.758   7.279 -0.4575 -0.3026 -0.9294
  166SAPE   H8Y18755   6.202   0.652   7.273 -0.5099 -0.8990 -1.9912
  166SAPE   C3918756   6.058   0.585   7.429 -0.2795 -0.5901 -0.1816
  166SAPE   H9X18757   6.107   0.486   7.441  1.4627  0.3355  0.4457
  166SAPE   H9Y18758   5.950   0.564   7.417  0.0369 -1.7993 -0.9686
  166SAPE  C31018759   6.083   0.684   7.538 -0.5782  0.4329 -0.3451
  166SAPE  H10X18760   6.045   0.786   7.519 -0.9854  0.6791  1.6668
  166SAPE  H10Y18761   6.193   0.699   7.541 -0.5042 -0.3338  1.8346
  166SAPE  C31118762   6.026   0.636   7.668 -0.3818 -0.1279 -0.3937
  166SAPE  H11X18763   6.073   0.540   7.698  0.9056  0.2190 -1.2727
  166SAPE  H11Y18764   5.922   0.602   7.649 -1.0221  0.7912  1.3791
  166SAPE  C31218765   6.038   0.749   7.773 -0.4912  0.9081 -0.2237
  166SAPE  H12X18766   5.959   0.824   7.753 -0.6108  1.2420  1.4755
  166SAPE  H12Y18767   6.136   0.800   7.772  0.0178 -0.0650 -1.3004
  166SAPE  C31318768   6.014   0.685   7.913 -0.4799  0.2866 -0.3491
  166SAPE  H13X18769   6.084   0.603   7.939 -0.6503  0.4589  0.6564
  166SAPE  H13Y18770   5.911   0.646   7.926 -0.2162 -0.2516  0.1061
  166SAPE  C31418771   6.022   0.791   8.018 -0.0128 -0.3679 -0.1163
  166SAPE  H14X18772   5.942   0.868   8.013  1.4645  1.3406  1.7350
  166SAPE  H14Y18773   6.116   0.850   8.007 -0.6464  0.3808 -1.6022
  166SAPE  C31518774   6.023   0.742   8.167 -0.2359  0.0901 -0.1606
  166SAPE  H15X18775   6.118   0.686   8.180 -0.5404 -0.4535 -0.2865
  166SAPE  H15Y18776   5.947   0.662   8.181  0.6449 -0.9902 -1.5041
  166SAPE  C31618777   5.990   0.849   8.271  0.0716 -0.0268  0.2365
  166SAPE  H16X18778   5.998   0.800   8.370 -0.8506 -0.7795 -0.0450
  166SAPE  H16Y18779   5.888   0.887   8.249 -0.6312 -2.1125 -0.2190
  166SAPE  C31718780   6.085   0.976   8.270  1.1766 -0.7782 -0.5196
  166SAPE  H17X18781   6.029   1.043   8.339  2.0839 -0.7027  0.1557
  166SAPE  H17Y18782   6.089   1.036   8.177  3.3210  0.4396  0.3211
  166SAPE  C31818783   6.218   0.943   8.342  0.2860  0.0023 -0.0090
  166SAPE  H18X18784   6.196   0.877   8.428 -2.0127 -0.2398 -0.7542
  166SAPE  H18Y18785   6.259   1.038   8.382  0.2913  0.0041 -0.0192
  166SAPE  H18Z18786   6.292   0.896   8.274 -0.5022  0.3732 -1.1308
  167SAPE     N18787   0.814   6.172   5.839 -0.1203 -0.6412 -0.5794
  167SAPE   HN118788   0.805   6.123   5.748  0.8031  0.0718 -1.0677
  167SAPE   HN218789   0.814   6.274   5.817 -0.5689 -0.5356 -0.1025
  167SAPE   HN318790   0.901   6.151   5.892 -0.4864 -0.9217 -0.0747
  167SAPE   C1218791   0.696   6.132   5.934  0.1911 -0.1810  0.1734
  167SAPE  H12A18792   0.727   6.034   5.975  1.6347 -0.8102 -2.3247
  167SAPE  H12B18793   0.603   6.123   5.873  0.9628  0.5736 -1.1325
  167SAPE   C1118794   0.674   6.235   6.043 -0.4859  0.6018  0.0394
  167SAPE  H11A18795   0.768   6.245   6.102 -0.3110  2.0827 -0.4617
  167SAPE  H11B18796   0.592   6.192   6.104  0.1400  0.6986  0.9512
  167SAPE     P18797   0.586   6.490   6.062 -0.0066  0.3032 -0.3069
  167SAPE   O1318798   0.660   6.601   6.007 -0.0329 -0.2211  0.0622
  167SAPE   O1418799   0.435   6.511   6.059 -0.1489 -0.5675 -0.3585
  167SAPE   O1218800   0.631   6.358   5.993  0.6000  0.1241  0.0275
  167SAPE   O1118801   0.636   6.467   6.211 -0.1212 -0.2038  0.4694
  167SAPE    C118802   0.567   6.383   6.310 -0.3469 -0.0270  0.7542
  167SAPE    HA18803   0.522   6.290   6.271  2.3175 -1.2032  0.3393
  167SAPE    HB18804   0.647   6.349   6.379  0.1612  0.7375  0.5496
  167SAPE    C218805   0.460   6.465   6.389  0.0596  0.7851  0.2211
  167SAPE    HS18806   0.416   6.529   6.309  1.1701 -0.7923 -1.7136
  167SAPE   O2118807   0.528   6.559   6.478 -0.2294  0.6387 -0.1520
  167SAPE   C2118808   0.452   6.659   6.515  0.0255  0.0438  0.1219
  167SAPE   O2218809   0.330   6.670   6.496 -0.3212  0.3969 -0.7209
  167SAPE   C2218810   0.532   6.775   6.582  0.0321 -0.2087  0.0768
  167SAPE   H2R18811   0.593   6.823   6.502  0.8146 -2.3691 -0.6389
  167SAPE   H2S18812   0.459   6.847   6.625 -1.8821 -2.0031 -0.0733
  167SAPE    C318813   0.347   6.375   6.449  0.2992 -0.0090 -0.2984
  167SAPE    HX18814   0.292   6.310   6.377  4.2047 -2.7502 -0.9915
  167SAPE    HY18815   0.266   6.437   6.493  0.2058 -0.2390 -0.1407
  167SAPE   O3118816   0.393   6.289   6.558 -0.1864  0.4343 -0.4553
  167SAPE   C3118817   0.398   6.161   6.526 -0.4962  0.1713  0.8321
  167SAPE   O3218818   0.374   6.107   6.420  0.0666 -0.0088 -0.4854
  167SAPE   C3218819   0.439   6.079   6.647 -0.1275 -0.0036 -0.1156
  167SAPE   H2X18820   0.518   6.009   6.612 -0.2888  0.4630 -1.4461
  167SAPE   H2Y18821   0.347   6.027   6.682 -1.4716  1.0018 -2.0533
  167SAPE   C2318822   0.617   6.728   6.704  0.9114  0.0136 -0.6108
  167SAPE   H3R18823   0.696   6.805   6.717  1.1089 -0.2805 -0.0697
  167SAPE   H3S18824   0.671   6.632   6.696  0.4177 -0.5476  2.2692
  167SAPE   C2418825   0.537   6.731   6.837 -0.3472  0.3180  0.0465
  167SAPE   H4R18826   0.496   6.834   6.846 -0.4784  0.2775 -0.0805
  167SAPE   H4S18827   0.602   6.722   6.926  0.2954 -2.0095 -0.6245
  167SAPE   C2518828   0.415   6.649   6.852  0.0163  0.3284  0.7580
  167SAPE   H5R18829   0.360   6.649   6.757  3.2744 -2.4017 -1.2794
  167SAPE   C2618830   0.377   6.573   6.960 -0.3083 -0.4849  0.3901
  167SAPE   H6R18831   0.285   6.513   6.954 -1.7063  1.7858 -1.4614
  167SAPE   C2718832   0.447   6.553   7.091 -0.5605  0.0329 -0.1332
  167SAPE   H7R18833   0.554   6.528   7.079 -0.5990 -0.7431  1.1039
  167SAPE   H7S18834   0.410   6.465   7.148 -1.4350  1.8798  2.2462
  167SAPE   C2818835   0.443   6.680   7.173 -0.5371 -0.0001  0.6991
  167SAPE   H8R18836   0.452   6.773   7.116 -1.1373 -1.3335 -1.6872
  167SAPE   C2918837   0.450   6.690   7.306 -0.8255 -0.0894  0.1074
  167SAPE   H9R18838   0.438   6.787   7.356  0.4716  1.4581 -2.4886
  167SAPE  C21018839   0.454   6.580   7.400  0.0111  0.1946  0.3590
  167SAPE  H10R18840   0.529   6.597   7.480  0.4387 -0.0821  0.0160
  167SAPE  H10S18841   0.504   6.492   7.355  0.8777  1.7194 -1.7326
  167SAPE  C21118842   0.330   6.535   7.473 -1.1508 -0.0910  0.3333
  167SAPE  H11R18843   0.257   6.494   7.401  0.4078 -0.8036 -0.8876
  167SAPE  C21218844   0.297   6.568   7.597 -0.5202  0.1683  0.1101
  167SAPE  H12R18845   0.206   6.524   7.639 -1.1487  2.1977  0.9195
  167SAPE  C21318846   0.380   6.637   7.697 -0.0220 -0.6868  0.5742
  167SAPE  H13R18847   0.417   6.737   7.666 -1.1887 -0.9666 -1.8593
  167SAPE  H13S18848   0.476   6.582   7.706 -0.1038 -0.5612  2.2844
  167SAPE  C21418849   0.312   6.665   7.834 -0.0895  0.1826  0.3927
  167SAPE  H14R18850   0.255   6.760   7.835 -2.4103 -1.1581 -0.2130
  167SAPE  C21518851   0.320   6.602   7.941 -0.3543  0.2287 -1.1944
  167SAPE  H15R18852   0.269   6.641   8.030 -1.1372 -0.6704 -1.2332
  167SAPE  C21618853   0.395   6.481   7.972  0.6678 -0.0029  0.3306
  167SAPE  H16R18854   0.445   6.440   7.881  0.4603  2.3648 -0.8754
  167SAPE  H16S18855   0.322   6.407   8.011  1.2293 -1.4361 -1.2323
  167SAPE  C21718856   0.498   6.522   8.085 -0.6741 -0.4203 -0.8159
  167SAPE  H17R18857   0.443   6.573   8.168  1.7708  0.2685  0.4375
  167SAPE  H17S18858   0.574   6.589   8.041 -0.8116  0.0072 -0.4150
  167SAPE  C21818859   0.573   6.405   8.150  0.3874  0.3394 -0.0018
  167SAPE  H18R18860   0.646   6.431   8.230  0.0368  1.2382  0.0361
  167SAPE  H18S18861   0.627   6.350   8.070 -0.3764 -0.8754  0.3071
  167SAPE  C21918862   0.480   6.311   8.223 -0.3147 -0.7547 -0.0334
  167SAPE  H19R18863   0.385   6.293   8.167 -2.4855 -0.1254  3.2888
  167SAPE  H19S18864   0.445   6.363   8.315 -0.1977 -0.6690 -0.0372
  167SAPE  C22018865   0.548   6.175   8.258 -0.6067 -0.2396 -0.6171
  167SAPE  H20R18866   0.649   6.195   8.300 -0.2725 -1.9266 -0.5638
  167SAPE  H20S18867   0.547   6.101   8.175  0.3642  0.0924 -0.9266
  167SAPE  H20T18868   0.486   6.138   8.342  1.7368  0.0526  1.2841
  167SAPE   C3318869   0.497   6.163   6.767 -0.2423 -0.0416  0.4097
  167SAPE   H3X18870   0.411   6.223   6.804  0.6614  0.1328  2.3011
  167SAPE   H3Y18871   0.562   6.243   6.726 -0.1244  1.1235  2.7840
  167SAPE   C3418872   0.557   6.086   6.881 -0.1214 -0.2191 -0.1574
  167SAPE   H4X18873   0.637   6.023   6.835 -1.6706 -1.4323 -1.2107
  167SAPE   H4Y18874   0.474   6.018   6.908  1.6102 -1.7509  1.5037
  167SAPE   C3518875   0.604   6.170   6.996  0.6472  0.7337 -0.6366
  167SAPE   H5X18876   0.516   6.233   7.023 -0.0006  0.8492 -2.8804
  167SAPE   H5Y18877   0.685   6.236   6.959 -0.8778  1.9222 -1.9695
  167SAPE   C3618878   0.650   6.096   7.123 -0.5177 -1.0857 -0.3132
  167SAPE   H6X18879   0.728   6.024   7.089  0.4908 -1.0128  1.7568
  167SAPE   H6Y18880   0.577   6.024   7.165 -1.0654  0.8023  2.0714
  167SAPE   C3718881   0.713   6.184   7.226 -0.4601 -0.1472 -0.7063
  167SAPE   H7X18882   0.649   6.273   7.244 -0.0470 -0.1686  1.0009
  167SAPE   H7Y18883   0.812   6.219   7.190  0.6242 -0.8505  1.4652
  167SAPE   C3818884   0.729   6.118   7.367 -0.1298  0.1215  0.1198
  167SAPE   H8X18885   0.803   6.178   7.424  2.9117 -0.5697 -2.9657
  167SAPE   H8Y18886   0.774   6.019   7.345 -0.0184  0.1125  0.3858
  167SAPE   C3918887   0.596   6.099   7.433 -0.0735 -0.5961 -1.0270
  167SAPE   H9X18888   0.531   6.045   7.361 -1.9781 -0.5792  0.6419
  167SAPE   H9Y18889   0.552   6.195   7.468 -3.4853 -1.1598 -3.5016
  167SAPE  C31018890   0.609   6.013   7.558  0.4399 -0.8486  0.0406
  167SAPE  H10X18891   0.693   6.059   7.614  1.9033 -2.0306 -1.1290
  167SAPE  H10Y18892   0.634   5.907   7.536 -0.2239 -0.8530 -0.7155
  167SAPE  C31118893   0.481   6.019   7.641 -0.2152  1.2797  0.2680
  167SAPE  H11X18894   0.400   5.979   7.576  1.4894 -1.1017 -0.4363
  167SAPE  H11Y18895   0.454   6.123   7.671 -1.6679  1.0167 -0.0673
  167SAPE  C31218896   0.495   5.920   7.756 -0.1077 -0.2473  0.1850
  167SAPE  H12X18897   0.576   5.960   7.821  0.6651 -0.4709 -0.6222
  167SAPE  H12Y18898   0.519   5.816   7.726 -2.3791 -0.8435  0.3308
  167SAPE  C31318899   0.365   5.906   7.837 -0.1063 -0.1932 -0.2034
  167SAPE  H13X18900   0.282   5.882   7.767  1.2715 -0.9543 -1.6178
  167SAPE  H13Y18901   0.342   6.004   7.883 -2.0358 -0.4878 -0.5142
  167SAPE  C31418902   0.368   5.793   7.936 -0.1419  0.1565 -0.2759
  167SAPE  H14X18903   0.393   5.694   7.892  0.0306 -1.2185  2.7730
  167SAPE  H14Y18904   0.263   5.780   7.970  0.1051 -2.3842 -0.3806
  167SAPE  C31518905   0.444   5.834   8.063  0.0758 -0.2279  0.7928
  167SAPE  H15X18906   0.411   5.933   8.103  2.4651  1.7473 -1.9012
  167SAPE  H15Y18907   0.551   5.842   8.036 -0.7999  2.5044 -2.0877
  167SAPE  C31618908   0.429   5.725   8.174 -0.5465  0.3825  0.2306
  167SAPE  H16X18909   0.495   5.747   8.261 -0.8305 -1.3743  0.9161
  167SAPE  H16Y18910   0.448   5.632   8.117 -1.1987  0.6180 -0.3771
  167SAPE  C31718911   0.291   5.721   8.239 -0.7662  0.0663  1.1955
  167SAPE  H17X18912   0.293   5.624   8.292  0.3592 -1.7009 -1.9694
  167SAPE  H17Y18913   0.206   5.713   8.167  0.2002  0.0219  0.0499
  167SAPE  C31818914   0.266   5.835   8.346 -0.1214 -0.6373  0.1308
  167SAPE  H18X18915   0.215   5.781   8.429 -1.8466  2.7468  1.3791
  167SAPE  H18Y18916   0.200   5.919   8.316  1.4898  1.3803  2.1174
  167SAPE  H18Z18917   0.366   5.868   8.381 -0.0557  0.3271 -0.9403
  168SAPE     N18918   2.478   2.524   6.213  0.0376  0.2045  0.1944
  168SAPE   HN118919   2.495   2.608   6.271 -1.1145 -0.9458  2.2385
  168SAPE   HN218920   2.574   2.492   6.185 -1.0839 -2.1155 -1.1859
  168SAPE   HN318921   2.447   2.567   6.124 -0.4949  1.3465  0.9249
  168SAPE   C1218922   2.387   2.423   6.288  0.0630  0.1297 -0.9319
  168SAPE  H12A18923   2.378   2.331   6.227 -1.4396  0.4358 -1.1969
  168SAPE  H12B18924   2.285   2.468   6.291  0.0900  0.1198  1.8252
  168SAPE   C1118925   2.436   2.386   6.429 -0.4678  0.2192  0.1338
  168SAPE  H11A18926   2.355   2.326   6.476 -0.4841  2.0309  2.4610
  168SAPE  H11B18927   2.452   2.477   6.491  0.4535  1.5678 -2.0114
  168SAPE     P18928   2.675   2.299   6.496 -0.3708 -0.4301 -0.1908
  168SAPE   O1318929   2.754   2.184   6.450  0.3763  0.7284 -0.0908
  168SAPE   O1418930   2.734   2.434   6.483 -0.4657 -0.0785  0.7465
  168SAPE   O1218931   2.540   2.294   6.420 -0.5356  0.1091  0.7896
  168SAPE   O1118932   2.632   2.284   6.655 -0.6065  0.7629  0.1294
  168SAPE    C118933   2.657   2.159   6.716 -0.0371  0.2136 -0.0984
  168SAPE    HA18934   2.761   2.121   6.706 -0.6469 -2.3314  2.5624
  168SAPE    HB18935   2.662   2.177   6.825  0.4058 -2.3883  0.3568
  168SAPE    C218936   2.561   2.047   6.682 -0.0789 -0.2406  0.1076
  168SAPE    HS18937   2.583   2.026   6.576 -0.7053 -2.0985  0.3290
  168SAPE   O2118938   2.424   2.090   6.704 -0.5606 -0.3178  0.2810
  168SAPE   C2118939   2.330   2.003   6.648 -0.3404 -0.3142 -0.4276
  168SAPE   O2218940   2.354   1.913   6.573  0.2009 -0.7455  0.2305
  168SAPE   C2218941   2.194   2.069   6.668  0.0008 -0.2117  0.2617
  168SAPE   H2R18942   2.198   2.137   6.755  2.6684  2.0798 -1.5496
  168SAPE   H2S18943   2.191   2.132   6.576 -0.7679  1.4938  1.4248
  168SAPE    C318944   2.594   1.911   6.767  0.6695 -0.4613 -0.8506
  168SAPE    HX18945   2.697   1.880   6.740  0.3609 -1.2686 -1.1070
  168SAPE    HY18946   2.526   1.836   6.723  0.4564 -0.9777  0.3326
  168SAPE   O3118947   2.574   1.922   6.912 -0.0339  0.4728  1.0075
  168SAPE   C3118948   2.679   1.921   6.994  0.3775 -0.2839  0.5670
  168SAPE   O3218949   2.794   1.910   6.958 -0.2357 -0.0247 -0.6773
  168SAPE   C3218950   2.620   1.878   7.127  0.3083 -0.1951  0.1305
  168SAPE   H2X18951   2.583   1.774   7.123 -0.0022 -0.0564 -0.6084
  168SAPE   H2Y18952   2.539   1.948   7.158  0.0619 -0.7165  0.6707
  168SAPE   C2318953   2.082   1.962   6.682 -0.2031  0.2890  0.1754
  168SAPE   H3R18954   2.121   1.877   6.742 -0.5112  1.6699  2.3861
  168SAPE   H3S18955   2.062   1.922   6.580 -0.4919  1.3232 -0.1863
  168SAPE   C2418956   1.960   2.014   6.753  0.8341 -0.7021  0.0198
  168SAPE   H4R18957   1.932   2.114   6.714 -0.4355 -1.3937 -0.8495
  168SAPE   H4S18958   1.988   2.037   6.858  0.0916  1.8244 -0.2913
  168SAPE   C2518959   1.850   1.913   6.737 -0.1342 -0.3938 -0.1436
  168SAPE   H5R18960   1.799   1.913   6.640  1.1578 -3.5777 -0.8891
  168SAPE   C2618961   1.801   1.831   6.838  0.0010  0.4120  0.7174
  168SAPE   H6R18962   1.716   1.765   6.812  0.2116  0.3750  0.1272
  168SAPE   C2718963   1.843   1.840   6.981  0.0147  0.1047 -0.6260
  168SAPE   H7R18964   1.830   1.940   7.030  0.9335 -0.7177  1.3560
  168SAPE   H7S18965   1.950   1.814   6.990  0.1064  0.7260  0.1671
  168SAPE   C2818966   1.788   1.731   7.064  0.2835 -0.4375 -0.5848
  168SAPE   H8R18967   1.831   1.631   7.046  2.4538  0.0690  1.4602
  168SAPE   C2918968   1.693   1.748   7.152  0.2608  0.6229 -0.1877
  168SAPE   H9R18969   1.670   1.660   7.215 -1.4493  0.1258 -1.4755
  168SAPE  C21018970   1.610   1.870   7.178 -0.0552  0.1393 -0.6110
  168SAPE  H10R18971   1.509   1.867   7.133 -0.3829  2.6380 -0.1130
  168SAPE  H10S18972   1.663   1.956   7.132  2.7494 -0.8743  0.6060
  168SAPE  C21118973   1.614   1.895   7.325 -0.6666 -0.3452  1.0561
  168SAPE  H11R18974   1.691   1.965   7.362 -1.7252  0.6122  1.4815
  168SAPE  C21218975   1.535   1.853   7.421  0.9678 -0.7977  0.1247
  168SAPE  H12R18976   1.558   1.884   7.525 -0.6369 -2.3066  0.9585
  168SAPE  C21318977   1.417   1.763   7.403 -0.2797 -0.1489  0.2347
  168SAPE  H13R18978   1.455   1.661   7.381  0.4066  0.6148 -2.4341
  168SAPE  H13S18979   1.355   1.792   7.315 -0.8492  0.1049  0.7159
  168SAPE  C21418980   1.334   1.759   7.526  0.0571 -0.2973  0.1968
  168SAPE  H14R18981   1.274   1.850   7.545  2.6468  1.3498  0.8033
  168SAPE  C21518982   1.318   1.654   7.608 -0.2204  0.1942  0.2224
  168SAPE  H15R18983   1.256   1.659   7.699  0.1087 -1.2441  0.5497
  168SAPE  C21618984   1.390   1.520   7.599 -0.3836  0.1288  0.2601
  168SAPE  H16R18985   1.446   1.505   7.694 -0.5718 -3.6211 -0.1591
  168SAPE  H16S18986   1.460   1.505   7.514  0.6779  1.2774  0.9151
  168SAPE  C21718987   1.291   1.401   7.570  0.1243  0.3937 -0.4435
  168SAPE  H17R18988   1.210   1.400   7.645 -0.5267  0.3129 -1.1364
  168SAPE  H17S18989   1.346   1.304   7.561  0.8651  0.6879  0.8138
  168SAPE  C21818990   1.223   1.397   7.435 -0.5421 -0.5616  0.4438
  168SAPE  H18R18991   1.307   1.403   7.362 -0.9746 -0.0700 -0.0212
  168SAPE  H18S18992   1.157   1.482   7.408 -0.2736 -0.6917 -0.6715
  168SAPE  C21918993   1.141   1.275   7.386 -0.6088 -0.0560 -0.4812
  168SAPE  H19R18994   1.207   1.185   7.385 -0.8026 -0.2051 -0.1792
  168SAPE  H19S18995   1.111   1.298   7.282 -0.7666 -0.8464 -0.6116
  168SAPE  C22018996   1.020   1.245   7.480  0.0665 -0.0884  0.5153
  168SAPE  H20R18997   1.058   1.186   7.565 -0.7976 -3.1989 -1.1745
  168SAPE  H20S18998   0.939   1.190   7.428 -0.0383  1.1846 -0.7081
  168SAPE  H20T18999   0.982   1.344   7.512  1.7776  0.3920  1.1049
  168SAPE   C3319000   2.725   1.886   7.240  0.0874  0.5238  0.4214
  168SAPE   H3X19001   2.779   1.982   7.250 -2.7519  2.0426  1.8454
  168SAPE   H3Y19002   2.810   1.821   7.210 -0.4210  1.3134 -3.0213
  168SAPE   C3419003   2.670   1.840   7.374  0.3077  0.2887  0.4390
  168SAPE   H4X19004   2.581   1.899   7.406 -0.9602 -2.0388  1.3009
  168SAPE   H4Y19005   2.750   1.855   7.450 -2.1790 -0.1323  3.2224
  168SAPE   C3519006   2.627   1.687   7.387 -1.1143 -0.0711 -0.0758
  168SAPE   H5X19007   2.700   1.617   7.341 -0.8778  0.7816 -1.0070
  168SAPE   H5Y19008   2.528   1.677   7.335 -1.7047  1.1709  0.8003
  168SAPE   C3619009   2.617   1.629   7.534 -0.1588 -0.2779 -0.4927
  168SAPE   H6X19010   2.720   1.624   7.574 -0.4594  2.1478  0.7192
  168SAPE   H6Y19011   2.573   1.528   7.548 -0.6808  0.1857  1.4021
  168SAPE   C3719012   2.553   1.742   7.622 -0.3651  0.3971 -0.2956
  168SAPE   H7X19013   2.453   1.773   7.588 -0.7791  0.0284  0.5757
  168SAPE   H7Y19014   2.618   1.832   7.614 -1.2905  1.0708 -0.2346
  168SAPE   C3819015   2.532   1.709   7.768  1.1348  0.7335  0.1736
  168SAPE   H8X19016   2.509   1.805   7.820 -0.5467  0.8497 -0.7527
  168SAPE   H8Y19017   2.613   1.656   7.821 -0.0413 -0.8731  0.3938
  168SAPE   C3919018   2.406   1.621   7.805 -0.4843  0.6092  1.2414
  168SAPE   H9X19019   2.422   1.596   7.912  2.0081  0.2214  0.8015
  168SAPE   H9Y19020   2.417   1.528   7.745  0.8730  0.5817  1.5358
  168SAPE  C31019021   2.265   1.681   7.789 -0.4009 -0.1079 -0.0903
  168SAPE  H10X19022   2.189   1.605   7.814 -2.1809  1.0555 -1.7983
  168SAPE  H10Y19023   2.240   1.727   7.691  1.9132  1.3324 -0.0539
  168SAPE  C31119024   2.234   1.792   7.892  0.5152 -0.5083  0.1023
  168SAPE  H11X19025   2.136   1.839   7.871  0.8748 -0.0863 -0.6267
  168SAPE  H11Y19026   2.304   1.871   7.861  1.4661 -0.4021  2.3859
  168SAPE  C31219027   2.250   1.752   8.036 -0.0551 -0.5874  0.6712
  168SAPE  H12X19028   2.358   1.761   8.062  0.1141  3.1068 -0.8580
  168SAPE  H12Y19029   2.226   1.645   8.054  0.6120 -0.9084 -0.2989
  168SAPE  C31319030   2.176   1.843   8.136  0.1628 -0.3787  0.4455
  168SAPE  H13X19031   2.067   1.824   8.126 -0.2967  1.8095  1.0007
  168SAPE  H13Y19032   2.197   1.949   8.113 -0.4672 -0.3906 -0.2102
  168SAPE  C31419033   2.219   1.807   8.276 -0.5552 -0.1868 -0.0544
  168SAPE  H14X19034   2.197   1.880   8.357 -0.3658 -0.0530 -0.1223
  168SAPE  H14Y19035   2.329   1.797   8.292 -0.6711  2.3702  2.8769
  168SAPE  C31519036   2.165   1.677   8.347  0.4817 -0.0258 -0.4870
  168SAPE  H15X19037   2.198   1.581   8.302  1.3935  0.4096 -0.7480
  168SAPE  H15Y19038   2.054   1.668   8.358  0.4417  2.2533  1.1355
  168SAPE  C31619039   2.221   1.670   8.488 -0.0770  0.5816 -0.5282
  168SAPE  H16X19040   2.241   1.772   8.528  1.1402  0.3868 -0.6316
  168SAPE  H16Y19041   2.313   1.609   8.485 -1.0732 -0.9395 -0.7301
  168SAPE  C31719042   2.122   1.588   8.577 -0.0683  0.3816 -0.1709
  168SAPE  H17X19043   2.032   1.650   8.595 -1.0136 -0.5387 -1.6533
  168SAPE  H17Y19044   2.176   1.591   8.674 -2.3443 -0.9227  1.1712
  168SAPE  C31819045   2.100   1.448   8.537  0.3806  0.1165  0.0908
  168SAPE  H18X19046   2.182   1.400   8.480 -0.8675 -1.0777 -0.7234
  168SAPE  H18Y19047   2.012   1.438   8.470 -0.3738  0.7492  0.9689
  168SAPE  H18Z19048   2.084   1.394   8.633 -0.5088  0.7298  0.2937
  169SAPE     N19049   1.362   3.337   6.298 -0.1298 -0.5117 -0.2295
  169SAPE   HN119050   1.352   3.295   6.393  0.9164  0.4419  0.3129
  169SAPE   HN219051   1.361   3.254   6.235 -0.0611 -0.3683 -0.4207
  169SAPE   HN319052   1.456   3.380   6.288  0.3705 -1.9101 -1.7662
  169SAPE   C1219053   1.247   3.433   6.270  0.3757  0.4897 -0.5833
  169SAPE  H12A19054   1.237   3.454   6.162 -0.6059 -3.2447 -1.2889
  169SAPE  H12B19055   1.278   3.520   6.331  0.1067 -1.3481  2.2783
  169SAPE   C1119056   1.110   3.385   6.323 -0.2454  0.0939  0.1924
  169SAPE  H11A19057   1.032   3.462   6.305  0.8743  1.2731  0.3007
  169SAPE  H11B19058   1.106   3.372   6.433  0.9776  2.6079  0.5729
  169SAPE     P19059   0.949   3.220   6.194 -0.2949  0.0433  0.1408
  169SAPE   O1319060   0.933   3.273   6.053  0.2383 -0.3373 -0.0944
  169SAPE   O1419061   0.936   3.072   6.214 -0.3116  1.1679 -0.1898
  169SAPE   O1219062   1.091   3.260   6.265  0.1296  0.8087 -0.5219
  169SAPE   O1119063   0.840   3.295   6.290 -0.2138  0.8620 -0.1229
  169SAPE    C119064   0.829   3.244   6.425  0.0913 -0.3314  1.1096
  169SAPE    HA19065   0.781   3.144   6.427  0.8544 -0.7496 -0.5320
  169SAPE    HB19066   0.917   3.250   6.492  0.0066 -3.2668  1.5469
  169SAPE    C219067   0.726   3.323   6.507 -0.5808  0.6859 -0.1728
  169SAPE    HS19068   0.630   3.306   6.455  0.6221  0.3908 -2.3672
  169SAPE   O2119069   0.767   3.461   6.513 -0.3572 -0.1215  0.5023
  169SAPE   C2119070   0.684   3.549   6.569  0.1394  0.4361  0.1922
  169SAPE   O2219071   0.566   3.533   6.591 -0.6457  0.2566  0.7153
  169SAPE   C2219072   0.759   3.678   6.596 -0.3611 -0.2632 -0.0232
  169SAPE   H2R19073   0.863   3.674   6.558 -0.3600 -1.4043  0.0867
  169SAPE   H2S19074   0.706   3.756   6.537 -0.8415 -0.5004  0.0958
  169SAPE    C319075   0.716   3.259   6.657  0.3232  0.2762  0.7123
  169SAPE    HX19076   0.669   3.159   6.658 -0.8701  0.8026 -0.3916
  169SAPE    HY19077   0.648   3.329   6.710 -2.2992 -1.4578 -0.3010
  169SAPE   O3119078   0.843   3.235   6.720 -0.2485 -0.7842 -0.0533
  169SAPE   C3119079   0.847   3.254   6.850  0.3217  0.3490 -0.9420
  169SAPE   O3219080   0.757   3.302   6.919 -0.7965 -0.1350  0.4071
  169SAPE   C3219081   0.974   3.195   6.916 -0.6860 -0.2423  0.4030
  169SAPE   H2X19082   1.060   3.265   6.908 -0.4164 -0.8102 -2.5410
  169SAPE   H2Y19083   1.001   3.109   6.851  0.4478  0.0139  0.5367
  169SAPE   C2319084   0.770   3.699   6.746  0.3324  0.6638  0.5434
  169SAPE   H3R19085   0.668   3.705   6.791 -0.3721 -0.4102 -0.8634
  169SAPE   H3S19086   0.819   3.799   6.750  0.2148  0.7855 -0.7574
  169SAPE   C2419087   0.861   3.592   6.809 -0.6521 -0.2704 -0.7572
  169SAPE   H4R19088   0.848   3.495   6.756  2.0195 -0.2149 -1.5836
  169SAPE   H4S19089   0.842   3.579   6.917  2.1502 -0.0975 -0.2204
  169SAPE   C2519090   1.002   3.620   6.781  0.5589  0.0328  0.7660
  169SAPE   H5R19091   1.027   3.636   6.675 -1.9837 -1.9416 -0.1984
  169SAPE   C2619092   1.110   3.619   6.861  0.4196 -0.3519  0.1451
  169SAPE   H6R19093   1.194   3.663   6.805 -1.3485  0.7085 -1.7629
  169SAPE   C2719094   1.124   3.597   7.015 -0.4787 -0.0517  0.4032
  169SAPE   H7R19095   1.023   3.574   7.057 -0.4288 -1.1169 -0.0388
  169SAPE   H7S19096   1.150   3.693   7.064 -2.1432  1.4587 -1.6042
  169SAPE   C2819097   1.220   3.487   7.035  0.4015  0.3844 -0.3842
  169SAPE   H8R19098   1.199   3.398   6.973 -1.2958  0.1798  0.4481
  169SAPE   C2919099   1.316   3.483   7.133  0.3261  0.0523 -0.1190
  169SAPE   H9R19100   1.392   3.403   7.129  3.3345  2.6835  1.5618
  169SAPE  C21019101   1.341   3.587   7.231  0.2224  0.3642 -0.0073
  169SAPE  H10R19102   1.296   3.682   7.196  0.8642  0.5207 -0.4086
  169SAPE  H10S19103   1.449   3.611   7.240  0.0514  1.2497 -0.2431
  169SAPE  C21119104   1.290   3.545   7.367  0.1489 -0.3140 -0.0658
  169SAPE  H11R19105   1.183   3.523   7.360  0.0949  0.7501 -3.6076
  169SAPE  C21219106   1.351   3.524   7.488  0.3094  0.2745 -0.3810
  169SAPE  H12R19107   1.289   3.488   7.572 -0.1101  1.5054 -0.1494
  169SAPE  C21319108   1.494   3.548   7.522  0.3356 -0.1004  0.0339
  169SAPE  H13R19109   1.529   3.654   7.520  0.6276 -0.1495  1.6962
  169SAPE  H13S19110   1.554   3.507   7.438  1.1328  1.8409 -0.3877
  169SAPE  C21419111   1.529   3.464   7.642 -0.3944 -0.1227  0.7334
  169SAPE  H14R19112   1.501   3.358   7.642 -0.4538 -0.2559 -5.5375
  169SAPE  C21519113   1.579   3.516   7.754 -0.7128  0.1845  0.0472
  169SAPE  H15R19114   1.597   3.457   7.845 -1.3196  0.2420  0.2059
  169SAPE  C21619115   1.614   3.656   7.765  0.0484 -0.2304 -0.0513
  169SAPE  H16R19116   1.590   3.694   7.867  1.1903  0.1142  0.0877
  169SAPE  H16S19117   1.567   3.729   7.695  3.1574  2.5421  0.5923
  169SAPE  C21719118   1.763   3.680   7.751  0.0722  0.4933  0.6282
  169SAPE  H17R19119   1.805   3.663   7.650 -1.7739  0.5300 -0.1599
  169SAPE  H17S19120   1.828   3.621   7.820  1.8602  2.5936  0.7708
  169SAPE  C21819121   1.817   3.826   7.776  0.6500 -0.4645 -0.0629
  169SAPE  H18R19122   1.752   3.900   7.726 -0.6445 -1.4519  0.1440
  169SAPE  H18S19123   1.917   3.829   7.726  0.3667  1.1827 -0.5577
  169SAPE  C21919124   1.831   3.854   7.925  0.2277  0.8738 -0.0782
  169SAPE  H19R19125   1.918   3.791   7.952 -1.2799 -1.4837 -0.6332
  169SAPE  H19S19126   1.743   3.800   7.967  1.7010 -2.1010 -0.7368
  169SAPE  C22019127   1.835   4.000   7.963 -0.2804 -0.8324 -0.5519
  169SAPE  H20R19128   1.919   4.052   7.913  0.0560 -1.5849 -0.7794
  169SAPE  H20S19129   1.859   4.015   8.070 -0.0967  1.4350 -0.8894
  169SAPE  H20T19130   1.731   4.037   7.948  0.4257  1.5773  0.3322
  169SAPE   C3319131   0.945   3.136   7.061 -1.4844  0.1767  1.1889
  169SAPE   H3X19132   1.025   3.063   7.087  0.4385  2.8157  2.8492
  169SAPE   H3Y19133   0.850   3.079   7.054 -1.0094 -0.4291 -0.5915
  169SAPE   C3419134   0.934   3.244   7.166 -0.3596  0.3911  0.3649
  169SAPE   H4X19135   0.849   3.311   7.137 -0.9943 -0.4161  0.3329
  169SAPE   H4Y19136   1.018   3.317   7.161 -0.3787  0.4785  1.2692
  169SAPE   C3519137   0.922   3.198   7.303 -0.0945 -0.5795 -0.6720
  169SAPE   H5X19138   0.831   3.136   7.318  0.3705 -0.9805  0.5218
  169SAPE   H5Y19139   0.902   3.278   7.378  0.6165 -2.3569  1.4621
  169SAPE   C3619140   1.047   3.130   7.357  0.3145  0.6848 -0.0916
  169SAPE   H6X19141   1.139   3.190   7.342  1.8112 -1.9704 -1.9636
  169SAPE   H6Y19142   1.063   3.026   7.319 -1.1677 -0.2886  1.8490
  169SAPE   C3719143   1.031   3.111   7.513  0.4896  0.6947  0.5843
  169SAPE   H7X19144   0.948   3.038   7.524  0.2714  0.6472 -1.2208
  169SAPE   H7Y19145   1.001   3.210   7.554  0.3244  1.8480 -2.2055
  169SAPE   C3819146   1.158   3.065   7.583 -0.2055 -0.5546 -0.6430
  169SAPE   H8X19147   1.244   3.122   7.541 -0.9349  0.2316 -1.0878
  169SAPE   H8Y19148   1.166   2.955   7.567 -1.7109 -1.0536  1.7874
  169SAPE   C3919149   1.138   3.112   7.728 -0.4150  0.1923 -0.4452
  169SAPE   H9X19150   1.047   3.068   7.773 -0.3384  1.7987  1.3718
  169SAPE   H9Y19151   1.124   3.222   7.730  0.4381  0.2969  1.1423
  169SAPE  C31019152   1.246   3.069   7.827 -0.4194  0.6274 -0.2604
  169SAPE  H10X19153   1.350   3.096   7.799  0.3736 -0.8193  1.2139
  169SAPE  H10Y19154   1.257   2.959   7.823  0.1001  0.6482  0.5554
  169SAPE  C31119155   1.227   3.109   7.967  0.1374 -0.2058 -0.6164
  169SAPE  H11X19156   1.118   3.095   7.984  0.3071 -1.6156 -0.6594
  169SAPE  H11Y19157   1.233   3.220   7.975  0.1469 -0.1128 -1.7904
  169SAPE  C31219158   1.328   3.045   8.053 -0.1117  0.1385 -1.2070
  169SAPE  H12X19159   1.430   3.046   8.007 -0.3506 -1.9281 -1.8447
  169SAPE  H12Y19160   1.315   2.935   8.065 -0.7811  0.4916  1.3631
  169SAPE  C31319161   1.351   3.116   8.182 -0.2035  0.2582  0.3815
  169SAPE  H13X19162   1.425   3.054   8.237 -1.5646 -1.4377  0.3484
  169SAPE  H13Y19163   1.258   3.120   8.243  0.8375  0.9917  1.9528
  169SAPE  C31419164   1.423   3.255   8.176 -0.1500 -0.0592  0.0624
  169SAPE  H14X19165   1.451   3.270   8.070 -0.6880  0.4177 -0.0185
  169SAPE  H14Y19166   1.517   3.243   8.235  1.3628 -0.6118 -2.4105
  169SAPE  C31519167   1.337   3.362   8.238 -0.5101 -0.6606 -0.6830
  169SAPE  H15X19168   1.311   3.314   8.334  1.5424  0.5901  0.5291
  169SAPE  H15Y19169   1.249   3.364   8.170 -2.0314 -2.6439  1.1468
  169SAPE  C31619170   1.397   3.505   8.257  0.2184 -0.1115  0.1450
  169SAPE  H16X19171   1.490   3.504   8.319 -0.3439 -2.0015  0.9938
  169SAPE  H16Y19172   1.320   3.558   8.317  0.3161  1.0780 -0.7778
  169SAPE  C31719173   1.428   3.579   8.129  0.1699 -0.2994 -0.2827
  169SAPE  H17X19174   1.506   3.524   8.071 -1.2557 -0.3627 -2.1843
  169SAPE  H17Y19175   1.472   3.678   8.153 -2.1671  1.1000 -1.6462
  169SAPE  C31819176   1.306   3.608   8.036 -0.3117 -0.1605 -0.2441
  169SAPE  H18X19177   1.276   3.521   7.974  2.3715  0.1373 -2.0639
  169SAPE  H18Y19178   1.329   3.689   7.963  0.3839  0.3718  0.5633
  169SAPE  H18Z19179   1.221   3.629   8.104 -0.5961  0.8105 -0.8952
  170SAPE     N19180   2.259   0.678   6.155  0.4132  0.0943 -0.6203
  170SAPE   HN119181   2.245   0.590   6.209  1.2215  1.1933  1.4512
  170SAPE   HN219182   2.362   0.692   6.159  0.2825  0.7571  1.1218
  170SAPE   HN319183   2.207   0.751   6.208 -0.1632 -0.6560 -0.1332
  170SAPE   C1219184   2.223   0.670   6.014  0.0779 -0.3437 -0.2815
  170SAPE  H12A19185   2.253   0.576   5.963  1.6891  0.1747 -0.3492
  170SAPE  H12B19186   2.262   0.746   5.942 -0.1037 -0.0552 -0.0729
  170SAPE   C1119187   2.064   0.662   5.991  0.7070  0.4496  0.2645
  170SAPE  H11A19188   2.047   0.722   5.899  1.7689 -0.5524 -0.5955
  170SAPE  H11B19189   2.014   0.709   6.078 -0.9240 -2.5210  1.0027
  170SAPE     P19190   1.866   0.495   5.971 -0.7283  0.4584 -0.2944
  170SAPE   O1319191   1.808   0.560   5.850  0.1693  0.0476 -0.2696
  170SAPE   O1419192   1.854   0.345   5.976 -0.2758 -0.3353  0.2537
  170SAPE   O1219193   2.019   0.522   5.969  0.0187  0.0083  0.7460
  170SAPE   O1119194   1.808   0.575   6.094 -0.1875 -0.0057 -0.2519
  170SAPE    C119195   1.819   0.525   6.228 -0.6154 -0.1228 -0.1897
  170SAPE    HA19196   1.889   0.439   6.233 -2.6746 -1.8345  0.0329
  170SAPE    HB19197   1.884   0.598   6.280  1.2483 -1.5344 -0.4933
  170SAPE    C219198   1.686   0.524   6.289  0.2683 -1.2304  0.0330
  170SAPE    HS19199   1.608   0.517   6.211  0.4001 -1.0565 -0.1140
  170SAPE   O2119200   1.672   0.656   6.347  0.9532  0.6787  0.8476
  170SAPE   C2119201   1.547   0.690   6.383 -0.4868  0.2141 -0.9937
  170SAPE   O2219202   1.442   0.638   6.340 -0.2320 -0.1937  0.2902
  170SAPE   C2219203   1.550   0.810   6.481  0.3760 -0.2016  0.3323
  170SAPE   H2R19204   1.584   0.898   6.423 -1.2265 -0.6296 -1.2770
  170SAPE   H2S19205   1.445   0.828   6.511  0.4745 -0.3412  0.7709
  170SAPE    C319206   1.666   0.415   6.398  0.1172  0.9115  0.0425
  170SAPE    HX19207   1.748   0.441   6.468  2.2589  1.1712 -2.4798
  170SAPE    HY19208   1.685   0.318   6.347  0.9420 -0.1309  2.2897
  170SAPE   O3119209   1.530   0.411   6.442 -0.3717  0.4638  0.7196
  170SAPE   C3119210   1.504   0.416   6.569  0.8239 -0.0913 -0.7753
  170SAPE   O3219211   1.587   0.421   6.660 -0.3358  0.3481  0.0081
  170SAPE   C3219212   1.353   0.424   6.583  0.7138  1.1527 -0.0835
  170SAPE   H2X19213   1.326   0.316   6.587  1.4311  0.9381 -0.8984
  170SAPE   H2Y19214   1.316   0.481   6.495  0.6699  3.2391  1.2505
  170SAPE   C2319215   1.640   0.791   6.603  0.1583 -0.4524 -0.1050
  170SAPE   H3R19216   1.745   0.790   6.567  0.9323 -0.1336  2.0994
  170SAPE   H3S19217   1.627   0.693   6.654  1.3729 -0.9367 -0.6955
  170SAPE   C2419218   1.623   0.902   6.712  0.5115 -0.3335 -0.2610
  170SAPE   H4R19219   1.640   1.000   6.662  3.1454  0.0975  1.3913
  170SAPE   H4S19220   1.713   0.878   6.772 -0.0323  1.4142  1.3108
  170SAPE   C2519221   1.490   0.917   6.780  0.2991 -0.1441  0.2716
  170SAPE   H5R19222   1.400   0.923   6.718 -0.1506 -0.3816  0.8991
  170SAPE   C2619223   1.464   0.905   6.913  0.1056  0.4849  0.3364
  170SAPE   H6R19224   1.357   0.921   6.935 -0.2644 -2.2206  0.6119
  170SAPE   C2719225   1.568   0.893   7.028 -0.0231  0.3198 -1.1106
  170SAPE   H7R19226   1.562   0.973   7.105  1.6832 -2.3273  1.8846
  170SAPE   H7S19227   1.670   0.906   6.987 -0.7633  1.5358 -2.6502
  170SAPE   C2819228   1.556   0.759   7.089 -0.1432 -0.1456  0.5945
  170SAPE   H8R19229   1.588   0.676   7.024  0.5464  1.1417 -0.7317
  170SAPE   C2919230   1.503   0.735   7.208 -0.4259  0.6718  0.2605
  170SAPE   H9R19231   1.501   0.632   7.247 -1.4030  0.3734 -0.5930
  170SAPE  C21019232   1.448   0.821   7.313 -0.2887 -0.5391  0.0350
  170SAPE  H10R19233   1.346   0.794   7.349  0.4638 -2.4684  0.8039
  170SAPE  H10S19234   1.439   0.916   7.256 -0.0851 -0.4358  0.1743
  170SAPE  C21119235   1.549   0.837   7.421 -0.4670  0.3617  0.1811
  170SAPE  H11R19236   1.626   0.759   7.415 -1.7472 -0.8449 -0.9409
  170SAPE  C21219237   1.546   0.926   7.518 -0.0491 -0.1184  0.3980
  170SAPE  H12R19238   1.624   0.918   7.595 -0.2112 -2.5825  0.3579
  170SAPE  C21319239   1.434   1.021   7.544 -0.8256 -0.1935  0.1750
  170SAPE  H13R19240   1.387   1.075   7.459  0.7014 -0.9051 -1.1327
  170SAPE  H13S19241   1.484   1.101   7.602  0.8901  0.0646 -1.6146
  170SAPE  C21419242   1.316   0.969   7.615  0.2331  0.2608 -0.3826
  170SAPE  H14R19243   1.249   0.913   7.548 -2.2753 -0.1387  2.3437
  170SAPE  C21519244   1.279   0.989   7.745 -0.2303 -0.3105 -0.0643
  170SAPE  H15R19245   1.186   0.937   7.770  0.8500 -1.5937  1.4182
  170SAPE  C21619246   1.337   1.076   7.852  0.0920  0.3254 -0.3178
  170SAPE  H16R19247   1.255   1.102   7.922 -0.9778 -0.8518 -1.1136
  170SAPE  H16S19248   1.378   1.169   7.805  1.1214  0.8192  1.5259
  170SAPE  C21719249   1.454   1.004   7.917 -0.0903  0.8205  0.3826
  170SAPE  H17R19250   1.541   0.999   7.847  0.6840 -0.1257  1.3828
  170SAPE  H17S19251   1.431   0.896   7.928 -0.1708  0.9382  1.3930
  170SAPE  C21819252   1.484   1.061   8.055  0.0840  0.0659  0.2699
  170SAPE  H18R19253   1.389   1.059   8.112  0.7452 -3.5448  1.3673
  170SAPE  H18S19254   1.504   1.168   8.032 -1.1323  0.1639 -0.3476
  170SAPE  C21919255   1.602   1.005   8.126  0.1063  0.2104  0.0130
  170SAPE  H19R19256   1.694   1.015   8.065  0.6524 -3.1208  0.1691
  170SAPE  H19S19257   1.578   0.896   8.135  1.7445 -0.2044 -0.4961
  170SAPE  C22019258   1.630   1.052   8.271 -0.3976  0.2133  0.4748
  170SAPE  H20R19259   1.538   1.068   8.330  0.1923 -1.6144  1.9284
  170SAPE  H20S19260   1.689   1.146   8.272 -1.1645  0.6910  0.4935
  170SAPE  H20T19261   1.681   0.971   8.328  2.4042  0.2530 -1.8168
  170SAPE   C3319262   1.318   0.511   6.711  0.0864  0.0205 -0.4804
  170SAPE   H3X19263   1.208   0.523   6.719  0.0315 -1.3803  0.9764
  170SAPE   H3Y19264   1.372   0.609   6.710 -1.8374  1.0997 -3.2401
  170SAPE   C3419265   1.345   0.436   6.847  0.1581 -0.4293  0.3596
  170SAPE   H4X19266   1.329   0.509   6.929  0.7413  0.2486 -0.1256
  170SAPE   H4Y19267   1.449   0.397   6.842  0.4901  0.5829 -0.7685
  170SAPE   C3519268   1.250   0.312   6.874 -0.0097  0.2125 -0.1786
  170SAPE   H5X19269   1.311   0.242   6.813  1.1586  2.6605 -1.8971
  170SAPE   H5Y19270   1.151   0.328   6.825 -0.5431 -0.7823  0.5663
  170SAPE   C3619271   1.246   0.259   7.013  0.1099 -0.3010 -0.2776
  170SAPE   H6X19272   1.355   0.258   7.035  0.3675  0.3927 -1.4932
  170SAPE   H6Y19273   1.200   0.158   7.008  1.2179 -0.8114 -0.3512
  170SAPE   C3719274   1.175   0.347   7.114  0.4841  0.2007 -0.0088
  170SAPE   H7X19275   1.068   0.354   7.085 -0.1927  0.2812  2.4568
  170SAPE   H7Y19276   1.219   0.449   7.112  3.1111 -0.9111 -0.4867
  170SAPE   C3819277   1.178   0.290   7.265 -0.2037  0.2864  0.1693
  170SAPE   H8X19278   1.279   0.257   7.298 -0.2576  1.5261  1.5832
  170SAPE   H8Y19279   1.101   0.210   7.270 -0.0719  0.0611 -1.1225
  170SAPE   C3919280   1.132   0.400   7.359  0.1875  2.2341 -0.4548
  170SAPE   H9X19281   1.116   0.347   7.455  0.3060 -2.4478 -2.8879
  170SAPE   H9Y19282   1.036   0.449   7.333 -1.1604  0.5934  1.2529
  170SAPE  C31019283   1.244   0.501   7.383 -0.1688 -0.5692  0.1430
  170SAPE  H10X19284   1.280   0.563   7.298 -0.5393  1.5050  1.4651
  170SAPE  H10Y19285   1.332   0.441   7.413  1.1263  1.2514  0.0521
  170SAPE  C31119286   1.216   0.593   7.506  0.3283  0.4560 -0.0996
  170SAPE  H11X19287   1.132   0.665   7.496 -1.8863 -2.0192  0.2255
  170SAPE  H11Y19288   1.315   0.641   7.517  0.1588  0.3232  2.1506
  170SAPE  C31219289   1.182   0.519   7.634 -0.5032 -0.8374  0.5035
  170SAPE  H12X19290   1.223   0.416   7.635 -2.0147 -1.4998  4.6108
  170SAPE  H12Y19291   1.075   0.521   7.665 -0.9529 -3.3692 -0.7371
  170SAPE  C31319292   1.262   0.577   7.755 -0.4649  0.5965  0.5686
  170SAPE  H13X19293   1.233   0.684   7.749 -0.9136  0.3959 -1.0750
  170SAPE  H13Y19294   1.367   0.573   7.721 -2.0987 -1.0765 -4.7748
  170SAPE  C31419295   1.241   0.513   7.896  0.5721 -0.6540  1.0368
  170SAPE  H14X19296   1.312   0.562   7.966  0.0161  0.5031  0.8024
  170SAPE  H14Y19297   1.279   0.409   7.888 -1.1884 -1.0826 -3.6102
  170SAPE  C31519298   1.099   0.517   7.961 -0.1498 -0.2355  0.2018
  170SAPE  H15X19299   1.025   0.469   7.895 -1.8203  3.2571 -0.6077
  170SAPE  H15Y19300   1.074   0.625   7.973  1.4530 -0.0653  2.4095
  170SAPE  C31619301   1.086   0.449   8.098 -0.0705 -0.6834 -0.1912
  170SAPE  H16X19302   1.141   0.502   8.179 -2.3309 -0.6970  1.4161
  170SAPE  H16Y19303   1.140   0.352   8.094  1.1036 -0.1696  2.3759
  170SAPE  C31719304   0.940   0.428   8.139  0.6351 -0.6161 -0.4595
  170SAPE  H17X19305   0.898   0.352   8.070  0.2577  0.1786 -1.1188
  170SAPE  H17Y19306   0.887   0.525   8.126  0.4407 -0.5215  0.9697
  170SAPE  C31819307   0.911   0.392   8.288 -0.7738  0.6372  0.1253
  170SAPE  H18X19308   0.959   0.294   8.310  1.5239  2.0037  1.4184
  170SAPE  H18Y19309   0.801   0.394   8.305 -0.6259  0.4911  1.1478
  170SAPE  H18Z19310   0.949   0.467   8.362  0.4232  0.5846 -0.4189
  171SAPE     N19311   3.686   1.626   6.033 -0.2775 -0.2305 -0.0192
  171SAPE   HN119312   3.584   1.622   6.053 -0.1713 -2.2369  0.2222
  171SAPE   HN219313   3.747   1.661   6.110  1.2092  0.5151 -1.5149
  171SAPE   HN319314   3.710   1.695   5.959  1.7622 -1.1705 -0.2682
  171SAPE   C1219315   3.723   1.481   6.008 -0.3472 -0.1883 -0.5045
  171SAPE  H12A19316   3.722   1.468   5.898 -1.0810 -0.1695 -0.5049
  171SAPE  H12B19317   3.648   1.420   6.062  0.0099 -1.7357 -1.7243
  171SAPE   C1119318   3.863   1.450   6.076  0.4829 -0.6551  0.1688
  171SAPE  H11A19319   3.931   1.499   6.002 -0.5377 -0.4683 -0.6562
  171SAPE  H11B19320   3.887   1.342   6.069  1.9011 -0.2172 -2.4460
  171SAPE     P19321   3.959   1.424   6.323 -0.0691  0.2404 -0.0143
  171SAPE   O1319322   3.887   1.305   6.371  0.0423  0.3484  0.0984
  171SAPE   O1419323   4.093   1.403   6.266 -0.8013 -0.1324  0.2112
  171SAPE   O1219324   3.876   1.501   6.208  0.0510 -0.3357  0.3462
  171SAPE   O1119325   3.967   1.537   6.432 -0.1337  0.5465  0.0115
  171SAPE    C119326   3.851   1.624   6.454 -0.4265  0.3944  0.2234
  171SAPE    HA19327   3.878   1.722   6.411 -2.6385  0.8898 -0.1149
  171SAPE    HB19328   3.767   1.599   6.385  0.8625  1.3800 -1.7445
  171SAPE    C219329   3.812   1.630   6.604 -0.7073 -0.4639  0.0818
  171SAPE    HS19330   3.719   1.691   6.607  0.4956  1.4351 -0.1969
  171SAPE   O2119331   3.914   1.676   6.684  0.3666  0.0020  0.4303
  171SAPE   C2119332   3.925   1.809   6.697  0.2654  0.6813 -0.0066
  171SAPE   O2219333   3.845   1.888   6.652 -0.0917  0.0183 -0.2154
  171SAPE   C2219334   4.042   1.853   6.788 -0.2451 -0.1971  0.5978
  171SAPE   H2R19335   4.087   1.763   6.836 -0.0453 -0.1157  0.5671
  171SAPE   H2S19336   4.113   1.894   6.712  0.2916 -2.4302 -0.1509
  171SAPE    C319337   3.760   1.501   6.667 -0.0949  0.0890 -0.3425
  171SAPE    HX19338   3.846   1.433   6.650 -1.4658 -1.2477 -2.2008
  171SAPE    HY19339   3.672   1.466   6.608 -0.0474 -1.9054  0.7345
  171SAPE   O3119340   3.739   1.512   6.813 -0.2527  0.3523 -0.0624
  171SAPE   C3119341   3.615   1.539   6.846  0.2401  0.6430  0.3906
  171SAPE   O3219342   3.525   1.555   6.769  0.1307 -0.1888  0.0771
  171SAPE   C3219343   3.609   1.546   6.994 -0.0229 -0.1780 -0.7982
  171SAPE   H2X19344   3.612   1.655   7.016 -0.8825 -0.8430  2.8436
  171SAPE   H2Y19345   3.699   1.497   7.037  1.6893  2.2863 -1.4783
  171SAPE   C2319346   3.992   1.960   6.886 -0.7729 -0.4694  0.3601
  171SAPE   H3R19347   3.890   1.938   6.924 -0.6575 -0.2521  0.8049
  171SAPE   H3S19348   3.992   2.052   6.823  0.0089 -1.2648 -0.8154
  171SAPE   C2419349   4.082   1.976   7.014 -0.2193 -0.8164  0.6943
  171SAPE   H4R19350   4.035   2.056   7.074  0.2141 -0.2571  0.2980
  171SAPE   H4S19351   4.178   2.015   6.975 -0.1988  1.0893  2.5794
  171SAPE   C2519352   4.113   1.852   7.093 -0.3160 -0.8492  0.2101
  171SAPE   H5R19353   4.182   1.788   7.036  0.9124 -0.3796  1.1442
  171SAPE   C2619354   4.065   1.813   7.210  0.0613  0.6222 -0.2524
  171SAPE   H6R19355   4.116   1.728   7.257  1.4695  0.3219 -2.2644
  171SAPE   C2719356   3.975   1.891   7.297 -0.1662  0.0230  0.7897
  171SAPE   H7R19357   3.892   1.941   7.242 -0.8068 -0.9135  0.8854
  171SAPE   H7S19358   4.031   1.977   7.340  0.5428  0.4150 -0.8613
  171SAPE   C2819359   3.911   1.801   7.397  0.1217 -0.5040  0.1642
  171SAPE   H8R19360   3.802   1.790   7.399  0.1224 -0.7602 -0.8264
  171SAPE   C2919361   3.975   1.766   7.515  0.8076 -0.0648  0.5181
  171SAPE   H9R19362   3.923   1.704   7.589  2.7428 -0.2010  1.8178
  171SAPE  C21019363   4.114   1.809   7.556  1.1657 -0.6140  0.6924
  171SAPE  H10R19364   4.152   1.891   7.491  0.0138  0.5079  1.3989
  171SAPE  H10S19365   4.180   1.720   7.554  1.0988 -0.6736  1.0645
  171SAPE  C21119366   4.108   1.855   7.703 -0.7714 -0.4088 -0.0230
  171SAPE  H11R19367   4.064   1.954   7.717  3.4665  1.6364 -0.4660
  171SAPE  C21219368   4.161   1.796   7.808 -1.2228 -0.8533  0.1779
  171SAPE  H12R19369   4.151   1.849   7.903  1.5138 -0.0870  0.0683
  171SAPE  C21319370   4.233   1.668   7.816 -0.1876  0.0137 -0.0432
  171SAPE  H13R19371   4.343   1.687   7.815 -0.4464  1.4600 -1.1686
  171SAPE  H13S19372   4.212   1.599   7.732 -1.8144  1.5306 -0.8945
  171SAPE  C21419373   4.193   1.584   7.938  0.3171 -0.0916 -0.7618
  171SAPE  H14R19374   4.107   1.519   7.917 -1.7303  2.7810 -1.6803
  171SAPE  C21519375   4.261   1.580   8.056  0.3691  0.6453  0.0826
  171SAPE  H15R19376   4.223   1.517   8.137  1.8627  2.0187  1.8790
  171SAPE  C21619377   4.380   1.659   8.088 -0.2788 -0.1521 -0.2261
  171SAPE  H16R19378   4.351   1.754   8.139  2.5531  0.4813  0.3116
  171SAPE  H16S19379   4.435   1.687   7.996  0.4853  2.3145  0.9073
  171SAPE  C21719380   4.478   1.612   8.188 -0.1155  0.2786  0.3985
  171SAPE  H17R19381   4.561   1.686   8.189  1.0752 -0.9847 -1.7165
  171SAPE  H17S19382   4.517   1.514   8.154  0.9811  0.3588  1.3826
  171SAPE  C21819383   4.421   1.583   8.324  0.2642 -0.1177  0.3245
  171SAPE  H18R19384   4.328   1.526   8.305 -1.0258  2.0784  0.0127
  171SAPE  H18S19385   4.388   1.672   8.381  1.3109  1.5487 -1.6181
  171SAPE  C21919386   4.518   1.503   8.413  0.8773  1.0529 -0.2752
  171SAPE  H19R19387   4.610   1.561   8.432  0.1739  2.7553 -1.8693
  171SAPE  H19S19388   4.553   1.414   8.357 -2.0330 -1.4405  1.6773
  171SAPE  C22019389   4.470   1.454   8.549 -0.3212 -0.5068  0.1383
  171SAPE  H20R19390   4.475   1.545   8.614 -1.5467 -0.6955  0.5047
  171SAPE  H20S19391   4.545   1.384   8.593  0.4396 -1.9134 -3.2779
  171SAPE  H20T19392   4.368   1.413   8.559 -0.2876  0.1992  5.0420
  171SAPE   C3319393   3.480   1.485   7.057 -0.1248 -0.3648  0.3030
  171SAPE   H3X19394   3.493   1.375   7.062 -1.8490 -0.5083  2.2084
  171SAPE   H3Y19395   3.392   1.511   6.994  1.0190 -2.1282 -2.0989
  171SAPE   C3419396   3.457   1.537   7.205 -0.1979 -0.2125  0.7488
  171SAPE   H4X19397   3.370   1.472   7.229  0.2014 -0.8828  0.3872
  171SAPE   H4Y19398   3.442   1.647   7.211  1.6972  0.1017  0.1526
  171SAPE   C3519399   3.575   1.497   7.300  0.0766 -0.2945 -0.2734
  171SAPE   H5X19400   3.672   1.526   7.256 -0.3180  0.5345 -0.6003
  171SAPE   H5Y19401   3.590   1.386   7.299  3.3560  0.1045  0.5047
  171SAPE   C3619402   3.564   1.549   7.443 -0.3884  0.2459 -0.1335
  171SAPE   H6X19403   3.465   1.510   7.474 -0.9716  2.8500  1.4025
  171SAPE   H6Y19404   3.566   1.660   7.443 -1.3092  0.2729  1.4173
  171SAPE   C3719405   3.664   1.490   7.546  0.0347  0.4387  0.2721
  171SAPE   H7X19406   3.771   1.500   7.520 -0.0847  0.4181 -0.2318
  171SAPE   H7Y19407   3.650   1.380   7.542 -1.0603  0.5912 -0.5009
  171SAPE   C3819408   3.630   1.535   7.689 -0.0244  0.0437  0.2102
  171SAPE   H8X19409   3.523   1.504   7.692 -0.0549  0.0176 -1.1894
  171SAPE   H8Y19410   3.642   1.645   7.687 -4.5092  0.6235 -0.1718
  171SAPE   C3919411   3.693   1.460   7.811  0.2554  0.0292 -0.4109
  171SAPE   H9X19412   3.738   1.361   7.787  1.2592  0.9925 -2.6729
  171SAPE   H9Y19413   3.608   1.439   7.879 -0.1714  2.1630 -0.2653
  171SAPE  C31019414   3.801   1.536   7.887  0.3831 -0.5201  0.0028
  171SAPE  H10X19415   3.869   1.591   7.818 -0.1377 -0.5076 -0.5100
  171SAPE  H10Y19416   3.867   1.460   7.933  1.4957 -1.0441 -2.3653
  171SAPE  C31119417   3.752   1.635   7.998  0.0374 -0.9450  0.0427
  171SAPE  H11X19418   3.723   1.564   8.078 -1.1777  0.6832  1.0606
  171SAPE  H11Y19419   3.671   1.706   7.969  0.2721 -0.8927 -0.4958
  171SAPE  C31219420   3.872   1.723   8.043  0.5440 -0.0146  0.3153
  171SAPE  H12X19421   3.899   1.786   7.955 -0.7569 -0.3083 -0.3120
  171SAPE  H12Y19422   3.952   1.650   8.069  1.0925  0.6607  0.5584
  171SAPE  C31319423   3.830   1.820   8.158  0.3086  0.6700 -0.2603
  171SAPE  H13X19424   3.787   1.755   8.238  0.7238  0.7696  0.0430
  171SAPE  H13Y19425   3.736   1.871   8.130 -0.6326 -0.8450  0.0582
  171SAPE  C31419426   3.929   1.915   8.226 -0.2511  0.2777 -0.3122
  171SAPE  H14X19427   3.983   1.967   8.145  1.0806 -1.0658 -0.3024
  171SAPE  H14Y19428   4.000   1.852   8.284  3.5282  3.2084 -1.5532
  171SAPE  C31519429   3.868   2.012   8.321 -0.4607  0.4274 -0.5390
  171SAPE  H15X19430   3.793   2.068   8.261  1.6298  0.7366 -2.9311
  171SAPE  H15Y19431   3.937   2.088   8.364 -0.8593  0.4572  0.0568
  171SAPE  C31619432   3.799   1.942   8.440 -0.5684  0.4033 -0.0379
  171SAPE  H16X19433   3.725   1.865   8.407 -1.3881  1.2714 -0.2539
  171SAPE  H16Y19434   3.741   2.023   8.488 -0.5866 -0.7370  1.8974
  171SAPE  C31719435   3.881   1.879   8.550  0.4292  0.0665 -0.1599
  171SAPE  H17X19436   3.974   1.937   8.566  0.5225 -0.1496  0.0875
  171SAPE  H17Y19437   3.919   1.779   8.519  1.4102  0.2942  0.2657
  171SAPE  C31819438   3.804   1.858   8.682 -0.9128  0.0645  0.2288
  171SAPE  H18X19439   3.876   1.831   8.762  0.8669  2.0783 -0.6480
  171SAPE  H18Y19440   3.725   1.782   8.662 -1.3787  0.6026  0.0178
  171SAPE  H18Z19441   3.765   1.960   8.701  2.1081  1.6545 -1.7457
  172SAPE     N19442   3.294   0.696   6.003  0.3318 -0.4494 -0.0491
  172SAPE   HN119443   3.391   0.671   5.973  0.4455  1.0605 -1.0352
  172SAPE   HN219444   3.238   0.688   5.916  0.9382 -0.2427 -0.4644
  172SAPE   HN319445   3.293   0.798   6.025  2.5525 -0.4757  0.3146
  172SAPE   C1219446   3.240   0.602   6.113  0.5608 -0.3941  0.6600
  172SAPE  H12A19447   3.239   0.669   6.202  0.1831 -1.3210  1.3520
  172SAPE  H12B19448   3.292   0.504   6.107 -0.4508 -0.9038  0.0881
  172SAPE   C1119449   3.090   0.577   6.082 -0.0274 -0.2749  0.2961
  172SAPE  H11A19450   3.051   0.496   6.148  0.6011 -0.3490  0.5764
  172SAPE  H11B19451   3.074   0.540   5.978  0.0098  0.3613  0.0629
  172SAPE     P19452   2.913   0.749   6.181  0.5988  0.0015 -0.2172
  172SAPE   O1319453   2.964   0.867   6.253 -0.1479  0.3617 -0.3898
  172SAPE   O1419454   2.790   0.771   6.103  0.1754  0.0105 -0.1132
  172SAPE   O1219455   3.019   0.698   6.081 -0.1848  0.2033  0.2792
  172SAPE   O1119456   2.888   0.636   6.294 -0.2665 -0.3240  0.5068
  172SAPE    C119457   2.774   0.623   6.379  0.6943  0.1529  0.3115
  172SAPE    HA19458   2.678   0.646   6.328 -0.0599 -0.9709  1.1973
  172SAPE    HB19459   2.763   0.515   6.403 -0.9366  0.2541  0.0478
  172SAPE    C219460   2.781   0.689   6.520  0.1553 -0.7844  0.1958
  172SAPE    HS19461   2.734   0.789   6.507 -0.6908 -1.3211 -1.0467
  172SAPE   O2119462   2.917   0.683   6.570  0.0849 -0.1117 -0.1884
  172SAPE   C2119463   2.944   0.791   6.640 -0.0825  0.1275 -0.4239
  172SAPE   O2219464   2.868   0.881   6.673 -0.0174 -0.0230 -0.2788
  172SAPE   C2219465   3.087   0.787   6.675  0.2065 -0.6707  0.9037
  172SAPE   H2R19466   3.145   0.724   6.604  0.5055 -0.7782  1.2382
  172SAPE   H2S19467   3.126   0.890   6.686  0.1991 -0.5303 -0.3957
  172SAPE    C319468   2.686   0.617   6.620  0.3264  0.7420  0.0673
  172SAPE    HX19469   2.709   0.508   6.621  1.2278  0.8807 -1.6488
  172SAPE    HY19470   2.584   0.622   6.577 -0.2365  2.3824  1.5171
  172SAPE   O3119471   2.686   0.669   6.752  0.2080  0.2615 -0.9331
  172SAPE   C3119472   2.595   0.758   6.790 -0.0840  0.4254  0.6931
  172SAPE   O3219473   2.533   0.835   6.720 -0.0003 -0.3192 -0.5551
  172SAPE   C3219474   2.589   0.757   6.949  0.4117  0.1720  0.2918
  172SAPE   H2X19475   2.660   0.835   6.985  1.2858  0.0810 -1.1868
  172SAPE   H2Y19476   2.625   0.660   6.990 -1.2563 -0.2149  0.9034
  172SAPE   C2319477   3.108   0.713   6.810  0.4116 -0.2505 -0.1552
  172SAPE   H3R19478   3.051   0.618   6.804 -2.5131  1.4248  0.2324
  172SAPE   H3S19479   3.064   0.781   6.886  1.1536  1.2292 -1.0280
  172SAPE   C2419480   3.257   0.692   6.848  0.6251 -0.1806 -0.7784
  172SAPE   H4R19481   3.299   0.770   6.915 -3.0369  0.3877  0.9793
  172SAPE   H4S19482   3.308   0.679   6.751 -1.6486  1.1963 -2.1949
  172SAPE   C2519483   3.273   0.561   6.918  0.0616  0.2320  0.2939
  172SAPE   H5R19484   3.305   0.483   6.848 -0.7512 -1.2134  1.5179
  172SAPE   C2619485   3.236   0.534   7.049  0.2543  0.4326 -0.2194
  172SAPE   H6R19486   3.256   0.429   7.077 -1.8506 -0.9861 -3.6784
  172SAPE   C2719487   3.173   0.633   7.146  0.4807  0.5580  0.7216
  172SAPE   H7R19488   3.074   0.657   7.102  2.0910  2.2023 -2.2324
  172SAPE   H7S19489   3.233   0.725   7.129 -0.4763  1.3800  1.7458
  172SAPE   C2819490   3.152   0.591   7.293  0.0641 -0.0122  1.1454
  172SAPE   H8R19491   3.092   0.499   7.303  0.2566 -0.3520 -0.6715
  172SAPE   C2919492   3.193   0.647   7.405 -0.0318 -0.2587 -0.2175
  172SAPE   H9R19493   3.164   0.603   7.502 -0.3120  0.1484 -0.1132
  172SAPE  C21019494   3.276   0.778   7.409 -0.1699 -0.0018  0.2251
  172SAPE  H10R19495   3.277   0.840   7.317  2.1446  0.0361  0.2613
  172SAPE  H10S19496   3.385   0.759   7.417  0.2413  1.9792 -0.3478
  172SAPE  C21119497   3.221   0.871   7.507 -0.3536  0.2092 -0.3274
  172SAPE  H11R19498   3.163   0.957   7.468 -0.8191  0.2844  0.5244
  172SAPE  C21219499   3.225   0.858   7.641 -0.4228  0.6244 -0.2931
  172SAPE  H12R19500   3.158   0.933   7.687 -1.1952  0.4457 -1.0993
  172SAPE  C21319501   3.296   0.755   7.729 -0.2878 -0.1419 -0.1282
  172SAPE  H13R19502   3.380   0.807   7.781 -1.5688  2.2563 -0.4127
  172SAPE  H13S19503   3.332   0.672   7.665 -1.3812  0.1640 -1.1559
  172SAPE  C21419504   3.195   0.687   7.821  0.2068  0.6264  0.4341
  172SAPE  H14R19505   3.099   0.654   7.778 -0.8087  2.7115  1.0521
  172SAPE  C21519506   3.212   0.673   7.956  0.1804  0.1795  0.0917
  172SAPE  H15R19507   3.150   0.604   8.015  0.9484  0.9716  1.8527
  172SAPE  C21619508   3.329   0.715   8.038 -0.9864  1.0396 -0.6181
  172SAPE  H16R19509   3.304   0.802   8.102 -1.1479 -0.2699  1.1621
  172SAPE  H16S19510   3.420   0.729   7.976 -0.7053 -0.7309 -0.6387
  172SAPE  C21719511   3.359   0.595   8.134 -0.8369 -0.1676  0.4679
  172SAPE  H17R19512   3.383   0.512   8.064  0.5369  1.0794 -0.5633
  172SAPE  H17S19513   3.274   0.571   8.202  0.2454 -1.2436  1.4719
  172SAPE  C21819514   3.478   0.627   8.230 -0.7108  0.1592 -0.0642
  172SAPE  H18R19515   3.455   0.720   8.287 -1.6728  0.2605 -0.6026
  172SAPE  H18S19516   3.564   0.648   8.163  0.1684 -2.2842  0.2354
  172SAPE  C21919517   3.513   0.520   8.326  0.9283 -0.2237 -0.1305
  172SAPE  H19R19518   3.431   0.499   8.397  2.0566 -1.4097  0.8525
  172SAPE  H19S19519   3.603   0.556   8.381  1.9677 -2.3827 -0.3571
  172SAPE  C22019520   3.562   0.388   8.262 -0.2487  0.2993 -0.7352
  172SAPE  H20R19521   3.594   0.314   8.340  0.9132  1.3184 -0.2258
  172SAPE  H20S19522   3.650   0.394   8.194  1.6684  0.9800  1.7226
  172SAPE  H20T19523   3.473   0.343   8.213  1.7041 -1.4486 -2.7926
  172SAPE   C3319524   2.444   0.776   6.999  0.0602  0.4100  0.0219
  172SAPE   H3X19525   2.410   0.682   7.048  0.4962  0.5787  0.6474
  172SAPE   H3Y19526   2.384   0.810   6.912  1.2957  0.9175 -0.6445
  172SAPE   C3419527   2.418   0.889   7.105  0.0790 -0.5516 -0.0571
  172SAPE   H4X19528   2.313   0.925   7.109  0.1917 -0.2624  0.3625
  172SAPE   H4Y19529   2.476   0.977   7.069  1.1459 -0.2099  2.4190
  172SAPE   C3519530   2.462   0.854   7.242  0.6621  0.7971  0.0499
  172SAPE   H5X19531   2.471   0.952   7.293  1.9461  1.0256 -0.5752
  172SAPE   H5Y19532   2.564   0.808   7.245 -0.0764 -0.8759  0.1773
  172SAPE   C3619533   2.365   0.759   7.315 -0.0706  0.1926  0.2079
  172SAPE   H6X19534   2.366   0.660   7.265 -1.4786  0.1150  0.3139
  172SAPE   H6Y19535   2.269   0.815   7.321 -0.4577 -0.2487 -1.7368
  172SAPE   C3719536   2.406   0.726   7.462 -0.6824  0.2419  0.5602
  172SAPE   H7X19537   2.514   0.701   7.477 -0.2927  1.0936 -0.8091
  172SAPE   H7Y19538   2.347   0.639   7.498  1.4269 -1.6072 -0.2668
  172SAPE   C3819539   2.386   0.844   7.554 -0.7538 -0.1452 -0.8780
  172SAPE   H8X19540   2.299   0.908   7.527  1.2830  2.8084 -0.7224
  172SAPE   H8Y19541   2.479   0.905   7.546 -1.0143  0.6056  1.3814
  172SAPE   C3919542   2.392   0.806   7.703 -0.2038 -0.3648  1.5797
  172SAPE   H9X19543   2.488   0.762   7.736 -1.7060 -3.2332  2.2860
  172SAPE   H9Y19544   2.323   0.719   7.709 -0.0400 -0.6056  0.1105
  172SAPE  C31019545   2.341   0.900   7.811  0.1512  0.3481 -0.4670
  172SAPE  H10X19546   2.234   0.926   7.795  0.4328  2.8786  1.4386
  172SAPE  H10Y19547   2.396   0.996   7.799  0.5803  0.1679  0.0741
  172SAPE  C31119548   2.349   0.852   7.954 -0.5157 -0.2025 -0.0482
  172SAPE  H11X19549   2.458   0.838   7.970 -0.4608 -0.1330 -0.3656
  172SAPE  H11Y19550   2.299   0.753   7.962 -0.6538 -0.1216  0.0926
  172SAPE  C31219551   2.285   0.944   8.056 -0.1123  0.5851  0.6887
  172SAPE  H12X19552   2.185   0.981   8.024 -0.2172 -0.6825 -0.5240
  172SAPE  H12Y19553   2.347   1.035   8.062  0.0321  0.6410 -1.2377
  172SAPE  C31319554   2.281   0.881   8.197 -0.3589 -0.3441  0.4720
  172SAPE  H13X19555   2.380   0.845   8.233  0.3149 -0.0407 -1.0644
  172SAPE  H13Y19556   2.224   0.787   8.180  0.2710 -0.0915 -3.5783
  172SAPE  C31419557   2.224   0.962   8.311 -0.3592  0.1570  0.0433
  172SAPE  H14X19558   2.288   1.050   8.333 -2.5379  1.1222  2.7985
  172SAPE  H14Y19559   2.223   0.889   8.394  0.8180 -1.1140 -1.0285
  172SAPE  C31519560   2.086   1.035   8.291 -0.1482  0.3292  0.2345
  172SAPE  H15X19561   2.017   0.978   8.226 -1.0459  1.0640  0.5313
  172SAPE  H15Y19562   2.116   1.122   8.229 -0.9466  2.2194  2.4195
  172SAPE  C31619563   2.018   1.085   8.418  0.2593  0.0181 -0.1006
  172SAPE  H16X19564   1.955   1.173   8.391 -0.3680  0.4537  2.6736
  172SAPE  H16Y19565   2.101   1.123   8.480  0.3957 -0.6318  0.1215
  172SAPE  C31719566   1.929   0.975   8.481  0.2488 -0.2347 -0.0592
  172SAPE  H17X19567   1.992   0.889   8.511  0.4019  0.2758  1.1350
  172SAPE  H17Y19568   1.868   0.934   8.398  0.5259 -1.5397  0.3722
  172SAPE  C31819569   1.831   1.026   8.594 -0.4288 -0.1122 -0.3414
  172SAPE  H18X19570   1.785   0.940   8.648 -0.3894 -0.3756 -0.7297
  172SAPE  H18Y19571   1.739   1.075   8.558 -0.4244  0.0335 -0.1542
  172SAPE  H18Z19572   1.883   1.094   8.665 -0.8805 -0.5452  0.4199
  173SOPE     N19573   3.336   5.079  10.906 -0.4713 -0.3662 -0.5113
  173SOPE   HN119574   3.259   5.136  10.947  0.5454  1.7538 -1.5235
  173SOPE   HN219575   3.351   5.003  10.976 -0.5069 -0.8231 -0.9952
  173SOPE   HN319576   3.427   5.128  10.896 -0.7988  0.7201  1.3980
  173SOPE   C1219577   3.302   5.012  10.780 -0.0666 -0.7262 -0.5186
  173SOPE  H12A19578   3.249   5.083  10.713  0.8530 -0.8881 -1.4256
  173SOPE  H12B19579   3.219   4.938  10.794 -1.4969  1.0825  0.8247
  173SOPE   C1119580   3.428   4.961  10.712 -0.1405 -0.0933 -0.0573
  173SOPE  H11A19581   3.502   5.034  10.674 -0.5692  0.6009  0.4419
  173SOPE  H11B19582   3.399   4.893  10.629 -0.0269  0.0043 -0.1772
  173SOPE     P19583   3.501   4.748  10.835 -0.0612 -0.0771 -0.3457
  173SOPE   O1319584   3.369   4.711  10.895 -0.3566  0.1926 -0.1843
  173SOPE   O1419585   3.612   4.697  10.912  0.0207  0.2762 -0.2546
  173SOPE   O1219586   3.511   4.900  10.814  0.4629  0.1428  0.4823
  173SOPE   O1119587   3.520   4.683  10.692 -0.4351 -0.1376 -0.2137
  173SOPE    C119588   3.636   4.718  10.608  0.4104 -0.3159 -0.6053
  173SOPE    HA19589   3.725   4.707  10.673  0.3810 -0.6042 -0.6136
  173SOPE    HB19590   3.610   4.816  10.561  3.2717  0.1264 -1.3572
  173SOPE    C219591   3.659   4.609  10.501 -0.4368  0.4618 -0.1347
  173SOPE    HS19592   3.755   4.629  10.449  0.0774 -0.0227  0.6126
  173SOPE   O2119593   3.548   4.604  10.412 -0.0654 -0.0735  0.3548
  173SOPE   C2119594   3.549   4.697  10.323 -0.7825 -0.0952  0.3707
  173SOPE   O2219595   3.629   4.788  10.306 -0.2530 -0.5883 -0.0133
  173SOPE   C2219596   3.423   4.676  10.238 -0.4444 -0.4913 -0.6046
  173SOPE   H2R19597   3.327   4.680  10.292 -0.3085  4.2022 -0.5378
  173SOPE   H2S19598   3.445   4.579  10.188 -0.7868 -1.0514  0.3349
  173SOPE    C319599   3.681   4.474  10.575 -0.5862 -0.2352 -0.6220
  173SOPE    HX19600   3.582   4.439  10.613 -0.7130  1.8411  1.0906
  173SOPE    HY19601   3.745   4.494  10.663 -0.0099  0.8190 -1.2765
  173SOPE   O3119602   3.744   4.371  10.501 -0.5305  0.0576  0.5060
  173SOPE   C3119603   3.760   4.256  10.562 -0.1076 -0.7432  0.4202
  173SOPE   O3219604   3.712   4.226  10.670 -0.9802 -0.4582  1.0485
  173SOPE   C3219605   3.843   4.160  10.478  0.3364  0.8463  0.3328
  173SOPE   H2X19606   3.805   4.057  10.493 -0.1042  0.8444 -0.7151
  173SOPE   H2Y19607   3.950   4.160  10.509  0.1163  0.4630  1.0944
  173SOPE   C2319608   3.408   4.789  10.134  0.2445 -0.3034 -0.6097
  173SOPE   H3R19609   3.453   4.765  10.036 -0.8305 -0.3849 -1.0903
  173SOPE   H3S19610   3.449   4.888  10.166 -2.0364  0.4291  0.1198
  173SOPE   C2419611   3.258   4.822  10.093 -0.2401  0.1796  0.1414
  173SOPE   H4R19612   3.211   4.862  10.185 -1.3308  0.3405 -0.4824
  173SOPE   H4S19613   3.252   4.893  10.008 -0.0152  0.1107  0.0680
  173SOPE   C2519614   3.161   4.704  10.067 -0.4827  0.2399 -0.7482
  173SOPE   H5R19615   3.171   4.633  10.153  0.2814 -1.9015 -2.5479
  173SOPE   H5S19616   3.057   4.741  10.061 -0.4761  1.1020  3.0718
  173SOPE   C2619617   3.201   4.615   9.956  0.2031  0.0561 -0.0131
  173SOPE   H6R19618   3.298   4.564   9.975  0.3427  0.2667 -0.1686
  173SOPE   H6S19619   3.125   4.533   9.958  1.1804 -0.8376  1.2301
  173SOPE   C2719620   3.200   4.680   9.819  0.9783  0.3033 -0.5057
  173SOPE   H7R19621   3.101   4.719   9.787  1.6395  1.9536 -0.5957
  173SOPE   H7S19622   3.267   4.767   9.801  2.3878  0.0197  3.0546
  173SOPE   C2819623   3.231   4.574   9.713 -0.6069 -0.9053  0.1104
  173SOPE   H8R19624   3.178   4.478   9.730 -1.4239 -1.0042 -2.7323
  173SOPE   H8S19625   3.178   4.607   9.621 -0.5534 -0.0456  0.3778
  173SOPE   C2919626   3.379   4.556   9.682  0.3908  0.4301  0.1804
  173SOPE   H9119627   3.435   4.504   9.761  2.5021  0.9292 -0.9583
  173SOPE  C21019628   3.443   4.624   9.587  0.0728 -0.4007  0.1303
  173SOPE  H10119629   3.553   4.627   9.587  0.0424  2.5048 -0.4637
  173SOPE  C21119630   3.383   4.733   9.498  0.1944  0.2907 -0.2723
  173SOPE  H11R19631   3.443   4.826   9.510 -2.0475  1.7243 -0.0011
  173SOPE  H11S19632   3.281   4.766   9.525  0.7834 -1.3145  4.3277
  173SOPE  C21219633   3.390   4.697   9.349  0.7832  0.3973 -0.9061
  173SOPE  H12R19634   3.345   4.777   9.286 -2.4226  0.2068  1.0372
  173SOPE  H12S19635   3.329   4.604   9.347  1.2626  0.0900 -3.0823
  173SOPE  C21319636   3.535   4.655   9.311 -0.6779 -0.4702  0.7275
  173SOPE  H13R19637   3.577   4.577   9.377  0.6053  0.4583  1.0191
  173SOPE  H13S19638   3.595   4.746   9.332  0.0922 -0.3375 -1.8459
  173SOPE  C21419639   3.525   4.603   9.164  0.1223  0.5412 -0.9106
  173SOPE  H14R19640   3.454   4.665   9.104 -2.0598 -1.0932 -0.0861
  173SOPE  H14S19641   3.472   4.506   9.161 -0.5400  0.9415 -3.0614
  173SOPE  C21519642   3.664   4.589   9.100  0.3854  0.1874 -0.1766
  173SOPE  H15R19643   3.713   4.493   9.127  0.0917  0.4505  1.3137
  173SOPE  H15S19644   3.722   4.675   9.139 -1.9782  1.7633 -0.0450
  173SOPE  C21619645   3.651   4.578   8.952 -0.4531  0.0497 -0.1118
  173SOPE  H16R19646   3.579   4.497   8.925 -0.2220 -1.4530  3.5043
  173SOPE  H16S19647   3.749   4.546   8.912 -1.1820  0.9167 -2.7062
  173SOPE  C21719648   3.604   4.713   8.886  0.6483  0.0164 -0.5220
  173SOPE  H17R19649   3.687   4.781   8.916  0.8021 -0.2981 -0.2299
  173SOPE  H17S19650   3.510   4.756   8.926 -0.0045  0.8425 -2.8750
  173SOPE  C21819651   3.602   4.718   8.730  0.4318 -0.3108 -0.1885
  173SOPE  H18R19652   3.606   4.825   8.702  2.5742 -0.5974 -1.0861
  173SOPE  H18S19653   3.512   4.663   8.695 -0.5060  0.9732  0.1769
  173SOPE  H18T19654   3.694   4.674   8.686  1.9800 -0.4081  2.9577
  173SOPE   C3319655   3.844   4.184  10.323 -0.3644 -0.1896 -0.5083
  173SOPE   H3X19656   3.906   4.109  10.269 -1.3953 -2.0053  0.7964
  173SOPE   H3Y19657   3.873   4.291  10.310  1.0298 -0.6880 -1.5499
  173SOPE   C3419658   3.715   4.142  10.260 -0.4061 -0.1952  0.4374
  173SOPE   H4X19659   3.641   4.212  10.305  0.6038  0.1377  1.6336
  173SOPE   H4Y19660   3.685   4.041  10.296  0.1282 -0.1853  0.9393
  173SOPE   C3519661   3.711   4.140  10.103 -0.0742 -1.2552 -0.0561
  173SOPE   H5X19662   3.775   4.054  10.073  1.7537 -0.9769  2.8586
  173SOPE   H5Y19663   3.743   4.239  10.068 -5.8691  1.2886  1.1487
  173SOPE   C3619664   3.573   4.110  10.049 -0.2442 -0.2108  0.5519
  173SOPE   H6X19665   3.498   4.193  10.055 -1.9846 -1.4679 -2.3018
  173SOPE   H6Y19666   3.535   4.018  10.099  0.2143  0.2888  1.8315
  173SOPE   C3719667   3.582   4.087   9.900  0.6251  0.1080 -0.3848
  173SOPE   H7X19668   3.494   4.022   9.883  0.5648  0.1783 -0.3381
  173SOPE   H7Y19669   3.680   4.036   9.885  2.6147  2.8664  2.4286
  173SOPE   C3819670   3.598   4.213   9.812 -0.0049  0.5494  0.1248
  173SOPE   H8X19671   3.694   4.257   9.846  1.2381  0.9489 -3.6183
  173SOPE   H8Y19672   3.511   4.282   9.820 -0.2581  0.1366  0.9119
  173SOPE   C3919673   3.618   4.185   9.663  0.0508 -0.2282 -0.0788
  173SOPE   H9X19674   3.525   4.134   9.631  1.4034 -2.2246 -0.8900
  173SOPE   H9Y19675   3.706   4.120   9.645 -1.0937 -1.6338 -0.6417
  173SOPE  C31019676   3.630   4.309   9.565  0.2779 -0.2010  1.0249
  173SOPE  H10X19677   3.703   4.381   9.609  2.1616 -1.7508  0.4918
  173SOPE  H10Y19678   3.538   4.372   9.577  0.6347  0.1829  1.8043
  173SOPE  C31119679   3.687   4.268   9.429 -0.2988 -0.3402 -1.0580
  173SOPE  H11X19680   3.764   4.188   9.432 -1.8903 -1.8656  2.6409
  173SOPE  H11Y19681   3.714   4.353   9.364  0.3615 -0.0531 -0.4039
  173SOPE  C31219682   3.580   4.187   9.361  0.1892  0.1132 -0.6387
  173SOPE  H12X19683   3.488   4.247   9.349  0.1239  0.0006 -0.6948
  173SOPE  H12Y19684   3.558   4.095   9.421 -1.6430  1.4936  0.8908
  173SOPE  C31319685   3.619   4.140   9.221 -0.6276 -0.1580 -0.4957
  173SOPE  H13X19686   3.706   4.071   9.221 -0.1635  0.4271 -0.3794
  173SOPE  H13Y19687   3.635   4.234   9.164  0.6277  0.1806  0.4104
  173SOPE  C31419688   3.498   4.068   9.156 -0.0085 -0.1354 -0.0643
  173SOPE  H14X19689   3.405   4.129   9.154  0.8637  1.2529  1.0997
  173SOPE  H14Y19690   3.469   3.978   9.215 -0.3513 -0.4556 -0.7157
  173SOPE  C31519691   3.522   4.026   9.009 -0.1726 -0.5014  0.1352
  173SOPE  H15X19692   3.609   3.957   9.008  0.5688  0.4205 -0.8749
  173SOPE  H15Y19693   3.554   4.117   8.953 -2.0713 -0.0309 -0.2148
  173SOPE  C31619694   3.391   3.972   8.944 -0.0794  0.6814 -0.6365
  173SOPE  H16X19695   3.306   4.043   8.955 -2.7465 -2.7046  1.9775
  173SOPE  H16Y19696   3.354   3.885   9.002  1.5770 -0.2524 -0.9576
  173SOPE  C31719697   3.416   3.927   8.795 -0.1092  0.3264 -0.0529
  173SOPE  H17X19698   3.519   3.885   8.792 -0.5054 -0.5697 -1.7923
  173SOPE  H17Y19699   3.408   4.010   8.722 -2.4604 -0.2579 -0.5023
  173SOPE  C31819700   3.318   3.823   8.745 -0.0745  0.2287  0.4250
  173SOPE  H18X19701   3.209   3.833   8.766 -0.2726 -0.2025 -0.3906
  173SOPE  H18Y19702   3.342   3.720   8.777  0.4284 -0.2357 -1.4188
  173SOPE  H18Z19703   3.335   3.824   8.635 -1.0525 -0.1202  0.2639
  174SOPE     N19704   3.106   4.023  10.983 -0.2913  0.7532 -0.1513
  174SOPE   HN119705   3.100   4.001  11.084  2.8998 -0.6176 -0.2048
  174SOPE   HN219706   3.168   4.106  10.974  0.9196 -0.2782 -1.5786
  174SOPE   HN319707   3.007   4.047  10.961 -0.6991 -1.6137 -1.0675
  174SOPE   C1219708   3.155   3.906  10.895 -0.1924  0.1716 -1.0461
  174SOPE  H12A19709   3.069   3.836  10.900 -0.2977  0.2155 -2.1971
  174SOPE  H12B19710   3.247   3.863  10.941  0.3387  0.5512 -1.7395
  174SOPE   C1119711   3.186   3.930  10.746  0.3415  0.3824 -0.0667
  174SOPE  H11A19712   3.188   3.826  10.706  0.1270  0.4884 -0.3601
  174SOPE  H11B19713   3.285   3.980  10.737  0.4489 -0.1353 -2.0432
  174SOPE     P19714   2.963   3.935  10.614 -0.4143  0.2824  0.0793
  174SOPE   O1319715   2.894   4.035  10.531 -0.0081 -0.8322 -0.7206
  174SOPE   O1419716   2.876   3.880  10.714  0.5443  0.4758 -1.0032
  174SOPE   O1219717   3.086   4.010  10.685 -0.8645 -0.1156  0.2688
  174SOPE   O1119718   3.031   3.823  10.530 -0.1760 -0.3267 -0.6264
  174SOPE    C119719   3.137   3.848  10.431 -0.1623  0.2433 -0.1418
  174SOPE    HA19720   3.178   3.753  10.391  2.6087  1.9816 -1.5647
  174SOPE    HB19721   3.220   3.902  10.481  0.1746  0.5050 -0.9632
  174SOPE    C219722   3.093   3.928  10.300 -0.3698 -0.2127 -0.2225
  174SOPE    HS19723   3.067   4.030  10.337 -0.5050  0.0463 -1.0208
  174SOPE   O2119724   2.980   3.873  10.233  0.2195 -0.5080  0.2100
  174SOPE   C2119725   2.893   3.961  10.184 -0.3745  1.3030 -0.0791
  174SOPE   O2219726   2.915   4.080  10.164  0.0370 -0.6348 -0.1362
  174SOPE   C2219727   2.759   3.897  10.145 -0.4045  0.0543 -0.1501
  174SOPE   H2R19728   2.686   3.971  10.106 -0.0289 -0.1437 -1.2428
  174SOPE   H2S19729   2.732   3.855  10.245 -0.9785  1.9869  0.5206
  174SOPE    C319730   3.211   3.933  10.202  0.1333  0.1178 -0.1059
  174SOPE    HX19731   3.225   3.823  10.202  1.7015  0.2889  1.0657
  174SOPE    HY19732   3.296   3.983  10.253  0.8637 -0.6512 -0.5427
  174SOPE   O3119733   3.178   3.971  10.068 -0.4568  0.8458 -0.4797
  174SOPE   C3119734   3.198   4.099  10.044 -0.0711  0.2174  0.3214
  174SOPE   O3219735   3.257   4.178  10.117  0.0996 -0.2529 -0.4222
  174SOPE   C3219736   3.144   4.137   9.906 -0.1223  0.5183 -0.2020
  174SOPE   H2X19737   3.160   4.246   9.892 -1.2265  0.4846 -1.7918
  174SOPE   H2Y19738   3.033   4.129   9.907 -0.0744 -0.2118 -0.1249
  174SOPE   C2319739   2.777   3.789  10.041 -1.0820 -0.1740 -0.3632
  174SOPE   H3R19740   2.679   3.760   9.998 -0.0253  0.3617 -3.1910
  174SOPE   H3S19741   2.825   3.698  10.085 -1.3331  1.3767  3.3406
  174SOPE   C2419742   2.844   3.847   9.911  0.1899  0.8866  1.0240
  174SOPE   H4R19743   2.824   3.956   9.911  1.7642  1.2110 -1.3501
  174SOPE   H4S19744   2.953   3.833   9.931 -0.1561 -1.1694  1.5550
  174SOPE   C2519745   2.803   3.769   9.783 -0.1061 -0.2986 -0.6668
  174SOPE   H5R19746   2.846   3.667   9.770 -0.4169 -0.1258 -3.3593
  174SOPE   H5S19747   2.692   3.766   9.782 -0.2007  0.7272 -4.9276
  174SOPE   C2619748   2.848   3.838   9.654  0.1892  0.0050 -0.4359
  174SOPE   H6R19749   2.788   3.929   9.634 -0.9920 -0.2373  1.8565
  174SOPE   H6S19750   2.954   3.867   9.670  0.1294  0.2685 -0.5139
  174SOPE   C2719751   2.848   3.749   9.529  0.5274 -0.1137  0.6554
  174SOPE   H7R19752   2.749   3.699   9.528  0.2755  0.3850  0.6103
  174SOPE   H7S19753   2.857   3.815   9.440 -0.2649 -1.1971 -0.2511
  174SOPE   C2819754   2.967   3.649   9.526  0.6043 -0.4038  0.1241
  174SOPE   H8R19755   3.052   3.714   9.551 -0.7973  1.1735  0.8713
  174SOPE   H8S19756   2.950   3.576   9.609  0.7375 -2.1556 -1.3567
  174SOPE   C2919757   3.002   3.571   9.403  0.3658  0.5872 -0.7399
  174SOPE   H9119758   2.999   3.461   9.412  0.4846  0.6527  0.1263
  174SOPE  C21019759   3.069   3.623   9.303 -0.5145  0.2607  0.1756
  174SOPE  H10119760   3.106   3.555   9.225 -0.1528  0.6504  0.0042
  174SOPE  C21119761   3.109   3.765   9.288  0.4122  0.4100 -0.1461
  174SOPE  H11R19762   3.202   3.792   9.343  1.7316 -1.6175 -1.3254
  174SOPE  H11S19763   3.033   3.830   9.337  0.3349 -1.0279  1.6642
  174SOPE  C21219764   3.114   3.810   9.144 -0.2313  0.4356 -0.5219
  174SOPE  H12R19765   3.177   3.740   9.085  1.9323  0.5062  1.6038
  174SOPE  H12S19766   3.163   3.910   9.142 -1.0272  0.9648  3.0972
  174SOPE  C21319767   2.976   3.830   9.086 -0.2694 -0.9245 -0.1756
  174SOPE  H13R19768   2.936   3.908   9.154 -0.0406 -1.1424  0.2095
  174SOPE  H13S19769   2.918   3.736   9.101 -1.0682 -0.4383 -0.1856
  174SOPE  C21419770   2.976   3.868   8.940  0.0857 -0.6768  1.5867
  174SOPE  H14R19771   3.036   3.793   8.884  1.3021  1.4923 -0.1006
  174SOPE  H14S19772   3.024   3.967   8.927 -1.2189 -0.4641 -2.3722
  174SOPE  C21519773   2.843   3.881   8.864 -0.0116  0.4090  0.3505
  174SOPE  H15R19774   2.807   3.984   8.885  0.7780  0.9703 -1.0056
  174SOPE  H15S19775   2.776   3.806   8.912  1.8076 -1.3097  0.2870
  174SOPE  C21619776   2.857   3.868   8.714 -0.1725 -0.7497  0.2842
  174SOPE  H16R19777   2.758   3.882   8.665 -0.2048  1.5479  0.9941
  174SOPE  H16S19778   2.908   3.773   8.686 -0.7148 -0.1189 -3.0394
  174SOPE  C21719779   2.937   3.988   8.655 -0.0883  0.3952 -1.0519
  174SOPE  H17R19780   3.024   3.990   8.724 -1.0762 -2.6983  0.3757
  174SOPE  H17S19781   2.875   4.079   8.669 -0.0981  0.3270 -0.6526
  174SOPE  C21819782   2.975   3.974   8.511  0.5021 -0.1184 -0.1935
  174SOPE  H18R19783   3.020   4.074   8.492  0.8790  0.4623  3.3474
  174SOPE  H18S19784   2.886   3.961   8.446  0.8857  0.8814 -0.9259
  174SOPE  H18T19785   3.038   3.885   8.492  1.7463  0.6126  0.4348
  174SOPE   C3319786   3.197   4.056   9.788  0.8971  0.2877  0.0807
  174SOPE   H3X19787   3.160   3.951   9.798  0.5111  0.3776 -0.3819
  174SOPE   H3Y19788   3.307   4.062   9.782  0.8330  2.0313  0.5458
  174SOPE   C3419789   3.137   4.113   9.660  0.6449  0.6134  0.0979
  174SOPE   H4X19790   3.151   4.222   9.645  0.5405  0.3670 -1.8465
  174SOPE   H4Y19791   3.026   4.106   9.659  0.7024 -0.2942 -0.6281
  174SOPE   C3519792   3.194   4.037   9.531  0.3196  0.0025  0.5024
  174SOPE   H5X19793   3.180   3.929   9.551  2.7576 -0.0078  2.4585
  174SOPE   H5Y19794   3.304   4.047   9.546  0.3312  1.3667 -0.3454
  174SOPE   C3619795   3.135   4.090   9.398 -0.3594  0.1483 -0.0569
  174SOPE   H6X19796   3.029   4.058   9.383 -0.1258  0.0106 -1.4437
  174SOPE   H6Y19797   3.199   4.050   9.317 -0.5821 -1.4824  0.5538
  174SOPE   C3719798   3.160   4.242   9.374 -1.0888 -0.4101  0.2916
  174SOPE   H7X19799   3.256   4.261   9.425 -0.4908 -2.2354 -0.1121
  174SOPE   H7Y19800   3.088   4.307   9.428 -1.7540 -1.4216  0.6386
  174SOPE   C3819801   3.156   4.289   9.229  0.5087 -0.2829 -0.3726
  174SOPE   H8X19802   3.258   4.282   9.185  0.1803 -0.8827 -1.0477
  174SOPE   H8Y19803   3.141   4.399   9.229  0.3968 -0.2925 -1.3076
  174SOPE   C3919804   3.040   4.236   9.137  0.2247  0.1476  0.6061
  174SOPE   H9X19805   2.945   4.285   9.165  0.3500  1.0819 -0.5601
  174SOPE   H9Y19806   3.014   4.131   9.163  0.2145  0.0295  0.1296
  174SOPE  C31019807   3.062   4.250   8.990 -0.2725 -0.5608  0.7637
  174SOPE  H10X19808   2.969   4.214   8.940 -0.2122 -1.3575  1.2264
  174SOPE  H10Y19809   3.146   4.186   8.957 -1.1853 -0.7584 -1.2654
  174SOPE  C31119810   3.070   4.401   8.956 -0.3883  0.4125 -0.0497
  174SOPE  H11X19811   3.176   4.435   8.966 -0.3958  0.5350 -0.3528
  174SOPE  H11Y19812   3.005   4.462   9.022  0.1075  0.1905  0.6478
  174SOPE  C31219813   3.041   4.431   8.803  0.5615 -0.6228 -0.2018
  174SOPE  H12X19814   3.042   4.542   8.801 -2.7838 -0.5489  0.4367
  174SOPE  H12Y19815   2.939   4.389   8.791 -0.5949  2.4773 -1.9871
  174SOPE  C31319816   3.144   4.375   8.701 -0.8777  0.0235 -0.0888
  174SOPE  H13X19817   3.089   4.354   8.607  0.5809  1.9702 -1.4200
  174SOPE  H13Y19818   3.192   4.283   8.740  2.8710  0.8559 -2.5117
  174SOPE  C31419819   3.262   4.470   8.670  0.7011  0.0175  0.0343
  174SOPE  H14X19820   3.333   4.464   8.755  1.5355 -0.1660 -0.6596
  174SOPE  H14Y19821   3.225   4.574   8.678  0.0086 -0.2548  0.4542
  174SOPE  C31519822   3.323   4.450   8.528 -0.2593 -0.1843 -0.1165
  174SOPE  H15X19823   3.389   4.537   8.512  1.5503 -1.2315  1.3601
  174SOPE  H15Y19824   3.242   4.445   8.452  0.7773  0.5526 -1.2914
  174SOPE  C31619825   3.411   4.319   8.517  0.3492  0.0095 -1.1634
  174SOPE  H16X19826   3.358   4.224   8.539 -0.5593  0.1826 -2.5719
  174SOPE  H16Y19827   3.482   4.331   8.601 -1.2890 -2.5622  0.6474
  174SOPE  C31719828   3.462   4.296   8.380  0.0244  0.0349 -0.1236
  174SOPE  H17X19829   3.555   4.235   8.384  2.0250  3.0400  0.3949
  174SOPE  H17Y19830   3.487   4.396   8.338 -1.5965  0.4725 -0.0734
  174SOPE  C31819831   3.363   4.215   8.290 -0.3631 -0.3449 -0.0860
  174SOPE  H18X19832   3.410   4.214   8.190 -0.4030  1.6964 -0.1400
  174SOPE  H18Y19833   3.267   4.268   8.274  1.0287  1.1111 -4.2460
  174SOPE  H18Z19834   3.339   4.114   8.329  0.5255 -0.3860  0.3695
  175SOPE     N19835   4.783   5.629  10.883 -0.0635  0.3994 -0.0169
  175SOPE   HN119836   4.693   5.583  10.857 -0.0263 -0.2372  0.9569
  175SOPE   HN219837   4.859   5.559  10.892 -0.9217 -0.6793 -0.9821
  175SOPE   HN319838   4.776   5.678  10.975 -1.0030  1.5049 -0.6528
  175SOPE   C1219839   4.825   5.730  10.779  0.0644  0.5576  0.3630
  175SOPE  H12A19840   4.933   5.753  10.795  0.0473 -0.0253  1.3387
  175SOPE  H12B19841   4.768   5.823  10.798 -1.1224  0.0821 -0.7880
  175SOPE   C1119842   4.790   5.668  10.642  0.8960 -0.3934 -0.1804
  175SOPE  H11A19843   4.839   5.569  10.633  5.0651  1.1413  3.4488
  175SOPE  H11B19844   4.828   5.735  10.561  0.3952 -0.4470 -0.4582
  175SOPE     P19845   4.568   5.523  10.602 -0.3153 -0.1181  0.1787
  175SOPE   O1319846   4.450   5.560  10.519  0.3275 -0.4360 -0.5688
  175SOPE   O1419847   4.542   5.454  10.730 -0.6921 -0.2138 -0.3716
  175SOPE   O1219848   4.647   5.657  10.631  0.1137  0.4001  0.0788
  175SOPE   O1119849   4.666   5.440  10.516 -0.0300  0.0385  0.2202
  175SOPE    C119850   4.618   5.354  10.410 -0.0525  0.1719  0.0571
  175SOPE    HA19851   4.509   5.345  10.389 -0.8334  0.9167  3.5224
  175SOPE    HB19852   4.649   5.253  10.445 -1.2853 -0.4563 -0.6274
  175SOPE    C219853   4.712   5.385  10.289  0.0879 -0.8197  0.4942
  175SOPE    HS19854   4.712   5.494  10.265 -0.4553 -0.8455  0.3780
  175SOPE   O2119855   4.677   5.307  10.182 -0.4133  0.0293  0.2897
  175SOPE   C2119856   4.569   5.339  10.117  0.7365  0.1815 -0.5181
  175SOPE   O2219857   4.487   5.421  10.141 -0.0400 -0.8092  0.4068
  175SOPE   C2219858   4.547   5.241   9.997  0.6814  0.0407  0.9242
  175SOPE   H2R19859   4.437   5.226   9.987  0.8834 -1.4028  0.6443
  175SOPE   H2S19860   4.590   5.141  10.020  1.5521 -0.0521 -1.0701
  175SOPE    C319861   4.858   5.354  10.338  0.3391  0.5528  0.1178
  175SOPE    HX19862   4.859   5.250  10.376  0.2590  0.2324 -0.7607
  175SOPE    HY19863   4.885   5.418  10.425  0.5515  0.5722  0.0357
  175SOPE   O3119864   4.958   5.350  10.235  0.4010  0.3011  0.5922
  175SOPE   C3119865   4.979   5.467  10.176 -0.0714 -0.1644 -0.1945
  175SOPE   O3219866   4.928   5.577  10.197 -0.7060  0.4793  0.4975
  175SOPE   C3219867   5.097   5.445  10.076  0.0299 -0.1729 -0.2197
  175SOPE   H2X19868   5.150   5.348  10.087  0.2574  0.2416  2.6845
  175SOPE   H2Y19869   5.169   5.524  10.105 -1.3524  0.8254  0.5293
  175SOPE   C2319870   4.601   5.320   9.878 -0.5190  0.4144  0.6275
  175SOPE   H3R19871   4.712   5.320   9.885 -0.2649 -2.5162 -2.1957
  175SOPE   H3S19872   4.565   5.425   9.883  0.6309  0.7790  1.5179
  175SOPE   C2419873   4.563   5.268   9.735 -0.5872  0.0858  0.2795
  175SOPE   H4R19874   4.575   5.159   9.715  0.3635  0.7312 -2.9401
  175SOPE   H4S19875   4.456   5.293   9.715 -1.1534 -1.7140  0.8998
  175SOPE   C2519876   4.634   5.354   9.629  0.0244  0.4394 -0.5109
  175SOPE   H5R19877   4.591   5.456   9.623 -1.6373 -0.0655  2.0733
  175SOPE   H5S19878   4.742   5.369   9.649  0.5049 -1.3621 -1.5723
  175SOPE   C2619879   4.647   5.280   9.489  0.9619 -0.5481  0.4276
  175SOPE   H6R19880   4.701   5.185   9.510 -0.5399 -1.7599 -0.9615
  175SOPE   H6S19881   4.545   5.256   9.452  1.5129 -0.1601 -1.4073
  175SOPE   C2719882   4.722   5.348   9.377 -1.1315 -0.4758 -0.8826
  175SOPE   H7R19883   4.707   5.458   9.385 -0.7063 -0.5361  1.0676
  175SOPE   H7S19884   4.828   5.327   9.404 -1.3286 -0.5391 -0.1442
  175SOPE   C2819885   4.681   5.295   9.240 -0.2478 -0.2197  0.6862
  175SOPE   H8R19886   4.721   5.191   9.239 -0.2651 -0.2307 -1.1259
  175SOPE   H8S19887   4.572   5.287   9.221 -0.0046  1.9598 -1.9153
  175SOPE   C2919888   4.747   5.382   9.122  0.1855  0.1752 -0.2309
  175SOPE   H9119889   4.842   5.345   9.081  0.7471  0.0811  1.1345
  175SOPE  C21019890   4.704   5.501   9.080 -0.7008 -0.5430  0.2741
  175SOPE  H10119891   4.757   5.551   8.998 -2.0834 -0.0482 -0.3437
  175SOPE  C21119892   4.574   5.569   9.128 -0.0033  0.0233  0.7150
  175SOPE  H11R19893   4.497   5.498   9.165 -0.6496  0.5203  0.3221
  175SOPE  H11S19894   4.529   5.628   9.045 -1.6520 -2.5286 -0.2582
  175SOPE  C21219895   4.598   5.677   9.236  0.2605  0.7382 -0.1941
  175SOPE  H12R19896   4.639   5.772   9.198  0.3201  1.5449  1.8097
  175SOPE  H12S19897   4.676   5.647   9.310 -0.2267 -0.2186 -0.0545
  175SOPE  C21319898   4.468   5.703   9.318  1.1794  0.0886 -0.0373
  175SOPE  H13R19899   4.444   5.622   9.390 -1.1434  1.0763  0.3579
  175SOPE  H13S19900   4.377   5.719   9.255 -0.7837 -3.3260  1.7999
  175SOPE  C21419901   4.480   5.831   9.405 -0.0103 -0.3062 -0.5817
  175SOPE  H14R19902   4.376   5.862   9.430  0.9210  0.0197  3.0681
  175SOPE  H14S19903   4.522   5.907   9.336  1.8921 -1.3689 -0.6438
  175SOPE  C21519904   4.571   5.812   9.533 -0.2298  0.1785 -0.1407
  175SOPE  H15R19905   4.593   5.915   9.567 -0.6895  0.6628 -1.2710
  175SOPE  H15S19906   4.661   5.751   9.511 -0.9217 -0.9875  0.1841
  175SOPE  C21619907   4.503   5.735   9.640  0.3945 -0.4062 -0.3910
  175SOPE  H16R19908   4.572   5.667   9.694 -1.1982 -0.6645  1.3720
  175SOPE  H16S19909   4.423   5.670   9.597  0.6778 -1.4305  0.6265
  175SOPE  C21719910   4.438   5.827   9.751  0.3849 -0.3590  0.4513
  175SOPE  H17R19911   4.356   5.760   9.782 -0.2567 -0.3385 -1.1690
  175SOPE  H17S19912   4.382   5.911   9.705 -2.8697 -1.8916  1.4484
  175SOPE  C21819913   4.520   5.852   9.878  1.1175 -0.4219 -0.5577
  175SOPE  H18R19914   4.591   5.935   9.857 -0.3782  0.9159 -0.4655
  175SOPE  H18S19915   4.572   5.757   9.901  0.1977 -1.0054 -0.8949
  175SOPE  H18T19916   4.457   5.884   9.963  1.4800  1.2236 -0.8854
  175SOPE   C3319917   5.066   5.476   9.918  0.3383  0.3178 -0.3325
  175SOPE   H3X19918   5.067   5.587   9.911 -2.2941  0.3497 -0.4264
  175SOPE   H3Y19919   4.966   5.434   9.894 -0.0268  1.2058 -0.3902
  175SOPE   C3419920   5.175   5.417   9.832 -0.1138 -0.1057  0.8460
  175SOPE   H4X19921   5.166   5.308   9.851  0.5552 -0.4030 -0.4700
  175SOPE   H4Y19922   5.276   5.440   9.873  0.2078 -0.3308  0.1860
  175SOPE   C3519923   5.172   5.447   9.680 -0.4288  0.0341  1.2002
  175SOPE   H5X19924   5.200   5.552   9.657 -1.2727  0.1021  0.4433
  175SOPE   H5Y19925   5.068   5.428   9.644  0.3271 -0.3519 -0.7943
  175SOPE   C3619926   5.265   5.344   9.605 -0.3976  0.4916 -0.3123
  175SOPE   H6X19927   5.209   5.256   9.565  0.1559 -0.3288  0.6782
  175SOPE   H6Y19928   5.336   5.291   9.673 -1.2044  0.1839  0.2960
  175SOPE   C3719929   5.351   5.399   9.484  0.1025  0.2462 -0.2100
  175SOPE   H7X19930   5.393   5.309   9.433 -0.3846 -0.0262 -0.1322
  175SOPE   H7Y19931   5.438   5.456   9.524  0.3433 -0.7787  0.7623
  175SOPE   C3819932   5.255   5.475   9.391  0.3096 -0.1793  0.1510
  175SOPE   H8X19933   5.243   5.562   9.460  2.7829  0.3776 -0.0654
  175SOPE   H8Y19934   5.167   5.411   9.370  0.8020 -0.8364  0.0871
  175SOPE   C3919935   5.313   5.529   9.258 -0.0005 -0.6605 -0.1919
  175SOPE   H9X19936   5.352   5.446   9.195  2.0202  1.1921 -1.4842
  175SOPE   H9Y19937   5.408   5.575   9.293 -0.8967  1.5504 -0.5487
  175SOPE  C31019938   5.231   5.634   9.183 -0.0947 -0.2103  0.3507
  175SOPE  H10X19939   5.290   5.668   9.096 -2.0756 -0.3470 -1.0947
  175SOPE  H10Y19940   5.210   5.720   9.250  1.4700  1.9661 -1.9121
  175SOPE  C31119941   5.093   5.579   9.143  0.1434 -0.2266 -0.4294
  175SOPE  H11X19942   5.024   5.665   9.131  1.1203  0.7120  0.6424
  175SOPE  H11Y19943   5.063   5.513   9.227 -2.4998  2.4851  0.8566
  175SOPE  C31219944   5.101   5.499   9.018 -0.5432  0.2430 -0.3105
  175SOPE  H12X19945   5.029   5.415   9.017 -0.3800  0.0974  0.4465
  175SOPE  H12Y19946   5.198   5.447   9.004 -1.3258 -1.4641  0.5087
  175SOPE  C31319947   5.069   5.593   8.899  0.1622  0.6329  0.1277
  175SOPE  H13X19948   5.119   5.691   8.913  0.0262  0.4349  2.0652
  175SOPE  H13Y19949   4.963   5.620   8.884  0.0191 -0.7901 -1.6691
  175SOPE  C31419950   5.115   5.537   8.761 -0.6724 -0.0992  0.8570
  175SOPE  H14X19951   5.065   5.440   8.740  1.2944 -0.3118 -3.1548
  175SOPE  H14Y19952   5.225   5.527   8.770 -0.6354  0.9124  1.6562
  175SOPE  C31519953   5.095   5.636   8.656  0.0484  0.1188 -0.2410
  175SOPE  H15X19954   5.134   5.733   8.695  1.4475 -0.4114 -0.3123
  175SOPE  H15Y19955   4.989   5.642   8.622 -0.0631  0.0472  0.0926
  175SOPE  C31619956   5.172   5.612   8.520 -0.1633 -0.3446 -0.7534
  175SOPE  H16X19957   5.141   5.519   8.468  2.7573 -2.6213  1.3334
  175SOPE  H16Y19958   5.280   5.593   8.537 -0.6514 -2.0407  0.6352
  175SOPE  C31719959   5.156   5.722   8.408  0.8050  0.0319  0.2247
  175SOPE  H17X19960   5.046   5.727   8.390  0.6496  3.2104  1.7237
  175SOPE  H17Y19961   5.207   5.692   8.314  0.3167  3.6674 -1.3080
  175SOPE  C31819962   5.202   5.866   8.435  0.0638 -0.2480  0.0568
  175SOPE  H18X19963   5.278   5.875   8.516  1.6402  0.1554 -1.4290
  175SOPE  H18Y19964   5.111   5.929   8.448 -1.3597 -2.0143 -1.0618
  175SOPE  H18Z19965   5.265   5.901   8.351  3.3800  0.3435  2.6870
  176SOPE     N19966   4.277   5.308  10.746  0.4942  0.5811 -0.1690
  176SOPE   HN119967   4.241   5.405  10.742 -0.9040  0.1550  1.5076
  176SOPE   HN219968   4.208   5.245  10.793 -1.0608  1.9230 -0.6156
  176SOPE   HN319969   4.370   5.296  10.790  1.3370  0.4405 -1.9611
  176SOPE   C1219970   4.289   5.240  10.612 -0.4546  0.1159 -0.2205
  176SOPE  H12A19971   4.347   5.311  10.550  0.1759  1.0642  1.4322
  176SOPE  H12B19972   4.194   5.230  10.556  0.3792 -2.8592 -1.2293
  176SOPE   C1119973   4.363   5.109  10.636 -0.0009  0.2500  0.4523
  176SOPE  H11A19974   4.360   5.048  10.544  1.1519  1.3370 -0.3282
  176SOPE  H11B19975   4.304   5.045  10.705  1.6606 -2.3066 -0.4343
  176SOPE     P19976   4.552   5.110  10.825  0.2431 -0.6001 -0.3318
  176SOPE   O1319977   4.484   5.210  10.905  0.5411 -0.6679  0.0876
  176SOPE   O1419978   4.699   5.110  10.823 -0.4398  0.0290 -0.4156
  176SOPE   O1219979   4.497   5.134  10.678 -0.1925  0.2257 -0.5493
  176SOPE   O1119980   4.501   4.970  10.862  0.1428  0.0617 -0.0562
  176SOPE    C119981   4.592   4.855  10.854 -0.0913 -0.1153  0.1678
  176SOPE    HA19982   4.572   4.781  10.934  1.0101  0.3737  0.8972
  176SOPE    HB19983   4.695   4.889  10.878  0.1923 -0.6784 -0.2270
  176SOPE    C219984   4.580   4.773  10.724 -0.6875 -0.5547 -0.2232
  176SOPE    HS19985   4.653   4.690  10.728  2.1926  1.9231  1.7589
  176SOPE   O2119986   4.608   4.854  10.614  0.1835  0.3831  0.4157
  176SOPE   C2119987   4.733   4.859  10.574  0.0951  0.4593  0.1929
  176SOPE   O2219988   4.829   4.791  10.598  0.4526 -0.4148 -0.3212
  176SOPE   C2219989   4.746   4.976  10.473 -0.5851  0.0570  0.9738
  176SOPE   H2R19990   4.845   4.955  10.427 -0.6844  1.0246  0.3083
  176SOPE   H2S19991   4.753   5.071  10.530 -1.4495  0.8381 -0.2116
  176SOPE    C319992   4.438   4.707  10.711  0.4982 -0.9051 -0.0047
  176SOPE    HX19993   4.367   4.789  10.686  1.6955 -0.3721 -1.8054
  176SOPE    HY19994   4.416   4.658  10.808 -2.6479 -0.1969 -0.3019
  176SOPE   O3119995   4.437   4.607  10.607  0.4910  0.3138  0.6490
  176SOPE   C3119996   4.316   4.561  10.586  0.4013  0.4062  0.0975
  176SOPE   O3219997   4.213   4.580  10.656 -0.6434  0.2319 -0.1878
  176SOPE   C3219998   4.324   4.475  10.461 -0.1794 -0.1667  0.4083
  176SOPE   H2X19999   4.286   4.374  10.488  0.4751 -0.1151  1.5480
  176SOPE   H2Y20000   4.425   4.461  10.416 -0.6531  0.4231 -0.8619
  176SOPE   C2320001   4.624   4.991  10.379 -0.0756  0.1255 -0.0394
  176SOPE   H3R20002   4.654   5.078  10.316  4.1381 -1.8979 -1.0033
  176SOPE   H3S20003   4.525   4.992  10.430  0.9980  0.7892  2.0904
  176SOPE   C2420004   4.625   4.865  10.291 -0.4808 -0.0223 -0.2160
  176SOPE   H4R20005   4.716   4.881  10.229 -0.9690  2.0364 -0.4148
  176SOPE   H4S20006   4.615   4.770  10.349  2.8010 -0.8355 -0.8697
  176SOPE   C2520007   4.504   4.865  10.195 -0.2079  0.0482 -0.0458
  176SOPE   H5R20008   4.419   4.898  10.258  0.2040 -0.8526  0.9904
  176SOPE   H5S20009   4.515   4.954  10.130 -1.1034  0.6858  0.6576
  176SOPE   C2620010   4.478   4.736  10.115 -0.6283  0.2121  0.2153
  176SOPE   H6R20011   4.475   4.648  10.183 -0.1039  0.6821  0.8550
  176SOPE   H6S20012   4.390   4.738  10.048  0.0818 -1.6401 -0.8296
  176SOPE   C2720013   4.593   4.698  10.017 -0.3203 -0.4830 -0.1667
  176SOPE   H7R20014   4.625   4.795   9.974 -2.3570  0.9299  1.4239
  176SOPE   H7S20015   4.679   4.669  10.081  0.3171  0.7965 -0.4165
  176SOPE   C2820016   4.545   4.593   9.919 -0.6453  0.4366  0.2499
  176SOPE   H8R20017   4.638   4.540   9.888 -1.7543 -1.7517  0.5436
  176SOPE   H8S20018   4.485   4.514   9.970 -2.1685  1.7182  0.4919
  176SOPE   C2920019   4.465   4.650   9.805  0.4712 -0.4265  0.6800
  176SOPE   H9120020   4.380   4.707   9.847  0.9599 -0.0731  1.2077
  176SOPE  C21020021   4.478   4.634   9.667 -0.0779 -0.9088 -0.1893
  176SOPE  H10120022   4.393   4.675   9.611  0.0583  1.2248  1.0935
  176SOPE  C21120023   4.570   4.541   9.597 -0.1957  0.4261 -0.7284
  176SOPE  H11R20024   4.572   4.449   9.659 -0.8238  1.9548  1.6323
  176SOPE  H11S20025   4.671   4.581   9.577  0.4232 -0.3238  0.8207
  176SOPE  C21220026   4.533   4.484   9.456 -0.1632 -0.2788  0.9904
  176SOPE  H12R20027   4.438   4.427   9.462  0.5912 -1.3936  2.8856
  176SOPE  H12S20028   4.605   4.403   9.431 -1.1519 -0.6233 -0.8532
  176SOPE  C21320029   4.535   4.596   9.346 -0.7307 -0.4103  0.1074
  176SOPE  H13R20030   4.632   4.649   9.357 -0.7053 -0.6320  0.9870
  176SOPE  H13S20031   4.445   4.656   9.374  0.1716  0.8596  0.3138
  176SOPE  C21420032   4.513   4.538   9.206  0.7261 -0.3263 -0.7363
  176SOPE  H14R20033   4.605   4.477   9.186  1.7099  1.3002 -1.2530
  176SOPE  H14S20034   4.506   4.624   9.136  0.2782 -0.3201 -0.6809
  176SOPE  C21520035   4.390   4.453   9.173 -0.2176  0.3253  0.0538
  176SOPE  H15R20036   4.301   4.519   9.187  0.1656  0.5268  1.6386
  176SOPE  H15S20037   4.387   4.371   9.248  1.0004 -0.8559 -1.1577
  176SOPE  C21620038   4.390   4.409   9.031  0.1412  0.4739  0.1911
  176SOPE  H16R20039   4.491   4.365   9.012  0.0875 -1.2337  3.5242
  176SOPE  H16S20040   4.375   4.497   8.965 -1.0049  1.1753  1.3747
  176SOPE  C21720041   4.285   4.299   8.997 -0.2077 -0.3560  0.2548
  176SOPE  H17R20042   4.322   4.210   9.053  0.0849 -0.2216  0.2771
  176SOPE  H17S20043   4.288   4.287   8.887 -1.6842 -1.2879  0.3064
  176SOPE  C21820044   4.142   4.327   9.050  0.1087  0.4411  0.5903
  176SOPE  H18R20045   4.130   4.341   9.159  0.1063 -1.7377  0.8937
  176SOPE  H18S20046   4.088   4.232   9.028 -0.8737  1.1833 -0.2706
  176SOPE  H18T20047   4.099   4.400   8.978  1.2437  1.1134  0.5855
  176SOPE   C3320048   4.221   4.518  10.353 -0.2586 -0.2422 -0.1309
  176SOPE   H3X20049   4.259   4.614  10.311  1.8515 -0.1868  1.8410
  176SOPE   H3Y20050   4.124   4.549  10.398  0.2473  0.8207  0.2561
  176SOPE   C3420051   4.208   4.414  10.237 -0.1517  0.2960  0.0180
  176SOPE   H4X20052   4.166   4.322  10.283 -0.2208 -0.3596 -1.3301
  176SOPE   H4Y20053   4.302   4.373  10.195  1.1679  3.6571 -0.4798
  176SOPE   C3520054   4.117   4.466  10.127 -0.2562  0.4570  0.0607
  176SOPE   H5X20055   4.171   4.550  10.078  1.3051  0.3181  1.4817
  176SOPE   H5Y20056   4.026   4.503  10.180  1.0799  0.9869  2.0363
  176SOPE   C3620057   4.071   4.352  10.030  0.7611 -0.0473 -0.0701
  176SOPE   H6X20058   4.016   4.279  10.093  1.0038  1.5905  2.0966
  176SOPE   H6Y20059   4.158   4.301   9.985 -0.1233  0.7331 -2.7557
  176SOPE   C3720060   3.982   4.401   9.915 -0.6078  0.3501  0.3341
  176SOPE   H7X20061   3.929   4.317   9.865 -0.3587  0.0569  0.5629
  176SOPE   H7Y20062   4.065   4.435   9.849 -1.0776 -0.3919 -0.6582
  176SOPE   C3820063   3.880   4.510   9.956  0.1778 -0.5730 -0.2843
  176SOPE   H8X20064   3.938   4.597   9.995  0.3825 -2.1689  3.1260
  176SOPE   H8Y20065   3.819   4.471  10.039  0.8880  2.0187  1.5132
  176SOPE   C3920066   3.795   4.561   9.833 -0.5930 -0.1244  0.5210
  176SOPE   H9X20067   3.698   4.507   9.830 -1.1586  0.9705 -1.3275
  176SOPE   H9Y20068   3.859   4.543   9.744 -1.0490 -0.7665  0.3234
  176SOPE  C31020069   3.769   4.708   9.865  0.1005 -0.7382  0.8298
  176SOPE  H10X20070   3.842   4.759   9.931 -1.2040 -0.2009  1.8795
  176SOPE  H10Y20071   3.666   4.711   9.905 -0.3627  1.3260 -0.3944
  176SOPE  C31120072   3.768   4.803   9.744  0.1500  0.0307 -0.3517
  176SOPE  H11X20073   3.714   4.751   9.662  0.6768 -0.0203 -0.6686
  176SOPE  H11Y20074   3.873   4.820   9.712  0.6805 -3.9043 -1.0211
  176SOPE  C31220075   3.697   4.932   9.790  0.3679 -0.1829  0.9193
  176SOPE  H12X20076   3.713   4.948   9.899 -1.4279 -0.4132  1.2244
  176SOPE  H12Y20077   3.587   4.919   9.781  0.4026  0.2338 -0.2473
  176SOPE  C31320078   3.734   5.058   9.703 -0.3775 -0.3296 -0.3427
  176SOPE  H13X20079   3.838   5.082   9.732 -0.5955 -2.3353  2.2889
  176SOPE  H13Y20080   3.677   5.149   9.733 -2.4265 -1.0203 -1.9733
  176SOPE  C31420081   3.735   5.020   9.548  0.1821 -0.2596  0.4860
  176SOPE  H14X20082   3.642   4.964   9.524  1.0067 -1.3832 -0.1512
  176SOPE  H14Y20083   3.822   4.952   9.536  3.3682  3.2447  2.4380
  176SOPE  C31520084   3.755   5.138   9.454 -0.1609 -0.4861  0.4489
  176SOPE  H15X20085   3.851   5.190   9.472  0.9655 -1.5354 -2.2463
  176SOPE  H15Y20086   3.677   5.215   9.470  0.1063 -0.2242  0.4981
  176SOPE  C31620087   3.751   5.107   9.303 -0.1492 -0.2464 -0.1806
  176SOPE  H16X20088   3.767   5.196   9.237 -0.1579  0.7082  1.0809
  176SOPE  H16Y20089   3.651   5.069   9.273 -0.4227 -0.4401  0.9608
  176SOPE  C31720090   3.858   5.003   9.258 -0.1143  0.7826  0.8220
  176SOPE  H17X20091   3.844   4.911   9.319 -1.5998 -0.2767 -1.0892
  176SOPE  H17Y20092   3.958   5.036   9.293  1.7261 -3.1526 -0.3896
  176SOPE  C31820093   3.862   4.974   9.110 -0.0878 -0.1900  0.3326
  176SOPE  H18X20094   3.957   4.922   9.085 -0.0130  0.7186 -1.3224
  176SOPE  H18Y20095   3.870   5.073   9.061 -0.1156  0.4900  1.6590
  176SOPE  H18Z20096   3.773   4.914   9.083 -1.2255  0.8554  1.6427
  177SOPE     N20097   3.603   2.979  11.159  0.5196  0.4713 -0.4192
  177SOPE   HN120098   3.580   2.883  11.192 -1.5906  1.0905 -0.0144
  177SOPE   HN220099   3.597   3.038  11.244  1.6617  1.9968 -1.3716
  177SOPE   HN320100   3.526   2.993  11.090  0.2271 -1.6359 -0.5497
  177SOPE   C1220101   3.738   2.978  11.097 -0.9702 -0.2499  0.0785
  177SOPE  H12A20102   3.768   3.083  11.079 -0.4468 -0.0703  1.9032
  177SOPE  H12B20103   3.724   2.937  10.994 -0.3447 -1.5459  0.4957
  177SOPE   C1120104   3.836   2.894  11.180 -0.5665  0.3743  0.3727
  177SOPE  H11A20105   3.792   2.792  11.190 -0.6113  0.3076 -0.5109
  177SOPE  H11B20106   3.853   2.920  11.287 -0.0916  1.1577  0.1074
  177SOPE     P20107   4.038   2.764  11.081  0.2823  0.3093 -0.0529
  177SOPE   O1320108   4.020   2.720  10.936  0.5194 -0.3647  0.5691
  177SOPE   O1420109   4.007   2.659  11.178  0.8381  0.0232 -0.3840
  177SOPE   O1220110   3.960   2.896  11.114  0.0183  0.0708 -0.1941
  177SOPE   O1120111   4.188   2.800  11.103  0.7600  0.2164  0.1787
  177SOPE    C120112   4.235   2.937  11.110  0.4093 -0.0176  0.4255
  177SOPE    HA20113   4.326   2.940  11.174  0.3181 -0.0264  0.5528
  177SOPE    HB20114   4.167   3.004  11.165  0.1006  0.5188 -0.6008
  177SOPE    C220115   4.278   2.999  10.975  0.1991  0.1831 -0.3173
  177SOPE    HS20116   4.326   3.096  11.001 -0.4887  0.0314  1.6023
  177SOPE   O2120117   4.153   3.032  10.898 -0.2177  0.2681 -0.1743
  177SOPE   C2120118   4.091   3.144  10.939  0.1871  0.3075 -0.5194
  177SOPE   O2220119   4.133   3.227  11.018 -0.0247  0.0345 -0.7100
  177SOPE   C2220120   3.966   3.158  10.860 -0.2934 -0.2415  0.2018
  177SOPE   H2R20121   3.901   3.207  10.936  0.7968 -1.4464  1.9444
  177SOPE   H2S20122   3.930   3.057  10.832 -0.5268 -0.2649  0.5942
  177SOPE    C320123   4.364   2.902  10.887 -0.2808  0.3227 -1.1582
  177SOPE    HX20124   4.307   2.809  10.908  0.3543  0.0350 -0.6670
  177SOPE    HY20125   4.465   2.895  10.935 -1.6866  1.1320  2.0709
  177SOPE   O3120126   4.371   2.928  10.746 -0.8592 -0.5599  0.3141
  177SOPE   C3120127   4.438   3.037  10.703 -0.6221  0.1179  0.0551
  177SOPE   O3220128   4.480   3.122  10.779  0.1594  0.2874  0.2026
  177SOPE   C3220129   4.437   3.050  10.551 -0.0987  0.7753  0.6526
  177SOPE   H2X20130   4.342   3.000  10.524  0.9832 -0.7721 -0.3267
  177SOPE   H2Y20131   4.519   2.993  10.504  0.7008  1.1874  1.5244
  177SOPE   C2320132   3.975   3.253  10.734  0.0539 -0.5492 -0.2438
  177SOPE   H3R20133   4.010   3.352  10.771  2.4671 -1.4989  0.1168
  177SOPE   H3S20134   3.872   3.271  10.697 -0.0719 -2.0498 -0.6402
  177SOPE   C2420135   4.054   3.205  10.610 -0.4282  0.1656 -0.4762
  177SOPE   H4R20136   4.040   3.283  10.532 -0.0516 -1.1484 -1.8909
  177SOPE   H4S20137   4.163   3.197  10.629  0.1099  3.7249 -1.6772
  177SOPE   C2520138   4.000   3.068  10.551 -0.5586 -0.0979  0.8250
  177SOPE   H5R20139   4.037   2.988  10.619  0.9689  1.4891  1.9227
  177SOPE   H5S20140   3.890   3.060  10.566 -0.5503 -1.2411  0.3209
  177SOPE   C2620141   4.043   3.022  10.407  0.2771  0.1839 -0.2323
  177SOPE   H6R20142   4.026   3.113  10.345 -0.9474 -0.2212 -0.5144
  177SOPE   H6S20143   4.151   2.997  10.418  0.4336  1.5221  1.4922
  177SOPE   C2720144   3.971   2.888  10.371 -0.4454 -0.7996 -0.4217
  177SOPE   H7R20145   4.037   2.806  10.407  0.3682 -0.0051 -0.0847
  177SOPE   H7S20146   3.874   2.879  10.423 -0.3424 -2.8142 -0.5369
  177SOPE   C2820147   3.938   2.883  10.221  0.3785  0.7831  0.4076
  177SOPE   H8R20148   3.847   2.821  10.204  0.2383  1.6306 -2.0912
  177SOPE   H8S20149   3.908   2.983  10.185  0.3496  0.5753 -0.1498
  177SOPE   C2920150   4.045   2.825  10.130  0.4357  0.2777  0.9279
  177SOPE   H9120151   4.063   2.717  10.137  0.3000  0.2583  0.9691
  177SOPE  C21020152   4.119   2.899  10.045  0.4250 -1.1137  0.0796
  177SOPE  H10120153   4.199   2.849   9.990  0.5113  1.2480 -2.0386
  177SOPE  C21120154   4.104   3.049  10.018  0.5386 -0.7008 -0.3422
  177SOPE  H11R20155   4.205   3.096  10.018  0.4305 -0.4511 -1.9530
  177SOPE  H11S20156   4.047   3.094  10.103  1.5234 -0.2273  0.0787
  177SOPE  C21220157   4.032   3.081   9.890  0.1758 -0.1072  0.1309
  177SOPE  H12R20158   3.993   3.183   9.907  1.5138  0.2271  1.3095
  177SOPE  H12S20159   3.942   3.016   9.879 -2.5554  3.6626 -0.8453
  177SOPE  C21320160   4.123   3.076   9.766  0.1122 -0.0849 -0.7056
  177SOPE  H13R20161   4.214   3.140   9.773  0.5605 -0.7863 -0.0138
  177SOPE  H13S20162   4.059   3.121   9.688  1.2200  0.7200 -1.1762
  177SOPE  C21420163   4.173   2.939   9.733 -1.0687 -0.2530  0.8216
  177SOPE  H14R20164   4.103   2.856   9.753  0.0808 -1.3871  0.2418
  177SOPE  H14S20165   4.258   2.916   9.801  0.9592  2.9759 -0.5058
  177SOPE  C21520166   4.245   2.934   9.594  0.2932 -0.3753 -0.0022
  177SOPE  H15R20167   4.312   2.845   9.601 -0.4394 -0.9785 -0.5120
  177SOPE  H15S20168   4.322   3.014   9.592  1.1733 -1.0416  3.7747
  177SOPE  C21620169   4.149   2.924   9.475 -0.3356 -0.0856  0.0748
  177SOPE  H16R20170   4.062   2.990   9.493  1.1388  1.4668  1.7154
  177SOPE  H16S20171   4.105   2.823   9.463  0.3094 -0.2540 -1.0019
  177SOPE  C21720172   4.226   2.956   9.344  0.6863  0.0942  0.6502
  177SOPE  H17R20173   4.240   3.065   9.325  1.4000  0.3873  2.7225
  177SOPE  H17S20174   4.163   2.955   9.252 -0.5573  1.6384  1.4603
  177SOPE  C21820175   4.348   2.881   9.313  0.0630 -0.0943 -1.0868
  177SOPE  H18R20176   4.406   2.929   9.230  1.6022  1.7781  1.0138
  177SOPE  H18S20177   4.327   2.774   9.291 -0.7478  0.1343 -1.4177
  177SOPE  H18T20178   4.424   2.885   9.394 -0.3404  1.1493 -0.7596
  177SOPE   C3320179   4.446   3.195  10.503  0.0815 -0.4051  0.2726
  177SOPE   H3X20180   4.549   3.236  10.510 -0.8389  2.3826 -1.6267
  177SOPE   H3Y20181   4.385   3.267  10.562  1.2393 -0.4910  1.5772
  177SOPE   C3420182   4.413   3.209  10.355  0.3491 -0.1720  0.0742
  177SOPE   H4X20183   4.313   3.164  10.340 -0.2959 -0.1129  3.7580
  177SOPE   H4Y20184   4.486   3.154  10.291 -0.5555 -0.3479 -0.8267
  177SOPE   C3520185   4.426   3.349  10.302  0.0724  0.0341 -0.0355
  177SOPE   H5X20186   4.531   3.381  10.317  0.1958 -1.0443  1.4842
  177SOPE   H5Y20187   4.364   3.410  10.371  1.0760  0.5227  0.4320
  177SOPE   C3620188   4.380   3.363  10.154  0.3490 -0.0855  0.2880
  177SOPE   H6X20189   4.412   3.276  10.093 -1.9565 -0.6909 -0.0937
  177SOPE   H6Y20190   4.442   3.450  10.124 -0.8233  0.6512  0.0063
  177SOPE   C3720191   4.232   3.402  10.130  0.0462  0.0998  0.2439
  177SOPE   H7X20192   4.207   3.498  10.180  1.1553  1.1209 -1.1072
  177SOPE   H7Y20193   4.167   3.314  10.149 -0.3450  0.0154 -1.4112
  177SOPE   C3820194   4.210   3.437   9.980  0.1601  0.4359 -0.1741
  177SOPE   H8X20195   4.258   3.358   9.919 -1.5756  0.0887 -1.1337
  177SOPE   H8Y20196   4.257   3.532   9.948  0.4017  0.5484  0.5046
  177SOPE   C3920197   4.065   3.468   9.946  0.0904 -0.3549  1.1401
  177SOPE   H9X20198   4.032   3.567   9.984  0.4496 -0.6150  2.1512
  177SOPE   H9Y20199   4.008   3.387   9.998 -1.1780 -0.2594 -0.0627
  177SOPE  C31020200   4.052   3.469   9.797  0.3152 -0.1739 -0.2838
  177SOPE  H10X20201   4.097   3.371   9.768  0.2761 -1.0225  2.4252
  177SOPE  H10Y20202   4.102   3.556   9.747 -1.4926  1.0654  0.0451
  177SOPE  C31120203   3.901   3.477   9.751  0.0939 -0.8340 -0.4454
  177SOPE  H11X20204   3.864   3.571   9.796 -1.3765 -1.3452 -0.5531
  177SOPE  H11Y20205   3.839   3.395   9.795 -1.1365  1.1525  1.6241
  177SOPE  C31220206   3.867   3.493   9.600 -0.3236  0.8601  0.2822
  177SOPE  H12X20207   3.918   3.587   9.569  0.2585 -0.2518 -2.2562
  177SOPE  H12Y20208   3.757   3.506   9.598 -0.3893  0.5939  1.8823
  177SOPE  C31320209   3.914   3.372   9.514  0.0172  0.1582 -0.7326
  177SOPE  H13X20210   3.903   3.280   9.575 -1.6205  0.5907 -0.3607
  177SOPE  H13Y20211   4.022   3.374   9.486  0.3768 -0.4034  0.6005
  177SOPE  C31420212   3.857   3.362   9.378 -0.7404 -0.0723 -0.1701
  177SOPE  H14X20213   3.884   3.465   9.348  2.0584 -0.6367  0.2937
  177SOPE  H14Y20214   3.746   3.357   9.381 -0.8585  1.7079 -1.1424
  177SOPE  C31520215   3.934   3.261   9.284  0.1752 -0.1503  0.1410
  177SOPE  H15X20216   3.913   3.156   9.314  0.3413  0.5779  2.9956
  177SOPE  H15Y20217   4.043   3.278   9.291  0.4278 -0.7213 -2.0351
  177SOPE  C31620218   3.906   3.295   9.131  0.3104  0.5600  0.5024
  177SOPE  H16X20219   3.931   3.398   9.097  1.8106 -0.1084 -0.4651
  177SOPE  H16Y20220   3.797   3.285   9.113  0.8555 -0.0985 -2.6916
  177SOPE  C31720221   3.970   3.176   9.053  0.4940 -0.8138 -0.6219
  177SOPE  H17X20222   3.946   3.078   9.098  1.0778 -0.6529  0.0406
  177SOPE  H17Y20223   4.081   3.186   9.047  0.5202 -0.7421 -0.0330
  177SOPE  C31820224   3.930   3.159   8.902  1.3035  0.2835 -0.6985
  177SOPE  H18X20225   3.978   3.245   8.853  0.5614  0.9064 -0.3458
  177SOPE  H18Y20226   3.819   3.169   8.897  1.3430  1.1860  0.1284
  177SOPE  H18Z20227   3.965   3.064   8.855  2.0125  0.0687  0.2513
  178SOPE     N20228   1.658   1.687  10.601 -0.0964  0.0418 -0.0755
  178SOPE   HN120229   1.687   1.776  10.556 -2.0222 -0.2778 -2.0533
  178SOPE   HN220230   1.559   1.678  10.568 -0.2493 -0.7957  0.5914
  178SOPE   HN320231   1.642   1.709  10.702 -0.2219  1.5894 -0.4191
  178SOPE   C1220232   1.746   1.563  10.573  0.1928  0.3738  0.0853
  178SOPE  H12A20233   1.830   1.568  10.646 -1.4532 -0.7502  2.0812
  178SOPE  H12B20234   1.777   1.575  10.466 -1.2246  2.2022 -0.1403
  178SOPE   C1120235   1.664   1.441  10.587 -0.0320  0.3052  0.9749
  178SOPE  H11A20236   1.725   1.352  10.558 -1.5178 -0.8335  1.3098
  178SOPE  H11B20237   1.572   1.452  10.527  0.6830 -1.3819 -0.4729
  178SOPE     P20238   1.574   1.293  10.779 -0.0058  0.1508  0.2634
  178SOPE   O1320239   1.493   1.320  10.899 -0.3836 -0.6810  0.2528
  178SOPE   O1420240   1.697   1.211  10.792 -0.0310  0.3690  0.1831
  178SOPE   O1220241   1.620   1.433  10.724 -0.2637  0.3646  0.2519
  178SOPE   O1120242   1.486   1.231  10.661 -0.3194 -0.4002 -0.5496
  178SOPE    C120243   1.497   1.107  10.610  0.1368 -0.0604 -0.3412
  178SOPE    HA20244   1.395   1.067  10.594  0.0432 -0.4867  1.2608
  178SOPE    HB20245   1.543   1.036  10.682 -1.6785  0.4180  1.3242
  178SOPE    C220246   1.570   1.094  10.470 -0.3528  0.0549  0.5161
  178SOPE    HS20247   1.569   0.988  10.438 -1.7017 -0.3605  1.8885
  178SOPE   O2120248   1.709   1.143  10.474  0.1158 -0.2075 -0.2281
  178SOPE   C2120249   1.788   1.062  10.545  0.8291 -0.6964  0.3695
  178SOPE   O2220250   1.755   0.958  10.604  0.2031  0.3135  0.2112
  178SOPE   C2220251   1.929   1.115  10.528 -0.0424 -0.8991 -0.8363
  178SOPE   H2R20252   2.000   1.052  10.587 -1.5509 -0.7856  1.1382
  178SOPE   H2S20253   1.934   1.219  10.565 -3.7262 -0.5768 -1.1345
  178SOPE    C320254   1.497   1.184  10.360  0.1733 -0.3644  0.4812
  178SOPE    HX20255   1.498   1.282  10.412 -0.2515 -1.5681  2.8491
  178SOPE    HY20256   1.396   1.142  10.340  0.7446 -0.2919 -2.6873
  178SOPE   O3120257   1.568   1.203  10.240  0.2737  0.3788 -0.6756
  178SOPE   C3120258   1.579   1.098  10.156  0.0279  0.3910  0.5833
  178SOPE   O3220259   1.538   0.983  10.182  0.5123 -0.3956 -0.2875
  178SOPE   C3220260   1.641   1.146  10.026  0.3368  0.4615  0.7296
  178SOPE   H2X20261   1.741   1.188  10.049  1.0187 -1.1547  0.7293
  178SOPE   H2Y20262   1.578   1.228   9.985 -1.0769 -1.3501 -0.8382
  178SOPE   C2320263   1.969   1.107  10.382  0.2318  0.1417  0.1612
  178SOPE   H3R20264   2.076   1.132  10.368  0.4957 -0.6052  0.8495
  178SOPE   H3S20265   1.901   1.171  10.321  1.0679  0.3487 -0.5752
  178SOPE   C2420266   1.959   0.962  10.320  0.3420  0.2169 -0.6718
  178SOPE   H4R20267   2.024   0.896  10.382  2.3442  0.8914 -2.0103
  178SOPE   H4S20268   1.854   0.931  10.339  0.6064 -1.0364 -1.2240
  178SOPE   C2520269   1.999   0.944  10.169  0.0972  0.3031 -0.3234
  178SOPE   H5R20270   2.012   0.834  10.165 -0.7012  0.2766 -2.9626
  178SOPE   H5S20271   1.917   0.979  10.103 -1.6972  0.2176  1.7865
  178SOPE   C2620272   2.129   1.016  10.122  0.9604  0.0804  0.3642
  178SOPE   H6R20273   2.112   1.125  10.134  2.8630  0.3860  0.4721
  178SOPE   H6S20274   2.210   0.996  10.195  0.2588  1.4759  1.5535
  178SOPE   C2720275   2.180   1.002   9.976 -0.6828 -0.5693  0.2167
  178SOPE   H7R20276   2.269   1.068   9.967 -1.2017  0.0029 -0.7846
  178SOPE   H7S20277   2.210   0.896   9.963 -4.0747 -1.5534  0.0309
  178SOPE   C2820278   2.086   1.042   9.861  0.7942 -0.7409  0.2471
  178SOPE   H8R20279   2.101   0.997   9.760 -0.3415  0.9473 -0.7214
  178SOPE   H8S20280   1.988   1.002   9.895 -0.1418  0.6820 -0.6817
  178SOPE   C2920281   2.078   1.196   9.848  0.0510  0.4905  0.0472
  178SOPE   H9120282   2.020   1.251   9.924 -0.5426  2.7100 -1.9397
  178SOPE  C21020283   2.132   1.265   9.748  0.6049  0.3005 -0.1021
  178SOPE  H10120284   2.112   1.373   9.748 -2.1940 -0.1822 -0.8143
  178SOPE  C21120285   2.204   1.214   9.626 -0.4244  0.0505 -0.0166
  178SOPE  H11R20286   2.226   1.105   9.630  0.6218  0.2840  0.5960
  178SOPE  H11S20287   2.301   1.265   9.610  0.3173 -1.3102  0.1506
  178SOPE  C21220288   2.114   1.237   9.503 -0.5381  0.7983  0.0971
  178SOPE  H12R20289   2.123   1.344   9.477  3.0448  0.8909  1.4567
  178SOPE  H12S20290   2.007   1.216   9.523 -0.2813 -0.0368  0.6148
  178SOPE  C21320291   2.158   1.142   9.390 -0.5812 -0.3104  0.3757
  178SOPE  H13R20292   2.115   1.039   9.393 -1.2267 -0.0909 -1.0393
  178SOPE  H13S20293   2.268   1.129   9.394 -0.2109  2.5629  0.7547
  178SOPE  C21420294   2.129   1.212   9.254 -0.5165 -0.1569 -0.1666
  178SOPE  H14R20295   2.161   1.318   9.261  1.5477 -0.7742 -0.0681
  178SOPE  H14S20296   2.020   1.226   9.233 -0.7151  0.8525  1.4694
  178SOPE  C21520297   2.193   1.133   9.139 -1.0457  0.0238 -0.6104
  178SOPE  H15R20298   2.156   1.029   9.140  2.7335 -1.4082 -0.0831
  178SOPE  H15S20299   2.304   1.139   9.147 -1.1582 -0.5028  1.7260
  178SOPE  C21620300   2.153   1.199   9.010  0.1848 -0.2826 -0.2250
  178SOPE  H16R20301   2.195   1.301   9.019  1.5713 -0.9105  0.4798
  178SOPE  H16S20302   2.042   1.204   9.005  0.0399 -2.5290  0.1171
  178SOPE  C21720303   2.203   1.122   8.887 -0.8854  0.6233  0.5626
  178SOPE  H17R20304   2.192   1.187   8.797 -0.8506  1.2532  1.0086
  178SOPE  H17S20305   2.139   1.032   8.886  0.3577 -0.2639  0.3137
  178SOPE  C21820306   2.346   1.073   8.890 -0.2665  0.5045 -0.3850
  178SOPE  H18R20307   2.385   1.021   8.800  0.5288 -1.2565  0.9454
  178SOPE  H18S20308   2.354   1.003   8.976  0.6484  2.2615  0.9979
  178SOPE  H18T20309   2.424   1.151   8.900  2.2684 -1.9389 -0.5186
  178SOPE   C3320310   1.646   1.030   9.921 -0.2347 -0.0892  0.0443
  178SOPE   H3X20311   1.542   0.992   9.910  0.1460 -2.0695  2.5710
  178SOPE   H3Y20312   1.712   0.951   9.965  0.9829  1.6349  1.3714
  178SOPE   C3420313   1.699   1.083   9.786 -0.6535 -0.4581  0.2009
  178SOPE   H4X20314   1.809   1.066   9.796 -0.4727 -0.3039 -1.3718
  178SOPE   H4Y20315   1.679   1.187   9.753  0.4884 -1.5979 -4.4504
  178SOPE   C3520316   1.649   1.004   9.669  0.8002  0.3035 -0.5356
  178SOPE   H5X20317   1.539   1.017   9.661  0.4644 -1.2774  1.2118
  178SOPE   H5Y20318   1.658   0.896   9.693  0.7844  0.7115  1.3908
  178SOPE   C3620319   1.714   1.037   9.531  0.5178  0.0422  0.2121
  178SOPE   H6X20320   1.823   1.043   9.548  0.8532  0.0936 -1.8083
  178SOPE   H6Y20321   1.676   1.137   9.501 -3.2218 -1.9792 -2.2330
  178SOPE   C3720322   1.684   0.934   9.422  0.1291 -0.4081  0.1470
  178SOPE   H7X20323   1.574   0.915   9.418 -0.4692  2.7655  0.4313
  178SOPE   H7Y20324   1.722   0.837   9.461  0.0320 -0.2146  0.7321
  178SOPE   C3820325   1.753   0.953   9.283 -0.0294 -0.1771 -0.3426
  178SOPE   H8X20326   1.768   0.859   9.225  1.1098 -0.0714 -0.2303
  178SOPE   H8Y20327   1.850   1.005   9.298  0.1944 -0.2979 -1.3104
  178SOPE   C3920328   1.669   1.047   9.192 -0.5741 -0.1019 -0.1601
  178SOPE   H9X20329   1.654   1.135   9.258 -1.9326 -1.0759  0.8675
  178SOPE   H9Y20330   1.568   1.001   9.185  0.9286 -3.7881  1.1510
  178SOPE  C31020331   1.704   1.072   9.051  0.1320 -0.1170  0.7712
  178SOPE  H10X20332   1.733   0.975   9.006 -0.5592  1.3052 -2.9059
  178SOPE  H10Y20333   1.790   1.142   9.045  1.2533 -1.2590  2.8949
  178SOPE  C31120334   1.586   1.136   8.984 -0.8244  0.3045  0.1886
  178SOPE  H11X20335   1.565   1.231   9.038  1.5416  1.4437 -0.8593
  178SOPE  H11Y20336   1.492   1.079   9.005 -0.3847 -0.9555 -1.1930
  178SOPE  C31220337   1.612   1.156   8.835 -0.6772  0.1004 -0.0852
  178SOPE  H12X20338   1.585   1.066   8.775 -1.5140  0.3956 -0.1705
  178SOPE  H12Y20339   1.715   1.190   8.811 -0.8641  1.0923  0.4822
  178SOPE  C31320340   1.530   1.275   8.791  0.2850 -0.4092 -0.0740
  178SOPE  H13X20341   1.572   1.363   8.844 -2.3938  0.7164  0.2714
  178SOPE  H13Y20342   1.424   1.259   8.820  0.3012 -1.3087 -0.4981
  178SOPE  C31420343   1.530   1.302   8.636 -0.4969  0.5054  0.1342
  178SOPE  H14X20344   1.541   1.198   8.600 -1.1172  0.3821  0.2893
  178SOPE  H14Y20345   1.634   1.337   8.617  0.1601 -1.7005 -0.4769
  178SOPE  C31520346   1.417   1.381   8.581  0.4754  0.1189  0.5250
  178SOPE  H15X20347   1.393   1.466   8.649 -2.1947  1.2944 -1.7790
  178SOPE  H15Y20348   1.329   1.313   8.584 -1.4152  2.4986  0.1680
  178SOPE  C31620349   1.433   1.429   8.436 -0.0085 -0.3189  0.1482
  178SOPE  H16X20350   1.459   1.339   8.376 -0.0627 -0.5971  0.5427
  178SOPE  H16Y20351   1.518   1.499   8.417 -1.2343  1.3493  0.7346
  178SOPE  C31720352   1.315   1.504   8.389 -0.7079 -0.4420  0.3114
  178SOPE  H17X20353   1.232   1.431   8.396  0.4028 -1.6909  0.6790
  178SOPE  H17Y20354   1.331   1.542   8.285  1.1482 -1.5946  0.1443
  178SOPE  C31820355   1.285   1.629   8.472 -0.5669 -0.2640  0.2886
  178SOPE  H18X20356   1.225   1.608   8.563  0.5592 -0.3178  1.0338
  178SOPE  H18Y20357   1.242   1.710   8.409  0.1916 -2.0549 -2.6430
  178SOPE  H18Z20358   1.379   1.667   8.518 -0.8253 -0.2851  0.8425
  179SOPE     N20359   1.122   2.915   6.345 -0.1742  0.3867  0.3377
  179SOPE   HN120360   1.043   2.960   6.296 -0.3293 -1.8948 -1.6139
  179SOPE   HN220361   1.205   2.909   6.283  0.0082  2.6925  0.3384
  179SOPE   HN320362   1.105   2.813   6.362  1.8536  0.1942  1.4759
  179SOPE   C1220363   1.152   2.985   6.472 -0.9125  0.4574 -0.3974
  179SOPE  H12A20364   1.159   3.093   6.446 -0.5078  0.1153 -1.7363
  179SOPE  H12B20365   1.254   2.954   6.504 -1.7466 -0.7262  1.1560
  179SOPE   C1120366   1.056   2.949   6.590 -0.1347 -0.8062 -0.2356
  179SOPE  H11A20367   1.098   2.999   6.679  2.0010 -1.2995 -0.9217
  179SOPE  H11B20368   1.072   2.842   6.615 -2.8473 -0.8514  1.4392
  179SOPE     P20369   0.824   2.860   6.528 -0.1650  0.0859 -0.0848
  179SOPE   O1320370   0.884   2.789   6.410 -0.7575  0.0041  0.2562
  179SOPE   O1420371   0.691   2.914   6.513  0.2176  0.1578  0.0579
  179SOPE   O1220372   0.919   2.975   6.580  0.1044  0.1301 -0.6547
  179SOPE   O1120373   0.829   2.757   6.651  0.2649 -0.5261  0.2397
  179SOPE    C120374   0.772   2.801   6.777 -0.3073 -0.0900  0.6193
  179SOPE    HA20375   0.662   2.785   6.778 -0.2398 -0.5416  1.3475
  179SOPE    HB20376   0.802   2.907   6.794 -2.5884  0.9620 -1.6239
  179SOPE    C220377   0.831   2.710   6.895 -0.0119 -0.3726  0.0665
  179SOPE    HS20378   0.941   2.718   6.886  0.1278 -1.3310  0.8250
  179SOPE   O2120379   0.786   2.573   6.858 -1.0709  0.2799 -0.5969
  179SOPE   C2120380   0.864   2.481   6.911  0.9759  0.0098  0.1317
  179SOPE   O2220381   0.952   2.502   6.993  0.0847  0.3365 -0.2736
  179SOPE   C2220382   0.824   2.339   6.857  0.2687  0.6810 -0.7380
  179SOPE   H2R20383   0.836   2.347   6.747 -0.4399  1.5104 -0.7560
  179SOPE   H2S20384   0.717   2.321   6.881  0.4914  1.0032  0.5442
  179SOPE    C320385   0.767   2.761   7.028  0.6155 -0.0984  0.2400
  179SOPE    HX20386   0.657   2.762   7.012  0.7374  0.7197 -0.6181
  179SOPE    HY20387   0.799   2.864   7.054 -1.5933  0.2753  1.6001
  179SOPE   O3120388   0.801   2.676   7.144  0.0572 -0.3513  0.2320
  179SOPE   C3120389   0.918   2.694   7.200  0.2551  0.0451 -0.6479
  179SOPE   O3220390   1.000   2.776   7.163  0.1772  0.2278 -0.4449
  179SOPE   C3220391   0.935   2.608   7.320 -0.1404  0.5932  0.3922
  179SOPE   H2X20392   1.039   2.570   7.314  0.0699  1.4677 -1.9891
  179SOPE   H2Y20393   0.860   2.526   7.310 -0.4769  0.8239  0.9797
  179SOPE   C2320394   0.916   2.237   6.911 -0.1285  0.1158 -0.2321
  179SOPE   H3R20395   1.018   2.269   6.941 -0.9288  0.8037  1.8428
  179SOPE   H3S20396   0.940   2.162   6.833 -0.3155  0.1421 -0.3170
  179SOPE   C2420397   0.870   2.154   7.032  0.6580  0.0233 -0.0475
  179SOPE   H4R20398   0.765   2.128   7.009  1.0418  1.1099 -3.1470
  179SOPE   H4S20399   0.939   2.068   7.046 -1.4148 -1.2700  2.7570
  179SOPE   C2520400   0.862   2.225   7.167 -0.2490  0.1402  0.0652
  179SOPE   H5R20401   0.956   2.285   7.177 -1.1549  1.5879  0.0042
  179SOPE   H5S20402   0.772   2.290   7.173 -1.3458 -1.0647 -2.5881
  179SOPE   C2620403   0.871   2.144   7.301  0.3088  0.2837  0.5958
  179SOPE   H6R20404   0.770   2.110   7.332 -1.4062  3.5799 -1.1808
  179SOPE   H6S20405   0.935   2.057   7.274 -0.5746 -0.1529 -0.1421
  179SOPE   C2720406   0.931   2.225   7.414  1.1736 -0.4473 -0.0106
  179SOPE   H7R20407   1.026   2.274   7.382 -0.1191  2.0268 -0.2235
  179SOPE   H7S20408   0.858   2.295   7.458 -1.2820 -3.2307  0.5027
  179SOPE   C2820409   0.969   2.144   7.550  0.1178  0.0896  0.7683
  179SOPE   H8R20410   0.885   2.076   7.576 -0.7739 -0.5521 -3.4160
  179SOPE   H8S20411   1.050   2.076   7.518 -0.0365  0.4540 -0.4243
  179SOPE   C2920412   1.025   2.227   7.668  0.7317  0.6017 -0.1787
  179SOPE   H9120413   1.059   2.329   7.645  3.5860 -0.1816  0.3758
  179SOPE  C21020414   1.041   2.191   7.797  0.8241  0.2610  0.0682
  179SOPE  H10120415   1.059   2.277   7.864  0.7669 -0.0825  0.5295
  179SOPE  C21120416   1.000   2.065   7.862  0.0822 -0.7574  0.5050
  179SOPE  H11R20417   1.026   1.985   7.789  0.5053 -0.8297  0.7294
  179SOPE  H11S20418   0.891   2.057   7.879 -0.2054  1.1812 -0.3250
  179SOPE  C21220419   1.081   2.044   7.997  0.0989 -0.2279  0.1152
  179SOPE  H12R20420   1.047   2.124   8.067 -0.2768  0.8027 -1.2343
  179SOPE  H12S20421   1.189   2.071   7.989  0.1867 -0.3409  0.8799
  179SOPE  C21320422   1.065   1.904   8.059 -0.3237 -1.0415  0.7430
  179SOPE  H13R20423   0.959   1.901   8.092 -0.7313 -1.0300 -0.5304
  179SOPE  H13S20424   1.131   1.896   8.148 -1.3191 -0.8055  1.5078
  179SOPE  C21420425   1.091   1.790   7.960  0.5986  0.0535 -0.4143
  179SOPE  H14R20426   1.191   1.805   7.916  1.6088 -3.5962  0.4319
  179SOPE  H14S20427   1.011   1.787   7.883 -1.0078  1.4616  1.1641
  179SOPE  C21520428   1.081   1.660   8.041 -0.1834  0.8585  0.0044
  179SOPE  H15R20429   0.986   1.662   8.098  0.0150  1.1811  0.3282
  179SOPE  H15S20430   1.164   1.663   8.115  1.7412  0.2573 -2.0470
  179SOPE  C21620431   1.090   1.540   7.945  0.8476 -0.4302  0.4408
  179SOPE  H16R20432   1.167   1.556   7.867  0.4946  0.2114  0.2233
  179SOPE  H16S20433   0.996   1.548   7.887  1.7303  0.7112 -0.8486
  179SOPE  C21720434   1.097   1.400   8.015 -0.1343  0.6919 -0.5249
  179SOPE  H17R20435   1.041   1.324   7.956  1.1029  0.9604 -2.0689
  179SOPE  H17S20436   1.051   1.395   8.116 -0.4071 -1.7432 -0.7477
  179SOPE  C21820437   1.237   1.342   8.032  0.5741  0.1461  0.2479
  179SOPE  H18R20438   1.300   1.396   8.106  0.3104 -2.0924  2.1515
  179SOPE  H18S20439   1.307   1.355   7.946  3.0878  2.8401  2.5798
  179SOPE  H18T20440   1.221   1.237   8.065  0.6123  0.0418 -0.0620
  179SOPE   C3320441   0.912   2.675   7.460 -0.1331  1.0671 -0.2398
  179SOPE   H3X20442   0.809   2.717   7.465 -0.4008  0.3798  0.0559
  179SOPE   H3Y20443   0.988   2.755   7.456  0.4339  0.5428  0.0038
  179SOPE   C3420444   0.946   2.571   7.571  0.4953 -0.4247 -0.1982
  179SOPE   H4X20445   1.038   2.517   7.539 -0.5497 -1.4715 -1.5154
  179SOPE   H4Y20446   0.874   2.487   7.568  0.4168 -0.3693  0.1057
  179SOPE   C3520447   0.936   2.648   7.706 -0.1704  0.2630 -0.3271
  179SOPE   H5X20448   0.910   2.575   7.785  1.8832  0.0895  0.2285
  179SOPE   H5Y20449   0.856   2.724   7.711 -0.6951 -0.3026 -0.1326
  179SOPE   C3620450   1.070   2.707   7.729 -0.1526 -0.8708  1.0591
  179SOPE   H6X20451   1.060   2.807   7.777 -0.9909 -0.3862 -0.1232
  179SOPE   H6Y20452   1.112   2.731   7.629  0.9961 -0.5632  1.6000
  179SOPE   C3720453   1.163   2.614   7.800  0.2438 -0.0737  0.4646
  179SOPE   H7X20454   1.264   2.658   7.786  1.2395 -2.6184 -0.6574
  179SOPE   H7Y20455   1.167   2.516   7.748  1.4909  0.1129  0.1795
  179SOPE   C3820456   1.149   2.596   7.956  0.2665  0.1335  0.1266
  179SOPE   H8X20457   1.057   2.537   7.978  0.9743 -1.3278 -0.7633
  179SOPE   H8Y20458   1.132   2.701   7.988  0.3349  0.2931 -0.3570
  179SOPE   C3920459   1.268   2.534   8.030  0.1421 -0.4866 -0.3998
  179SOPE   H9X20460   1.367   2.582   8.023 -0.3828  0.8439  1.1838
  179SOPE   H9Y20461   1.277   2.436   7.977  3.1139 -0.4727  0.0221
  179SOPE  C31020462   1.242   2.521   8.178 -0.8805 -0.4402  0.1161
  179SOPE  H10X20463   1.312   2.444   8.217 -0.2627 -0.2553 -0.6154
  179SOPE  H10Y20464   1.140   2.482   8.198 -1.1649  0.1596 -0.1437
  179SOPE  C31120465   1.244   2.654   8.255  0.4666 -0.1672  1.1530
  179SOPE  H11X20466   1.154   2.719   8.244  0.5422 -0.4103 -0.9349
  179SOPE  H11Y20467   1.329   2.710   8.212 -1.5027  1.5146 -0.6808
  179SOPE  C31220468   1.247   2.637   8.407  0.1643 -0.4726  0.0491
  179SOPE  H12X20469   1.334   2.577   8.441  0.0410 -2.2263 -2.5905
  179SOPE  H12Y20470   1.157   2.573   8.427 -0.2741 -0.0534 -0.5532
  179SOPE  C31320471   1.237   2.759   8.493 -0.5176 -0.3089  0.4413
  179SOPE  H13X20472   1.199   2.729   8.593 -1.7518  0.3074  0.1692
  179SOPE  H13Y20473   1.150   2.817   8.455 -0.1064 -0.4506 -0.7219
  179SOPE  C31420474   1.365   2.840   8.496 -0.5091  0.7185  0.4493
  179SOPE  H14X20475   1.388   2.863   8.390  0.1416 -0.6254  0.2997
  179SOPE  H14Y20476   1.447   2.776   8.535  0.8076  0.7785 -2.1004
  179SOPE  C31520477   1.361   2.971   8.580  0.0072 -0.3089 -0.2266
  179SOPE  H15X20478   1.365   2.943   8.687  1.0834  2.7236  0.5739
  179SOPE  H15Y20479   1.267   3.030   8.570 -0.4861 -1.2685 -1.3101
  179SOPE  C31620480   1.477   3.059   8.561 -1.3985 -0.2245  0.7006
  179SOPE  H16X20481   1.470   3.095   8.456  0.1169 -1.2981  0.2141
  179SOPE  H16Y20482   1.576   3.014   8.584 -1.2707  0.1969  0.9850
  179SOPE  C31720483   1.466   3.186   8.651 -0.0674 -0.4827 -0.4960
  179SOPE  H17X20484   1.465   3.161   8.759  0.4316 -0.6745 -0.5364
  179SOPE  H17Y20485   1.377   3.248   8.624 -0.2998 -0.9032 -0.6910
  179SOPE  C31820486   1.594   3.278   8.634 -0.4900  0.2378  0.6142
  179SOPE  H18X20487   1.625   3.278   8.527  0.1991 -2.0519  0.8003
  179SOPE  H18Y20488   1.676   3.246   8.700  0.5148 -0.5229 -0.9824
  179SOPE  H18Z20489   1.562   3.382   8.656  0.9727  1.0604 -1.0036
  180SOPE     N20490   6.727   2.110   5.995 -0.2006 -0.1343 -0.2605
  180SOPE   HN120491   6.695   2.025   5.944 -0.2422 -1.0304  1.2369
  180SOPE   HN220492   6.808   2.080   6.053 -0.4706  1.8795  1.2288
  180SOPE   HN320493   6.653   2.147   6.057 -2.7937 -0.5847 -2.9984
  180SOPE   C1220494   6.785   2.222   5.910 -0.3388  0.2688 -0.0061
  180SOPE  H12A20495   6.702   2.278   5.862 -0.2683 -0.6364 -1.2128
  180SOPE  H12B20496   6.853   2.179   5.834 -0.6321  1.2067 -0.8049
  180SOPE   C1120497   6.852   2.314   6.006 -0.0948 -0.0090 -0.6554
  180SOPE  H11A20498   6.776   2.370   6.064  1.0919  0.8567  0.0811
  180SOPE  H11B20499   6.899   2.386   5.935 -0.4212  1.0918  0.2223
  180SOPE     P20500   7.055   2.338   6.157 -0.3465  0.1788 -0.9333
  180SOPE   O1320501   7.038   2.480   6.123  0.0784  0.0529 -0.1101
  180SOPE   O1420502   7.191   2.284   6.145 -0.0286 -0.3757  0.3353
  180SOPE   O1220503   6.944   2.251   6.092 -0.5308  0.4016 -0.5636
  180SOPE   O1120504   7.018   2.316   6.316 -0.5873 -0.2804  0.0293
  180SOPE    C120505   6.882   2.349   6.346 -0.0152  0.1634  0.2449
  180SOPE    HA20506   6.809   2.290   6.288 -0.7399  1.6273 -0.3572
  180SOPE    HB20507   6.850   2.451   6.316 -3.8125 -1.1413 -0.3899
  180SOPE    C220508   6.850   2.327   6.493  0.0031 -0.0739  0.4147
  180SOPE    HS20509   6.914   2.400   6.546 -0.3984  0.4582  0.1694
  180SOPE   O2120510   6.868   2.185   6.528 -0.8367  0.5044  0.1642
  180SOPE   C2120511   6.913   2.161   6.650 -0.1631  0.7585 -0.5192
  180SOPE   O2220512   6.950   2.243   6.729  0.0726  0.0385  0.3786
  180SOPE   C2220513   6.904   2.012   6.681 -0.3850 -0.2177  0.4259
  180SOPE   H2R20514   6.981   1.961   6.619 -1.5908  1.0327 -2.2074
  180SOPE   H2S20515   6.805   1.983   6.639 -1.7294  1.1847  2.5219
  180SOPE    C320516   6.706   2.371   6.525 -0.2320  0.4590 -0.1967
  180SOPE    HX20517   6.632   2.298   6.484  1.6192 -1.8416  0.4597
  180SOPE    HY20518   6.679   2.460   6.463  1.5523  1.5026  0.5080
  180SOPE   O3120519   6.671   2.401   6.664 -0.3877  0.1243 -0.1637
  180SOPE   C3120520   6.719   2.517   6.709 -0.1485  0.0479  0.4930
  180SOPE   O3220521   6.785   2.595   6.646  0.2546  0.1186  0.6524
  180SOPE   C3220522   6.686   2.530   6.851 -0.1372  0.1767 -0.3813
  180SOPE   H2X20523   6.746   2.468   6.921  0.5108 -0.7488 -1.7106
  180SOPE   H2Y20524   6.584   2.489   6.864  0.1276 -0.2934  0.2265
  180SOPE   C2320525   6.927   1.992   6.826  0.1533  1.0029 -0.6648
  180SOPE   H3R20526   7.029   2.031   6.850 -0.3912  1.8989  0.2237
  180SOPE   H3S20527   6.937   1.882   6.840  1.0431  1.2083  0.4120
  180SOPE   C2420528   6.811   2.046   6.903 -0.2730 -0.1780  0.2345
  180SOPE   H4R20529   6.813   2.157   6.909 -0.1152 -0.1045 -0.9344
  180SOPE   H4S20530   6.722   2.013   6.844  0.4389 -0.1549 -0.8621
  180SOPE   C2520531   6.795   1.980   7.052 -0.2472  0.0951  0.7538
  180SOPE   H5R20532   6.780   1.873   7.027 -1.2546  0.9978 -2.7722
  180SOPE   H5S20533   6.884   2.003   7.113 -0.6057 -2.4633  2.3176
  180SOPE   C2620534   6.669   2.036   7.124 -0.1983  1.2825  0.6807
  180SOPE   H6R20535   6.581   2.030   7.057  0.3898  1.1113 -0.0913
  180SOPE   H6S20536   6.638   1.976   7.212 -0.0478  2.5592  1.6184
  180SOPE   C2720537   6.690   2.177   7.172 -0.9775  0.1161  0.3786
  180SOPE   H7R20538   6.785   2.177   7.231  0.0964 -1.3729 -1.2987
  180SOPE   H7S20539   6.692   2.250   7.089  1.8488 -0.3428 -0.0182
  180SOPE   C2820540   6.576   2.234   7.279  0.1085  0.1913  0.1644
  180SOPE   H8R20541   6.479   2.243   7.225 -0.6166  0.8068  1.5504
  180SOPE   H8S20542   6.565   2.159   7.361 -0.0062  1.0537  0.9430
  180SOPE   C2920543   6.606   2.373   7.330 -0.3167 -0.1506  0.4474
  180SOPE   H9120544   6.621   2.437   7.242  1.3675  1.8479  2.1534
  180SOPE  C21020545   6.623   2.423   7.452  0.6455 -0.1022  0.5858
  180SOPE  H10120546   6.645   2.530   7.465 -0.9883  0.1242  1.7001
  180SOPE  C21120547   6.617   2.334   7.577  0.9526 -0.6765 -0.3613
  180SOPE  H11R20548   6.613   2.225   7.557 -2.2600 -1.0930  2.1997
  180SOPE  H11S20549   6.533   2.355   7.646  1.0473  0.3666 -0.5569
  180SOPE  C21220550   6.747   2.370   7.652 -0.6630 -0.2860  0.3716
  180SOPE  H12R20551   6.747   2.477   7.681 -3.0749 -0.1669 -0.0070
  180SOPE  H12S20552   6.833   2.336   7.590  0.9058  3.3916  0.3967
  180SOPE  C21320553   6.754   2.294   7.789 -0.3579  0.1901  0.8870
  180SOPE  H13R20554   6.750   2.189   7.751  0.2850  1.0853 -1.7553
  180SOPE  H13S20555   6.656   2.302   7.841  0.2140 -3.5436  2.7411
  180SOPE  C21420556   6.867   2.334   7.881  0.0110 -0.0653  0.1600
  180SOPE  H14R20557   6.849   2.441   7.904 -1.3496 -0.6161  1.7605
  180SOPE  H14S20558   6.966   2.316   7.834 -1.3841  1.9894 -3.8589
  180SOPE  C21520559   6.865   2.252   8.013 -0.0445 -0.0883 -0.3709
  180SOPE  H15R20560   6.872   2.143   7.988 -1.5177 -0.5306  1.1059
  180SOPE  H15S20561   6.769   2.261   8.068  1.0979 -1.8327  2.0021
  180SOPE  C21620562   6.995   2.279   8.093 -0.2811  0.4228  0.3598
  180SOPE  H16R20563   7.003   2.385   8.125 -1.5924  1.8327 -3.7079
  180SOPE  H16S20564   7.085   2.270   8.028 -0.8728 -1.1890 -0.2761
  180SOPE  C21720565   7.003   2.195   8.219  0.7537 -0.0420  0.5673
  180SOPE  H17R20566   7.029   2.091   8.190 -3.0910 -0.2764 -2.3985
  180SOPE  H17S20567   6.900   2.199   8.261  0.4662  0.0373 -0.1336
  180SOPE  C21820568   7.113   2.249   8.316 -0.3304 -0.2274 -0.4227
  180SOPE  H18R20569   7.073   2.348   8.349  2.1731  0.5639  0.3239
  180SOPE  H18S20570   7.207   2.253   8.258  0.7035  3.0815  1.3235
  180SOPE  H18T20571   7.130   2.180   8.401  1.0881  0.5563 -0.0488
  180SOPE   C3320572   6.702   2.678   6.913  0.6098 -0.4106  0.1870
  180SOPE   H3X20573   6.627   2.735   6.853  3.3213 -0.1794 -3.1324
  180SOPE   H3Y20574   6.803   2.718   6.889 -0.2674  0.2756 -2.5941
  180SOPE   C3420575   6.661   2.677   7.060  0.0043 -0.1531  0.3232
  180SOPE   H4X20576   6.708   2.586   7.102  0.2742 -0.6223 -0.9528
  180SOPE   H4Y20577   6.552   2.674   7.082 -0.2393  1.3747 -0.6119
  180SOPE   C3520578   6.725   2.785   7.151 -0.0271  0.1038  0.1117
  180SOPE   H5X20579   6.698   2.880   7.101  2.5058  1.4464  1.2207
  180SOPE   H5Y20580   6.835   2.773   7.161  0.1691  3.0171  2.0546
  180SOPE   C3620581   6.652   2.782   7.286  0.5191  0.2448 -0.1985
  180SOPE   H6X20582   6.695   2.698   7.344  1.7684  0.4422 -0.8112
  180SOPE   H6Y20583   6.541   2.779   7.279  0.5602 -2.8536  0.0608
  180SOPE   C3720584   6.684   2.906   7.373  0.2549 -0.1004 -0.2620
  180SOPE   H7X20585   6.650   3.000   7.323  1.4011 -0.2734 -1.3896
  180SOPE   H7Y20586   6.794   2.920   7.376  0.3094 -0.8938  2.3205
  180SOPE   C3820587   6.617   2.900   7.510 -0.3188  1.0385  0.7108
  180SOPE   H8X20588   6.527   2.835   7.509 -0.9713  1.9185  1.5270
  180SOPE   H8Y20589   6.571   2.998   7.535 -0.8688  0.6534  1.2314
  180SOPE   C3920590   6.713   2.836   7.620  0.3744  0.4126 -0.3820
  180SOPE   H9X20591   6.818   2.868   7.607  0.3678 -0.6842 -3.7822
  180SOPE   H9Y20592   6.703   2.727   7.599 -0.3594  0.3722  0.1508
  180SOPE  C31020593   6.660   2.854   7.762  0.2063 -0.4827  0.0013
  180SOPE  H10X20594   6.562   2.808   7.786 -1.3220  1.0959 -3.0197
  180SOPE  H10Y20595   6.646   2.963   7.778  3.5740 -0.1201  0.9280
  180SOPE  C31120596   6.764   2.813   7.869 -0.0205  0.1421 -0.0857
  180SOPE  H11X20597   6.843   2.891   7.869  1.3365 -1.2099  1.6612
  180SOPE  H11Y20598   6.803   2.713   7.842 -1.9612 -1.1785  1.8340
  180SOPE  C31220599   6.697   2.809   8.011  0.8831 -0.1883  0.3218
  180SOPE  H12X20600   6.603   2.753   7.997  1.0795 -0.2166 -0.9252
  180SOPE  H12Y20601   6.677   2.913   8.043  0.9530  0.2200 -0.9484
  180SOPE  C31320602   6.784   2.724   8.102 -0.1693  0.0760 -0.4965
  180SOPE  H13X20603   6.880   2.774   8.124 -0.3816  0.3025 -0.0688
  180SOPE  H13Y20604   6.813   2.634   8.043 -0.3887  0.3863 -1.0741
  180SOPE  C31420605   6.709   2.683   8.221  0.7754 -0.5392 -0.2697
  180SOPE  H14X20606   6.607   2.646   8.197  0.5691 -0.7024  0.8239
  180SOPE  H14Y20607   6.691   2.776   8.279 -1.2699 -0.0636 -1.6370
  180SOPE  C31520608   6.785   2.572   8.304  0.9203 -0.6753  0.6373
  180SOPE  H15X20609   6.894   2.591   8.318  0.4138  0.4002  3.4220
  180SOPE  H15Y20610   6.783   2.469   8.262 -0.8623  0.6278 -2.6235
  180SOPE  C31620611   6.712   2.557   8.438 -0.2577 -0.0184 -0.3758
  180SOPE  H16X20612   6.603   2.540   8.433  0.0249 -1.8287 -0.8047
  180SOPE  H16Y20613   6.720   2.656   8.488 -0.1104  0.4461 -1.3150
  180SOPE  C31720614   6.786   2.463   8.529 -0.8325 -0.1707  0.0527
  180SOPE  H17X20615   6.794   2.511   8.629  1.5103 -0.0339 -0.1730
  180SOPE  H17Y20616   6.892   2.457   8.496 -0.3373 -0.5564  1.6876
  180SOPE  C31820617   6.739   2.322   8.530  0.3881  0.9837  0.7560
  180SOPE  H18X20618   6.668   2.296   8.612 -1.2806  1.2237 -0.5961
  180SOPE  H18Y20619   6.829   2.259   8.547 -1.2344 -1.8154 -0.6324
  180SOPE  H18Z20620   6.703   2.292   8.430  2.5261  0.2746  0.1668
  181SOPE     N20621   6.022   0.375   5.616 -0.0011 -0.1655  0.1405
  181SOPE   HN120622   6.072   0.363   5.525  1.2339 -0.5369  0.8555
  181SOPE   HN220623   5.967   0.292   5.646 -2.0194  0.6766 -1.1831
  181SOPE   HN320624   5.959   0.457   5.612  0.7759  0.3697 -1.5212
  181SOPE   C1220625   6.137   0.411   5.712  0.7428  0.1147  0.4115
  181SOPE  H12A20626   6.216   0.477   5.671 -0.9430  0.9741 -1.5850
  181SOPE  H12B20627   6.176   0.310   5.740  0.7954  0.4927  1.7635
  181SOPE   C1120628   6.076   0.467   5.839 -0.0531  0.9039 -0.1202
  181SOPE  H11A20629   5.992   0.535   5.813 -2.5225 -1.3452  1.7174
  181SOPE  H11B20630   6.150   0.535   5.887 -0.3893  0.1034  1.5852
  181SOPE     P20631   6.123   0.285   6.026  0.3129  0.4032 -0.2859
  181SOPE   O1320632   6.238   0.364   6.064  0.0341 -0.0596  0.2439
  181SOPE   O1420633   6.168   0.156   5.964 -0.2769 -0.1031 -0.1447
  181SOPE   O1220634   6.033   0.363   5.925 -0.1734 -0.0003  0.4793
  181SOPE   O1120635   6.033   0.268   6.150 -0.6110 -0.1806  0.2544
  181SOPE    C120636   5.980   0.378   6.216  0.1540 -0.5901 -0.0567
  181SOPE    HA20637   5.945   0.456   6.145  0.3982 -1.0815 -0.7168
  181SOPE    HB20638   6.047   0.421   6.294  0.5709  1.3985 -1.4824
  181SOPE    C220639   5.845   0.328   6.286 -1.1301  0.2675  0.3564
  181SOPE    HS20640   5.784   0.293   6.199 -0.5101 -0.4825  0.2167
  181SOPE   O2120641   5.787   0.435   6.362 -0.1425 -0.4550  0.7053
  181SOPE   C2120642   5.665   0.409   6.405 -1.0114 -0.2216 -0.1467
  181SOPE   O2220643   5.596   0.322   6.364  0.0944  0.4801 -0.1268
  181SOPE   C2220644   5.628   0.514   6.508 -0.4920  0.1019 -0.7433
  181SOPE   H2R20645   5.549   0.579   6.466 -2.2748 -1.6855 -0.2037
  181SOPE   H2S20646   5.710   0.587   6.529 -2.1201  2.1808 -1.3722
  181SOPE    C320647   5.884   0.216   6.380 -0.5113 -0.6814 -0.4414
  181SOPE    HX20648   5.930   0.127   6.331 -0.2088 -1.7280  1.6592
  181SOPE    HY20649   5.792   0.175   6.427  0.3121 -1.7005  0.3127
  181SOPE   O3120650   5.964   0.259   6.493  0.3993 -0.0515  0.2500
  181SOPE   C3120651   6.030   0.166   6.561 -1.1122  0.4698  0.2568
  181SOPE   O3220652   6.036   0.048   6.533 -0.6957 -0.0196 -0.5574
  181SOPE   C3220653   6.108   0.231   6.676  0.3823  0.1882  0.1986
  181SOPE   H2X20654   6.021   0.249   6.742  0.5929 -0.1658  0.5763
  181SOPE   H2Y20655   6.141   0.331   6.640  0.4937 -0.0706 -0.4242
  181SOPE   C2320656   5.571   0.449   6.638 -0.5456  1.1995 -0.3905
  181SOPE   H3R20657   5.510   0.363   6.604  1.9193 -0.3358 -1.0612
  181SOPE   H3S20658   5.501   0.516   6.692  0.6332  2.8570 -0.8622
  181SOPE   C2420659   5.676   0.400   6.735  0.0651  0.2614 -0.3243
  181SOPE   H4R20660   5.726   0.311   6.691 -0.7197 -0.0496 -0.6120
  181SOPE   H4S20661   5.745   0.486   6.740  0.1305  0.2028 -0.2216
  181SOPE   C2520662   5.611   0.368   6.873  0.4196 -0.0214  0.0679
  181SOPE   H5R20663   5.585   0.454   6.939 -0.2522 -0.5569  0.5090
  181SOPE   H5S20664   5.521   0.306   6.854  0.5991  0.5234 -2.8259
  181SOPE   C2620665   5.717   0.288   6.944 -1.1027  0.1031  0.0271
  181SOPE   H6R20666   5.746   0.195   6.890 -1.7434  1.4194 -2.6408
  181SOPE   H6S20667   5.800   0.358   6.965 -1.2804 -0.3546  2.3443
  181SOPE   C2720668   5.664   0.245   7.085  0.7138 -0.2125 -0.2481
  181SOPE   H7R20669   5.617   0.334   7.132 -0.3896 -0.5583 -0.6983
  181SOPE   H7S20670   5.584   0.175   7.053  1.6197 -0.0638 -2.8791
  181SOPE   C2820671   5.777   0.190   7.168 -0.1527 -0.5325 -0.0851
  181SOPE   H8R20672   5.814   0.092   7.129 -1.3313 -0.7238 -0.7410
  181SOPE   H8S20673   5.856   0.266   7.182  0.0956 -0.7821 -0.1305
  181SOPE   C2920674   5.714   0.152   7.299 -0.4854  0.5200 -0.0091
  181SOPE   H9120675   5.635   0.077   7.288  0.1692 -0.2876  0.7501
  181SOPE  C21020676   5.746   0.191   7.425  0.3674  0.2969 -0.2178
  181SOPE  H10120677   5.689   0.153   7.511  0.6513 -2.5462 -1.2089
  181SOPE  C21120678   5.853   0.289   7.457 -0.2188  0.1656 -0.2174
  181SOPE  H11R20679   5.803   0.387   7.472  1.0399  0.6419  0.9878
  181SOPE  H11S20680   5.938   0.293   7.386 -0.6167  1.3629 -0.6390
  181SOPE  C21220681   5.912   0.247   7.590  0.7107  0.9553 -0.4150
  181SOPE  H12R20682   6.001   0.313   7.599  0.8259  0.9039 -1.1136
  181SOPE  H12S20683   5.959   0.147   7.586 -1.7252 -0.3302  1.5075
  181SOPE  C21320684   5.818   0.286   7.704  0.1582  0.6574 -0.7036
  181SOPE  H13R20685   5.731   0.217   7.710  0.4295  0.4868  1.7035
  181SOPE  H13S20686   5.760   0.378   7.684  2.2130  2.3068  0.7624
  181SOPE  C21420687   5.883   0.268   7.843 -0.3245 -0.2731  0.1998
  181SOPE  H14R20688   5.960   0.347   7.838  0.7117 -1.2000  1.0962
  181SOPE  H14S20689   5.938   0.172   7.857  1.0983  0.5511  0.3063
  181SOPE  C21520690   5.795   0.301   7.957  0.3346 -0.4090 -0.5043
  181SOPE  H15R20691   5.709   0.231   7.957 -1.9820  2.3519 -0.9618
  181SOPE  H15S20692   5.758   0.405   7.943  0.5791 -0.0555  1.2963
  181SOPE  C21620693   5.857   0.294   8.097  0.0303 -1.2004  0.0645
  181SOPE  H16R20694   5.925   0.381   8.104  0.0384 -1.2748  1.0733
  181SOPE  H16S20695   5.926   0.207   8.100 -0.2455 -1.5525 -2.5554
  181SOPE  C21720696   5.759   0.290   8.216 -0.1690  0.2491  0.1533
  181SOPE  H17R20697   5.819   0.268   8.307  0.4043  0.5205 -0.1514
  181SOPE  H17S20698   5.686   0.207   8.202  2.3605 -2.0250 -0.0051
  181SOPE  C21820699   5.685   0.413   8.249 -1.0324  0.2959  0.6961
  181SOPE  H18R20700   5.603   0.390   8.322 -0.3639  1.4161  1.8202
  181SOPE  H18S20701   5.645   0.455   8.154 -0.9333 -0.8022  0.1613
  181SOPE  H18T20702   5.755   0.480   8.303  2.0400 -1.3770 -1.0658
  181SOPE   C3320703   6.227   0.140   6.724  0.1248 -0.2157 -0.0228
  181SOPE   H3X20704   6.299   0.125   6.641  0.3156  0.4744  0.0133
  181SOPE   H3Y20705   6.200   0.034   6.745  0.4028 -0.6475 -1.8011
  181SOPE   C3420706   6.300   0.193   6.844 -0.1981 -0.1568  0.9699
  181SOPE   H4X20707   6.278   0.301   6.856  2.4790  0.4978  0.3398
  181SOPE   H4Y20708   6.409   0.192   6.824  0.0411  1.0711  2.1309
  181SOPE   C3520709   6.250   0.108   6.962  0.3282  0.2492 -0.2684
  181SOPE   H5X20710   6.253  -0.001   6.940  1.3976  0.1396  0.3848
  181SOPE   H5Y20711   6.150   0.144   6.994  0.8071  0.9624  0.4218
  181SOPE   C3620712   6.335   0.137   7.085 -0.1302  0.2680  0.2690
  181SOPE   H6X20713   6.316   0.241   7.119  0.8595  0.5703 -0.0958
  181SOPE   H6Y20714   6.443   0.130   7.062 -0.2790 -1.4184  0.0546
  181SOPE   C3720715   6.294   0.047   7.200 -0.0519  0.4211  0.2217
  181SOPE   H7X20716   6.335  -0.057   7.196 -0.3625  0.2573  1.2271
  181SOPE   H7Y20717   6.186   0.033   7.181  0.2702 -0.1563 -1.2808
  181SOPE   C3820718   6.321   0.110   7.335  0.2626  0.4824  0.6434
  181SOPE   H8X20719   6.268   0.207   7.340 -2.0135 -0.7653  1.0030
  181SOPE   H8Y20720   6.431   0.112   7.351  0.6964 -1.1275 -1.8929
  181SOPE   C3920721   6.271   0.021   7.447 -0.2973  0.2869 -0.1218
  181SOPE   H9X20722   6.306  -0.082   7.424  2.3393  0.9511  0.8514
  181SOPE   H9Y20723   6.160   0.019   7.452 -0.2976  0.1245 -0.1953
  181SOPE  C31020724   6.312   0.067   7.590  0.4803  0.7037  0.0710
  181SOPE  H10X20725   6.284   0.174   7.597 -3.4776 -0.3076  0.4130
  181SOPE  H10Y20726   6.423   0.058   7.601  0.3868  1.0193  1.2884
  181SOPE  C31120727   6.249  -0.022   7.694 -0.2952  0.0830 -0.2331
  181SOPE  H11X20728   6.280  -0.125   7.665 -1.6738 -0.8411  1.4313
  181SOPE  H11Y20729   6.139  -0.010   7.678 -0.2595 -0.7057 -1.1343
  181SOPE  C31220730   6.295   0.009   7.829 -0.2898 -0.0054  0.0169
  181SOPE  H12X20731   6.309   0.118   7.837 -0.0475  0.0841 -1.4107
  181SOPE  H12Y20732   6.392  -0.043   7.844 -0.2748  0.3689  1.2225
  181SOPE  C31320733   6.200  -0.040   7.939 -0.3800 -0.1039  0.1758
  181SOPE  H13X20734   6.173  -0.146   7.920  0.1945 -0.7044  2.4632
  181SOPE  H13Y20735   6.112   0.027   7.931  0.2937  1.0777  2.0955
  181SOPE  C31420736   6.265  -0.021   8.074 -0.4797 -0.0118  0.5212
  181SOPE  H14X20737   6.278   0.087   8.095 -1.1661  0.3515 -0.8643
  181SOPE  H14Y20738   6.365  -0.071   8.076  0.9269  2.6835  0.5060
  181SOPE  C31520739   6.195  -0.096   8.188  0.0495 -0.2295 -0.0106
  181SOPE  H15X20740   6.178  -0.202   8.157 -1.2405 -0.3305  0.9911
  181SOPE  H15Y20741   6.095  -0.048   8.196  0.4153  0.8346 -1.7178
  181SOPE  C31620742   6.265  -0.094   8.326 -0.4424 -0.6082  0.6392
  181SOPE  H16X20743   6.294   0.011   8.351 -1.2564  0.2817 -2.0560
  181SOPE  H16Y20744   6.361  -0.149   8.315  0.6695  0.5525  3.8049
  181SOPE  C31720745   6.185  -0.165   8.443 -1.2138 -0.0080 -0.1351
  181SOPE  H17X20746   6.180  -0.273   8.418  1.1116  0.1533 -1.4943
  181SOPE  H17Y20747   6.082  -0.124   8.445 -0.7705  1.1242 -0.0290
  181SOPE  C31820748   6.258  -0.162   8.575 -0.7843 -0.8540 -0.2908
  181SOPE  H18X20749   6.263  -0.053   8.596 -1.3964 -0.6901 -0.9537
  181SOPE  H18Y20750   6.362  -0.197   8.560  0.1413  0.6612  2.2255
  181SOPE  H18Z20751   6.205  -0.222   8.652  2.7623 -0.8170  2.2720
  182SOPE     N20752   0.640   1.318   6.020 -0.2836 -0.2528  0.0721
  182SOPE   HN120753   0.729   1.360   6.055 -1.0046  0.5491  0.9607
  182SOPE   HN220754   0.664   1.238   5.958  1.8235  1.0561 -0.8697
  182SOPE   HN320755   0.595   1.380   5.950  1.9799  0.0614 -1.1622
  182SOPE   C1220756   0.552   1.277   6.139 -0.4963  0.1086 -0.2697
  182SOPE  H12A20757   0.545   1.368   6.202  1.0558 -0.1666  0.3068
  182SOPE  H12B20758   0.602   1.202   6.204  0.5568  0.2910 -0.8667
  182SOPE   C1120759   0.409   1.227   6.112 -0.2543  0.7756  0.2572
  182SOPE  H11A20760   0.371   1.153   6.186  0.2424  0.5586  0.2991
  182SOPE  H11B20761   0.424   1.154   6.029 -0.1712  0.3554  0.6388
  182SOPE     P20762   0.249   1.413   6.195  0.3607 -0.0949 -0.8280
  182SOPE   O1320763   0.104   1.410   6.181 -0.7030 -0.5838  0.1215
  182SOPE   O1420764   0.316   1.545   6.211 -0.2000 -0.1800 -0.3934
  182SOPE   O1220765   0.324   1.336   6.071 -0.5866  0.4926 -0.3191
  182SOPE   O1120766   0.291   1.333   6.324 -0.0615 -0.1245  0.4692
  182SOPE    C120767   0.188   1.287   6.411  0.6362 -0.2940  0.2118
  182SOPE    HA20768   0.231   1.216   6.484  0.9012 -1.3725 -0.9604
  182SOPE    HB20769   0.111   1.236   6.349 -0.1698 -0.7390  1.5565
  182SOPE    C220770   0.128   1.400   6.508  1.1517 -0.3650 -0.1839
  182SOPE    HS20771   0.083   1.480   6.445  2.6551  0.3563 -0.3686
  182SOPE   O2120772   0.224   1.453   6.593 -0.0847 -0.2570 -0.1812
  182SOPE   C2120773   0.204   1.566   6.650  0.8655  0.1708 -0.5236
  182SOPE   O2220774   0.118   1.644   6.623  0.3745  0.2054  0.3314
  182SOPE   C2220775   0.300   1.581   6.769 -0.5989  0.1651 -0.2934
  182SOPE   H2R20776   0.307   1.691   6.785 -0.2944  0.6877 -3.6945
  182SOPE   H2S20777   0.399   1.533   6.751 -1.0837 -1.4537  1.2337
  182SOPE    C320778   0.013   1.333   6.606 -0.0542 -0.0950  0.2103
  182SOPE    HX20779   0.066   1.268   6.679  2.0111 -2.3077 -3.0982
  182SOPE    HY20780  -0.054   1.274   6.539  0.5882 -0.0868 -0.4542
  182SOPE   O3120781  -0.061   1.430   6.678 -0.4276  0.2628 -0.0274
  182SOPE   C3120782  -0.149   1.498   6.608  0.3044 -0.3442  0.0447
  182SOPE   O3220783  -0.178   1.475   6.491  0.0142  0.4386  0.1117
  182SOPE   C3220784  -0.207   1.603   6.690 -0.5021  0.6705 -0.0499
  182SOPE   H2X20785  -0.297   1.642   6.637 -2.4043 -3.3021  0.0791
  182SOPE   H2Y20786  -0.139   1.689   6.705 -2.4183  2.5746 -1.9313
  182SOPE   C2320787   0.238   1.525   6.903 -0.0348 -0.2164  0.0459
  182SOPE   H3R20788   0.320   1.533   6.978  0.5203 -2.4782 -0.3038
  182SOPE   H3S20789   0.228   1.417   6.878  0.1883 -0.8215  2.3726
  182SOPE   C2420790   0.103   1.588   6.940 -0.2550  0.2419  0.1803
  182SOPE   H4R20791   0.117   1.696   6.962  1.0907  0.6704 -2.5519
  182SOPE   H4S20792   0.037   1.580   6.851 -0.3990 -1.6531  0.4336
  182SOPE   C2520793   0.037   1.525   7.060  0.2579 -0.3548  0.5367
  182SOPE   H5R20794  -0.068   1.561   7.074  0.9377  1.0750  2.2556
  182SOPE   H5S20795   0.049   1.414   7.057 -1.7792 -0.6448  1.8324
  182SOPE   C2620796   0.102   1.572   7.188  0.8182  0.2479 -1.0893
  182SOPE   H6R20797   0.195   1.515   7.207  0.4862 -0.4744 -1.5503
  182SOPE   H6S20798   0.121   1.681   7.186 -2.4689  0.9538  1.0803
  182SOPE   C2720799   0.005   1.525   7.302 -0.3474  0.0124 -0.1152
  182SOPE   H7R20800  -0.104   1.543   7.287 -0.5308 -0.3329  0.7763
  182SOPE   H7S20801   0.015   1.417   7.324 -2.0057 -0.2089 -0.3858
  182SOPE   C2820802   0.042   1.589   7.438 -0.2034 -0.6159 -0.2439
  182SOPE   H8R20803   0.152   1.608   7.439 -0.6550  2.1504  1.3805
  182SOPE   H8S20804  -0.015   1.683   7.452 -0.4561 -0.7798 -0.1699
  182SOPE   C2920805   0.011   1.495   7.552  0.5342 -0.5251  0.0264
  182SOPE   H9120806   0.048   1.393   7.534 -1.3804 -1.1887 -0.3215
  182SOPE  C21020807  -0.055   1.532   7.662 -0.7148  0.0509  0.4911
  182SOPE  H10120808  -0.087   1.451   7.730  3.1642 -0.5778  1.6957
  182SOPE  C21120809  -0.107   1.671   7.707 -0.2601  0.8450 -0.1254
  182SOPE  H11R20810  -0.211   1.657   7.741 -0.2650  0.9047 -0.1152
  182SOPE  H11S20811  -0.091   1.752   7.633 -0.9388  0.1099 -1.0802
  182SOPE  C21220812  -0.032   1.702   7.833 -0.0227 -0.3540 -0.3563
  182SOPE  H12R20813   0.075   1.714   7.806 -0.0064 -0.1148 -0.1833
  182SOPE  H12S20814  -0.049   1.617   7.902  2.4650 -0.8365 -0.3033
  182SOPE  C21320815  -0.063   1.839   7.903 -0.4431  0.0415  0.6194
  182SOPE  H13R20816  -0.171   1.859   7.883 -0.5775 -0.9780  0.3289
  182SOPE  H13S20817  -0.005   1.922   7.856  0.2939 -0.8905 -0.1165
  182SOPE  C21420818  -0.033   1.835   8.051  0.2299 -0.0652 -0.0609
  182SOPE  H14R20819  -0.021   1.944   8.069 -0.3110  0.2610 -1.6146
  182SOPE  H14S20820   0.053   1.771   8.078 -0.7283 -1.8823 -1.1940
  182SOPE  C21520821  -0.152   1.791   8.140  0.1841  0.5158  0.4306
  182SOPE  H15R20822  -0.142   1.680   8.144  1.3533  0.5267 -1.6059
  182SOPE  H15S20823  -0.253   1.817   8.101  0.0990  1.5285  1.3033
  182SOPE  C21620824  -0.157   1.850   8.284 -0.0035 -0.2694  0.3404
  182SOPE  H16R20825  -0.156   1.961   8.273 -2.7130 -0.3476 -1.2468
  182SOPE  H16S20826  -0.071   1.825   8.349 -0.9028 -0.7359  1.3774
  182SOPE  C21720827  -0.281   1.810   8.363 -0.0740  0.3265 -0.3751
  182SOPE  H17R20828  -0.272   1.701   8.381 -1.3319  0.0538 -1.3300
  182SOPE  H17S20829  -0.370   1.822   8.298 -1.3110 -0.5903  1.1259
  182SOPE  C21820830  -0.296   1.878   8.500  0.3552 -0.3146  0.2874
  182SOPE  H18R20831  -0.210   1.847   8.563 -0.4774 -0.9172  1.1302
  182SOPE  H18S20832  -0.389   1.844   8.550  1.0863  0.7822  2.4323
  182SOPE  H18T20833  -0.305   1.988   8.506 -1.0420 -0.3604 -0.7919
  182SOPE   C3320834  -0.261   1.552   6.828 -0.3972 -0.8844  0.0884
  182SOPE   H3X20835  -0.168   1.522   6.880  0.6675  0.7663 -0.8253
  182SOPE   H3Y20836  -0.321   1.460   6.812 -0.7886 -0.7027  0.4920
  182SOPE   C3420837  -0.331   1.660   6.908 -0.2971 -0.4641  0.6067
  182SOPE   H4X20838  -0.428   1.685   6.860 -0.5554 -2.2270  0.1764
  182SOPE   H4Y20839  -0.277   1.756   6.900 -1.0074 -0.2733 -2.2301
  182SOPE   C3520840  -0.356   1.617   7.055  0.8171 -0.4011 -0.5329
  182SOPE   H5X20841  -0.255   1.608   7.102  0.3675  0.9906  0.7408
  182SOPE   H5Y20842  -0.409   1.521   7.075 -0.0542  0.3240  0.6985
  182SOPE   C3620843  -0.411   1.736   7.135  0.2002  0.2205 -0.0333
  182SOPE   H6X20844  -0.521   1.737   7.118  0.2438 -0.4134 -0.3694
  182SOPE   H6Y20845  -0.368   1.831   7.100  3.0986 -1.2699 -0.6192
  182SOPE   C3720846  -0.380   1.726   7.285  0.3072 -0.1783 -0.5280
  182SOPE   H7X20847  -0.269   1.721   7.298  0.5626  0.7312 -2.1789
  182SOPE   H7Y20848  -0.424   1.637   7.334  1.3566 -0.8569 -0.7951
  182SOPE   C3820849  -0.417   1.857   7.360 -0.4194 -0.0773  0.1939
  182SOPE   H8X20850  -0.524   1.880   7.340 -0.8639 -0.8737  1.6247
  182SOPE   H8Y20851  -0.347   1.934   7.321  1.1990 -1.3339  0.5568
  182SOPE   C3920852  -0.377   1.861   7.504  0.2922  0.1862 -0.7206
  182SOPE   H9X20853  -0.269   1.853   7.530 -0.2828  0.8485  2.1262
  182SOPE   H9Y20854  -0.410   1.764   7.548  0.1020  0.5564 -0.0330
  182SOPE  C31020855  -0.438   1.980   7.575 -1.0783  0.4309  0.7132
  182SOPE  H10X20856  -0.542   1.998   7.540 -1.0706  0.7288  0.8389
  182SOPE  H10Y20857  -0.371   2.065   7.548  2.1381 -2.2446 -0.0087
  182SOPE  C31120858  -0.451   1.939   7.729 -0.7164 -0.8858 -0.1585
  182SOPE  H11X20859  -0.358   1.894   7.770 -0.0208  0.5359 -0.1634
  182SOPE  H11Y20860  -0.536   1.870   7.750  0.1556 -1.5286  1.3043
  182SOPE  C31220861  -0.487   2.072   7.800  0.6434 -0.7789  0.0624
  182SOPE  H12X20862  -0.590   2.093   7.765  0.9597  1.0156  0.1872
  182SOPE  H12Y20863  -0.406   2.139   7.765  0.3553  0.0939  1.0373
  182SOPE  C31320864  -0.494   2.068   7.953  0.6808  1.3472  0.2600
  182SOPE  H13X20865  -0.509   2.166   8.003 -0.5700  1.3270 -0.0508
  182SOPE  H13Y20866  -0.400   2.028   7.996  0.1437  0.5089  0.6710
  182SOPE  C31420867  -0.613   1.978   8.005 -0.1445 -0.5387 -0.2219
  182SOPE  H14X20868  -0.592   1.871   7.980 -1.1204 -1.4037  2.4311
  182SOPE  H14Y20869  -0.696   2.022   7.945  2.5414  1.9548 -2.2569
  182SOPE  C31520870  -0.646   1.998   8.148 -0.2133  0.0804  0.4876
  182SOPE  H15X20871  -0.658   2.102   8.184  1.6531 -0.1763  1.9476
  182SOPE  H15Y20872  -0.560   1.956   8.205  0.0803  0.0145  0.0055
  182SOPE  C31620873  -0.770   1.923   8.192  0.3933 -0.6637 -1.0903
  182SOPE  H16X20874  -0.757   1.814   8.204 -0.9988 -0.6284  1.1473
  182SOPE  H16Y20875  -0.850   1.944   8.117 -1.8551 -1.7675  0.9183
  182SOPE  C31720876  -0.829   1.968   8.330  0.4989  0.7343 -0.3166
  182SOPE  H17X20877  -0.843   2.079   8.328  0.8231  0.8870  3.3913
  182SOPE  H17Y20878  -0.760   1.944   8.413 -1.0387  0.1466  0.8092
  182SOPE  C31820879  -0.967   1.917   8.349 -0.5739 -0.1021 -0.1386
  182SOPE  H18X20880  -1.037   1.971   8.282 -1.0322 -1.2388 -0.5832
  182SOPE  H18Y20881  -1.002   1.943   8.452 -1.3584  0.1865 -0.4764
  182SOPE  H18Z20882  -0.973   1.807   8.332  0.0237  0.2000 -2.4548
  183SOPE     N20883   2.120   0.228   5.841  0.4761 -0.2517  0.4001
  183SOPE   HN120884   2.047   0.269   5.903  0.1474  1.3977 -1.0402
  183SOPE   HN220885   2.115   0.262   5.743 -3.2847  0.6188  0.8216
  183SOPE   HN320886   2.114   0.124   5.841  3.7564 -0.4916 -0.6346
  183SOPE   C1220887   2.262   0.267   5.884 -0.1406  0.6738 -0.3562
  183SOPE  H12A20888   2.266   0.378   5.879  0.1583  0.7002  0.5049
  183SOPE  H12B20889   2.338   0.232   5.811 -0.0040 -0.1801  0.1976
  183SOPE   C1120890   2.292   0.222   6.032  0.6393 -0.1569 -0.8250
  183SOPE  H11A20891   2.383   0.280   6.061  1.7612 -1.8166 -0.9550
  183SOPE  H11B20892   2.293   0.111   6.034  1.6252 -0.1596 -0.8914
  183SOPE     P20893   2.190   0.288   6.264 -0.1602 -0.0990  0.1317
  183SOPE   O1320894   2.070   0.221   6.322 -0.3365 -0.4468  0.2657
  183SOPE   O1420895   2.208   0.425   6.302  0.6744 -0.0895 -0.0762
  183SOPE   O1220896   2.188   0.273   6.110 -0.6959  0.4268 -0.1899
  183SOPE   O1120897   2.318   0.217   6.302  0.8008  0.1100  0.8434
  183SOPE    C120898   2.327   0.083   6.355 -0.3004  0.3029 -0.4077
  183SOPE    HA20899   2.430   0.041   6.359 -1.1523 -1.9987 -1.3478
  183SOPE    HB20900   2.270   0.008   6.295 -1.1958  0.4070  0.3071
  183SOPE    C220901   2.265   0.073   6.505 -0.0223  0.5813  0.7751
  183SOPE    HS20902   2.163   0.117   6.501 -0.1409  0.2336 -0.4126
  183SOPE   O2120903   2.349   0.156   6.589 -0.3433 -0.2915 -0.0881
  183SOPE   C2120904   2.291   0.242   6.669  0.1317  0.3569 -0.9097
  183SOPE   O2220905   2.168   0.246   6.681 -0.3629 -0.2275  0.4975
  183SOPE   C2220906   2.396   0.337   6.729 -0.3825  0.3797 -0.5980
  183SOPE   H2R20907   2.407   0.410   6.645 -0.8579  1.1661  0.0125
  183SOPE   H2S20908   2.490   0.282   6.749 -0.1978  0.9657  0.1750
  183SOPE    C320909   2.262  -0.073   6.557  0.0156  0.5961 -0.0477
  183SOPE    HX20910   2.368  -0.101   6.539 -0.7363 -0.8525 -2.4012
  183SOPE    HY20911   2.193  -0.123   6.485  1.0318 -0.9090  0.0047
  183SOPE   O3120912   2.226  -0.101   6.697 -0.3618  0.3509  0.2101
  183SOPE   C3120913   2.098  -0.115   6.711 -0.4093 -0.4244  0.1857
  183SOPE   O3220914   2.005  -0.113   6.630 -0.0907 -0.2594  0.5898
  183SOPE   C3220915   2.079  -0.148   6.853 -0.1351 -0.8658  0.1888
  183SOPE   H2X20916   1.969  -0.138   6.869 -0.4189  2.2650 -3.0468
  183SOPE   H2Y20917   2.123  -0.062   6.909  0.5126 -0.0463 -1.5428
  183SOPE   C2320918   2.357   0.415   6.858  0.3044 -0.3747 -0.0752
  183SOPE   H3R20919   2.262   0.472   6.850  0.6198  0.2888  0.7675
  183SOPE   H3S20920   2.434   0.493   6.877  0.4625 -0.6270  0.3043
  183SOPE   C2420921   2.367   0.322   6.985  0.0284  0.2609  0.6547
  183SOPE   H4R20922   2.320   0.227   6.951  2.5828 -1.3818  1.5759
  183SOPE   H4S20923   2.472   0.290   7.005  0.3095 -0.0829 -1.3166
  183SOPE   C2520924   2.299   0.390   7.107 -0.3682  0.8646 -0.1063
  183SOPE   H5R20925   2.363   0.475   7.138  1.8224 -1.9320  3.4911
  183SOPE   H5S20926   2.205   0.434   7.068 -1.0681 -0.1144  0.4348
  183SOPE   C2620927   2.277   0.293   7.229  0.3624  0.8222 -0.2657
  183SOPE   H6R20928   2.231   0.202   7.185 -1.4482  2.3757 -1.6720
  183SOPE   H6S20929   2.375   0.251   7.261 -1.0434 -1.8374  0.7320
  183SOPE   C2720930   2.194   0.361   7.337 -0.2186  0.4737  0.1079
  183SOPE   H7R20931   2.238   0.460   7.359 -2.9039  2.0793 -1.4342
  183SOPE   H7S20932   2.093   0.379   7.295  0.4149  2.1398 -0.7350
  183SOPE   C2820933   2.181   0.273   7.460 -0.2955 -0.1189  0.0876
  183SOPE   H8R20934   2.098   0.205   7.430 -0.3916 -0.5282  1.2523
  183SOPE   H8S20935   2.284   0.233   7.474  1.1468  3.7284  1.1858
  183SOPE   C2920936   2.148   0.369   7.570 -0.3389  0.1748  0.2390
  183SOPE   H9120937   2.105   0.466   7.542 -2.1228 -0.4232  0.8254
  183SOPE  C21020938   2.185   0.342   7.691  0.0564 -0.2878 -0.2524
  183SOPE  H10120939   2.169   0.411   7.776  1.8951 -1.0330  0.7266
  183SOPE  C21120940   2.244   0.220   7.750 -0.7912  0.0341 -0.1652
  183SOPE  H11R20941   2.344   0.210   7.702  0.7031 -0.7169  2.9771
  183SOPE  H11S20942   2.175   0.140   7.716 -0.4619 -0.3991  0.1806
  183SOPE  C21220943   2.240   0.217   7.900  0.1384 -0.0704 -0.0540
  183SOPE  H12R20944   2.135   0.242   7.924  0.0599 -0.5232  0.0783
  183SOPE  H12S20945   2.298   0.302   7.941 -0.0450  1.0311 -1.9958
  183SOPE  C21320946   2.263   0.083   7.970  0.5619 -0.5517  0.3411
  183SOPE  H13R20947   2.373   0.064   7.967  0.5330 -1.1904  2.4527
  183SOPE  H13S20948   2.218   0.006   7.904 -1.6919  1.2978 -0.3060
  183SOPE  C21420949   2.216   0.068   8.108 -0.0832 -0.3750  0.2061
  183SOPE  H14R20950   2.113   0.111   8.111 -0.0273 -0.3507  4.0018
  183SOPE  H14S20951   2.276   0.118   8.187 -0.5063  0.9849 -0.3153
  183SOPE  C21520952   2.216  -0.084   8.151  0.5778 -0.1247 -0.8038
  183SOPE  H15R20953   2.315  -0.133   8.161  0.8182  0.4069 -0.5413
  183SOPE  H15S20954   2.152  -0.145   8.083 -1.0597 -0.0588  0.6459
  183SOPE  C21620955   2.146  -0.090   8.284  0.0010 -0.6373 -0.4389
  183SOPE  H16R20956   2.038  -0.067   8.266  0.0578 -1.1576 -1.5310
  183SOPE  H16S20957   2.192  -0.017   8.353 -1.3299  0.3803 -0.6005
  183SOPE  C21720958   2.173  -0.229   8.340 -0.5147 -0.3952  0.3586
  183SOPE  H17R20959   2.280  -0.242   8.365 -0.7825  0.5432  2.0083
  183SOPE  H17S20960   2.129  -0.293   8.260 -1.4409 -1.4820  1.6953
  183SOPE  C21820961   2.091  -0.267   8.470  0.0846 -0.3924  0.0380
  183SOPE  H18R20962   2.111  -0.375   8.485 -0.0452 -0.5777 -1.0194
  183SOPE  H18S20963   1.984  -0.253   8.445 -0.0175 -0.2411  0.5639
  183SOPE  H18T20964   2.121  -0.207   8.558  1.0740 -0.5943 -0.1524
  183SOPE   C3320965   2.115  -0.290   6.905 -0.2520  0.8194 -0.5450
  183SOPE   H3X20966   2.217  -0.313   6.867  0.7646  1.1303  1.8574
  183SOPE   H3Y20967   2.047  -0.362   6.855  0.5367 -0.5818  0.3607
  183SOPE   C3420968   2.098  -0.300   7.060  0.8177  0.4906 -0.5451
  183SOPE   H4X20969   2.060  -0.399   7.094  1.8510  0.6985  1.2313
  183SOPE   H4Y20970   2.016  -0.231   7.092 -0.7841 -2.3543  1.7606
  183SOPE   C3520971   2.215  -0.274   7.152  0.5325  0.0701  0.3846
  183SOPE   H5X20972   2.315  -0.270   7.105  0.8173 -1.9120  0.7723
  183SOPE   H5Y20973   2.211  -0.358   7.225  2.0883 -0.0720  0.3173
  183SOPE   C3620974   2.189  -0.147   7.240  0.0496  0.0361  0.4937
  183SOPE   H6X20975   2.098  -0.160   7.303 -0.6945  0.1727 -0.5508
  183SOPE   H6Y20976   2.177  -0.060   7.173 -1.6554 -1.9816 -1.8803
  183SOPE   C3720977   2.303  -0.136   7.338  0.1247 -0.7552  1.1478
  183SOPE   H7X20978   2.336  -0.030   7.338  0.6438 -0.9155  0.5960
  183SOPE   H7Y20979   2.393  -0.190   7.303  0.7258  0.1087  1.3438
  183SOPE   C3820980   2.282  -0.186   7.480  0.0014  0.6761  0.0045
  183SOPE   H8X20981   2.273  -0.296   7.468  1.3789  0.5561 -0.0301
  183SOPE   H8Y20982   2.182  -0.161   7.522  0.2497 -0.0031  1.0276
  183SOPE   C3920983   2.396  -0.158   7.579 -0.0744  0.1760 -0.0576
  183SOPE   H9X20984   2.385  -0.050   7.602  0.6948 -0.2530  2.4304
  183SOPE   H9Y20985   2.498  -0.164   7.536  1.4913 -0.7382  3.5718
  183SOPE  C31020986   2.391  -0.240   7.710  0.1723  0.3889 -1.6412
  183SOPE  H10X20987   2.284  -0.238   7.739  0.4341 -2.0039 -0.4009
  183SOPE  H10Y20988   2.450  -0.192   7.791  0.3332 -1.3190 -0.7372
  183SOPE  C31120989   2.442  -0.386   7.693 -0.5179  0.1349 -0.2110
  183SOPE  H11X20990   2.552  -0.383   7.685 -0.5357  0.6586 -0.2686
  183SOPE  H11Y20991   2.429  -0.432   7.593  0.3732  0.2601 -0.3894
  183SOPE  C31220992   2.394  -0.482   7.795 -0.1461 -0.8392  0.6324
  183SOPE  H12X20993   2.431  -0.583   7.767  1.2691  0.0345 -0.7572
  183SOPE  H12Y20994   2.284  -0.495   7.795 -0.3872  0.8966 -1.5066
  183SOPE  C31320995   2.437  -0.433   7.934  0.5148  0.3567 -0.0530
  183SOPE  H13X20996   2.373  -0.344   7.955 -1.9468 -1.5144  0.5751
  183SOPE  H13Y20997   2.543  -0.400   7.931  0.5472  0.4530  1.7009
  183SOPE  C31420998   2.395  -0.529   8.047  0.4257 -0.5485 -0.3023
  183SOPE  H14X20999   2.445  -0.628   8.036  0.1133 -0.7192 -0.1780
  183SOPE  H14Y21000   2.287  -0.549   8.028  0.2240  0.3923 -0.1722
  183SOPE  C31521001   2.408  -0.471   8.190 -0.5516  0.7370 -0.0096
  183SOPE  H15X21002   2.367  -0.368   8.203 -0.5079  0.5869  1.3718
  183SOPE  H15Y21003   2.518  -0.470   8.206 -0.8281  0.7859  1.9540
  183SOPE  C31621004   2.355  -0.559   8.300  0.8315 -0.1176 -0.5908
  183SOPE  H16X21005   2.387  -0.662   8.277 -0.9714 -0.9825  0.7055
  183SOPE  H16Y21006   2.246  -0.560   8.281  0.5094 -0.3114  1.1744
  183SOPE  C31721007   2.386  -0.528   8.448 -0.1507  0.3777 -0.1877
  183SOPE  H17X21008   2.341  -0.609   8.508  0.8349 -0.0037  0.0320
  183SOPE  H17Y21009   2.326  -0.438   8.475  0.7048  1.4528 -1.7501
  183SOPE  C31821010   2.538  -0.510   8.483  0.1709  0.1752 -1.2070
  183SOPE  H18X21011   2.578  -0.434   8.413 -0.9529 -0.2633 -2.3453
  183SOPE  H18Y21012   2.601  -0.599   8.465 -2.4034 -1.6042 -1.6505
  183SOPE  H18Z21013   2.556  -0.460   8.581  2.2641 -3.9475  0.6172
  184SOPE     N21014   0.798   6.736   6.217  0.3509 -0.7063  0.2977
  184SOPE   HN121015   0.727   6.801   6.258 -0.0299 -0.2716 -1.0346
  184SOPE   HN221016   0.865   6.791   6.160 -0.5742  1.4545  1.2170
  184SOPE   HN321017   0.748   6.663   6.163  1.4005 -0.6355 -0.7965
  184SOPE   C1221018   0.860   6.656   6.331 -0.6718 -0.7560  0.4519
  184SOPE  H12A21019   0.793   6.572   6.358 -0.9156 -1.0933 -1.1577
  184SOPE  H12B21020   0.856   6.716   6.425 -0.3619 -1.1689  0.7276
  184SOPE   C1121021   0.991   6.596   6.287  0.0404 -0.6467 -0.0122
  184SOPE  H11A21022   0.963   6.520   6.211  0.9148 -1.6846  0.6779
  184SOPE  H11B21023   1.039   6.549   6.376  1.2351  1.9417  0.7384
  184SOPE     P21024   1.215   6.647   6.167  0.0994  0.1239 -0.2118
  184SOPE   O1321025   1.317   6.755   6.164  0.0817 -0.0194 -0.3895
  184SOPE   O1421026   1.167   6.593   6.039  0.2102  0.2592  0.4093
  184SOPE   O1221027   1.087   6.697   6.236  0.3732 -0.5249  0.1826
  184SOPE   O1121028   1.264   6.525   6.257  0.4354  0.2869 -0.0454
  184SOPE    C121029   1.373   6.545   6.350  0.3860  0.2947 -0.8093
  184SOPE    HA21030   1.446   6.619   6.311 -1.4881  0.9524 -3.2198
  184SOPE    HB21031   1.433   6.453   6.364 -2.1466 -1.3361 -0.3248
  184SOPE    C221032   1.329   6.596   6.491 -0.4354  0.5921  0.7824
  184SOPE    HS21033   1.259   6.679   6.466  1.2121  1.7135 -0.2137
  184SOPE   O2121034   1.451   6.642   6.558  0.4090  0.0935 -0.1597
  184SOPE   C2121035   1.442   6.756   6.621  0.3097 -0.2596  0.6507
  184SOPE   O2221036   1.346   6.831   6.630 -0.0265 -0.0258 -0.2597
  184SOPE   C2221037   1.569   6.777   6.690 -0.3921  0.0640 -0.3141
  184SOPE   H2R21038   1.579   6.883   6.723 -0.6930 -0.0290  0.0930
  184SOPE   H2S21039   1.660   6.745   6.636  0.6447  0.6936  1.0069
  184SOPE    C321040   1.257   6.489   6.573 -0.1349 -0.6380  0.0117
  184SOPE    HX21041   1.330   6.411   6.603  0.3467  0.3953  1.5670
  184SOPE    HY21042   1.179   6.438   6.513 -1.4258  1.3835 -0.0682
  184SOPE   O3121043   1.201   6.531   6.695  0.4877  0.1949 -0.2407
  184SOPE   C3121044   1.112   6.626   6.688 -0.5252 -0.2156  0.1339
  184SOPE   O3221045   1.066   6.667   6.583 -0.1583  0.5547  0.0802
  184SOPE   C3221046   1.072   6.680   6.828  0.3652  0.7223  0.1580
  184SOPE   H2X21047   1.110   6.783   6.845  1.5351  0.2287  0.5776
  184SOPE   H2Y21048   1.133   6.611   6.889  1.8278 -1.0523 -3.1399
  184SOPE   C2321049   1.570   6.692   6.814  0.2742  0.5832  0.2368
  184SOPE   H3R21050   1.674   6.707   6.852  1.4207 -2.7445 -1.3571
  184SOPE   H3S21051   1.553   6.583   6.802 -0.5871  0.6387  0.9499
  184SOPE   C2421052   1.476   6.732   6.924  0.7866 -0.4234 -0.4586
  184SOPE   H4R21053   1.513   6.831   6.960 -0.0580 -0.8197  1.5288
  184SOPE   H4S21054   1.376   6.754   6.881  0.3472  2.1899  1.7505
  184SOPE   C2521055   1.451   6.635   7.034 -0.4587 -0.0966  0.0978
  184SOPE   H5R21056   1.400   6.548   6.988  3.3174 -1.9797 -0.6789
  184SOPE   H5S21057   1.544   6.597   7.080 -1.7626 -2.4163  0.8912
  184SOPE   C2621058   1.378   6.699   7.160  0.0162 -0.5080 -0.1364
  184SOPE   H6R21059   1.441   6.785   7.190 -0.0731 -0.7915  0.8731
  184SOPE   H6S21060   1.284   6.743   7.120  0.5049  0.1922 -0.5136
  184SOPE   C2721061   1.356   6.594   7.272  0.0867 -0.1219  0.2445
  184SOPE   H7R21062   1.279   6.517   7.248  1.3814 -2.2102  2.6055
  184SOPE   H7S21063   1.452   6.539   7.279 -0.4644 -1.0822  0.3639
  184SOPE   C2821064   1.344   6.675   7.411 -0.5083  0.4817 -0.4368
  184SOPE   H8R21065   1.442   6.721   7.435 -1.1536  1.0264  1.2160
  184SOPE   H8S21066   1.274   6.755   7.378 -0.1491  0.9376 -0.0989
  184SOPE   C2921067   1.271   6.597   7.513 -0.2716  0.1974  0.0775
  184SOPE   H9121068   1.177   6.548   7.484  1.4116 -3.5306  0.6153
  184SOPE  C21021069   1.313   6.567   7.637 -0.2180 -0.0905 -0.3115
  184SOPE  H10121070   1.244   6.498   7.688 -2.6293  1.6123 -1.1674
  184SOPE  C21121071   1.437   6.597   7.710  0.1090  0.3315  0.2856
  184SOPE  H11R21072   1.452   6.706   7.726 -0.6092  0.7903 -2.0918
  184SOPE  H11S21073   1.529   6.566   7.656  0.5000  3.3377 -0.8687
  184SOPE  C21221074   1.439   6.517   7.843 -0.4996  0.1309  0.4454
  184SOPE  H12R21075   1.412   6.413   7.815 -1.4092  0.5207 -0.1762
  184SOPE  H12S21076   1.354   6.564   7.896 -1.9059 -1.0039 -0.7739
  184SOPE  C21321077   1.570   6.526   7.916 -0.3459 -0.3620  0.1257
  184SOPE  H13R21078   1.607   6.631   7.916 -1.2825 -0.0201  1.3567
  184SOPE  H13S21079   1.645   6.468   7.858 -0.3544 -0.9177  0.6710
  184SOPE  C21421080   1.561   6.467   8.059 -0.1323 -0.4117  0.7162
  184SOPE  H14R21081   1.511   6.539   8.126 -0.6797  0.5774 -0.7421
  184SOPE  H14S21082   1.660   6.455   8.108  0.8272  1.3423 -0.7262
  184SOPE  C21521083   1.489   6.330   8.061  0.0406 -0.2988  0.0220
  184SOPE  H15R21084   1.550   6.268   7.991  1.6659 -0.8733  1.8853
  184SOPE  H15S21085   1.382   6.333   8.033 -1.1669 -0.7814  4.2661
  184SOPE  C21621086   1.487   6.283   8.206  0.0296 -0.2853  0.1347
  184SOPE  H16R21087   1.435   6.361   8.266  0.1369 -0.0028 -0.1398
  184SOPE  H16S21088   1.594   6.271   8.234  0.9325  1.5910 -2.2834
  184SOPE  C21721089   1.419   6.151   8.231 -0.1232 -0.2739  0.3671
  184SOPE  H17R21090   1.437   6.089   8.141 -1.6765 -0.5866  0.2516
  184SOPE  H17S21091   1.310   6.159   8.248 -0.0472  0.4283  0.5487
  184SOPE  C21821092   1.466   6.071   8.354  0.8895  0.0450 -0.3744
  184SOPE  H18R21093   1.576   6.064   8.359  0.8556 -0.5201 -0.3138
  184SOPE  H18S21094   1.429   5.967   8.338 -0.7222  0.3589  1.1296
  184SOPE  H18T21095   1.424   6.101   8.453 -0.9101  2.2671 -1.7522
  184SOPE   C3321096   0.920   6.696   6.870 -0.3669 -0.5928 -0.5289
  184SOPE   H3X21097   0.860   6.609   6.836  1.0493 -1.2437 -1.3529
  184SOPE   H3Y21098   0.882   6.798   6.843 -0.1595  0.2316  2.1411
  184SOPE   C3421099   0.902   6.699   7.022  0.4246 -0.2112 -0.2522
  184SOPE   H4X21100   0.796   6.725   7.045  1.1275  1.3926  1.2513
  184SOPE   H4Y21101   0.959   6.790   7.051  1.7633 -1.1330  0.0280
  184SOPE   C3521102   0.940   6.567   7.101  0.2188  0.6244  0.6380
  184SOPE   H5X21103   1.031   6.517   7.061 -2.4484 -2.5808 -1.7107
  184SOPE   H5Y21104   0.865   6.487   7.087 -0.2732  1.0999  0.5281
  184SOPE   C3621105   0.951   6.587   7.254 -0.6177 -0.3443 -0.4051
  184SOPE   H6X21106   1.030   6.660   7.282 -0.0724 -1.3508  0.7269
  184SOPE   H6Y21107   0.968   6.496   7.316 -0.1854 -0.3286 -0.5018
  184SOPE   C3721108   0.821   6.640   7.315  0.4210  0.1325  0.3573
  184SOPE   H7X21109   0.735   6.578   7.281 -0.7232  2.1240 -0.4903
  184SOPE   H7Y21110   0.794   6.740   7.276  0.5782 -0.7775 -2.1427
  184SOPE   C3821111   0.822   6.648   7.468 -0.0862  0.1719  0.0129
  184SOPE   H8X21112   0.849   6.548   7.506 -0.6465  0.9230  2.4236
  184SOPE   H8Y21113   0.724   6.669   7.514  0.4622  1.0907  0.7845
  184SOPE   C3921114   0.921   6.748   7.525  0.4305 -0.3365  0.3458
  184SOPE   H9X21115   0.883   6.852   7.509  1.3907 -0.2218 -1.3079
  184SOPE   H9Y21116   1.017   6.729   7.473  0.1875 -1.8349  0.4281
  184SOPE  C31021117   0.924   6.740   7.680  0.3385 -0.3252 -1.2700
  184SOPE  H10X21118   0.925   6.634   7.712 -2.2122 -0.0458 -0.1558
  184SOPE  H10Y21119   0.827   6.773   7.723  0.2167 -0.3605 -1.5216
  184SOPE  C31121120   1.041   6.826   7.733 -0.4694 -0.2729 -0.1787
  184SOPE  H11X21121   1.037   6.930   7.694  1.3256 -0.1503 -0.0632
  184SOPE  H11Y21122   1.142   6.792   7.700 -0.6774 -2.7662  1.5912
  184SOPE  C31221123   1.038   6.829   7.880 -0.3214 -0.3819 -0.0562
  184SOPE  H12X21124   0.935   6.831   7.921  0.1680  0.0804  1.1537
  184SOPE  H12Y21125   1.094   6.917   7.919 -1.9656  0.8373 -0.4026
  184SOPE  C31321126   1.117   6.719   7.949  0.0781  0.3543 -0.6688
  184SOPE  H13X21127   1.217   6.712   7.900  0.1111 -2.0178 -0.3512
  184SOPE  H13Y21128   1.066   6.621   7.938  0.3212 -0.1342  2.2417
  184SOPE  C31421129   1.135   6.748   8.100  0.7726 -0.4904 -0.3611
  184SOPE  H14X21130   1.038   6.774   8.146  0.1469 -0.3223 -1.7636
  184SOPE  H14Y21131   1.192   6.843   8.113  0.3404 -0.7835  4.4039
  184SOPE  C31521132   1.204   6.639   8.183 -0.4136 -0.1510  0.4311
  184SOPE  H15X21133   1.313   6.639   8.163 -0.5499  2.1668 -0.4513
  184SOPE  H15Y21134   1.170   6.535   8.163  0.0882 -0.1710 -0.3054
  184SOPE  C31621135   1.193   6.664   8.333  0.0251 -0.1565  0.1732
  184SOPE  H16X21136   1.090   6.647   8.369  1.1270 -0.6590  3.2908
  184SOPE  H16Y21137   1.223   6.770   8.349 -0.4517 -0.0934  0.6372
  184SOPE  C31721138   1.290   6.575   8.404 -0.2455 -0.0866 -0.4831
  184SOPE  H17X21139   1.389   6.587   8.355  0.1165 -0.4632  0.1553
  184SOPE  H17Y21140   1.265   6.469   8.381  1.1512 -0.1198 -1.9272
  184SOPE  C31821141   1.300   6.602   8.550 -0.1571 -0.4700 -0.4745
  184SOPE  H18X21142   1.292   6.712   8.564 -3.5619 -0.8325  1.1455
  184SOPE  H18Y21143   1.399   6.563   8.583 -0.9242 -1.0021  1.2805
  184SOPE  H18Z21144   1.215   6.571   8.615  1.3708  0.0162  1.8019
  185SAPI   C1221145   4.645   3.604  11.341 -0.1996 -0.2215 -0.1388
  185SAPI    H221146   4.707   3.687  11.302 -2.1407  0.7764 -1.1377
  185SAPI    O221147   4.740   3.511  11.393 -0.6901  0.1346  0.3536
  185SAPI   HO221148   4.774   3.449  11.329  0.9662  1.7625 -0.4034
  185SAPI   C1321149   4.558   3.666  11.453  0.3286  0.6641  0.3862
  185SAPI    H321150   4.504   3.743  11.395 -1.5621 -1.7773 -1.1421
  185SAPI    O321151   4.644   3.730  11.551  0.3756  0.3727  0.2820
  185SAPI   HO321152   4.676   3.664  11.614  0.2318 -0.6418 -0.6958
  185SAPI   C1421153   4.460   3.573  11.513  0.9304  0.1754 -0.3916
  185SAPI    H421154   4.519   3.510  11.582  2.7125  1.4805 -0.6731
  185SAPI    O421155   4.365   3.650  11.596  0.0545  0.8100  0.7807
  185SAPI   HO421156   4.310   3.707  11.541 -2.4386 -1.7065  0.5368
  185SAPI   C1521157   4.387   3.490  11.419  0.2438  0.8275  0.7477
  185SAPI    H521158   4.315   3.566  11.383  0.2722  1.3674  1.8057
  185SAPI    O521159   4.311   3.385  11.483  0.0022 -0.5280  0.3089
  185SAPI   HO521160   4.372   3.313  11.506  1.2434  0.4096 -0.0114
  185SAPI   C1621161   4.474   3.432  11.305 -0.3595 -0.2740 -0.0953
  185SAPI    H621162   4.536   3.362  11.365 -0.8631  0.9339  1.8792
  185SAPI    O621163   4.408   3.365  11.204 -0.8343 -0.2729 -0.3026
  185SAPI   HO621164   4.480   3.347  11.143  0.0233 -0.0731  0.6432
  185SAPI   C1121165   4.562   3.544  11.236  0.1293  0.3672  0.7579
  185SAPI    H121166   4.482   3.611  11.199  0.5140 -1.5002 -3.7756
  185SAPI     P21167   4.701   3.579  10.998  0.6572  0.0615  0.3910
  185SAPI   O1321168   4.822   3.519  10.936  0.5841  0.2352  0.1495
  185SAPI   O1421169   4.713   3.722  11.042 -0.4916 -0.0188 -0.2250
  185SAPI   O1221170   4.645   3.488  11.125  0.0475 -0.1291  0.4626
  185SAPI   O1121171   4.582   3.571  10.896 -0.1378 -0.3551 -0.5259
  185SAPI    C121172   4.590   3.480  10.784  0.3675  0.1269  0.0967
  185SAPI    HA21173   4.693   3.470  10.743  0.3350 -1.9073  0.4241
  185SAPI    HB21174   4.571   3.373  10.810 -0.4870 -0.7602 -3.7583
  185SAPI    C221175   4.499   3.531  10.670  0.2394  0.3805 -0.8503
  185SAPI    HS21176   4.508   3.458  10.586  4.1358 -0.0495 -0.1178
  185SAPI   O2121177   4.541   3.663  10.627 -0.3042  0.4502  0.3317
  185SAPI   C2121178   4.657   3.663  10.568  0.1903 -0.4742 -0.8816
  185SAPI   O2221179   4.715   3.568  10.525  0.5124  0.4264  0.3572
  185SAPI   C2221180   4.712   3.812  10.561  0.3506  0.8796 -0.4265
  185SAPI   H2R21181   4.643   3.893  10.593 -1.1591 -0.1655 -0.9915
  185SAPI   H2S21182   4.792   3.817  10.638  1.2944  2.4840 -1.4701
  185SAPI    C321183   4.347   3.534  10.714  0.5491  0.1890 -0.1349
  185SAPI    HX21184   4.319   3.631  10.760 -1.4100 -0.3699 -0.1141
  185SAPI    HY21185   4.331   3.449  10.783 -0.9018 -0.5653 -1.3842
  185SAPI   O3121186   4.258   3.513  10.597 -0.2238  0.2464  0.4341
  185SAPI   C3121187   4.157   3.591  10.571  0.8531 -0.1077  0.1093
  185SAPI   O3221188   4.117   3.683  10.645  0.3581  0.3871  0.5064
  185SAPI   C3221189   4.085   3.563  10.434 -0.5875  0.0480 -0.2694
  185SAPI   H2X21190   4.070   3.453  10.427  0.5681 -0.0450 -1.2900
  185SAPI   H2Y21191   4.149   3.599  10.351  1.0340 -2.1582 -0.0336
  185SAPI   C2321192   4.772   3.839  10.415 -0.1503 -0.1640 -0.0802
  185SAPI   H3R21193   4.840   3.758  10.382  1.2807 -0.1377  2.6774
  185SAPI   H3S21194   4.820   3.936  10.438  1.5897 -0.7288 -1.2583
  185SAPI   C2421195   4.660   3.860  10.318  0.2358  0.4268  0.0627
  185SAPI   H4R21196   4.593   3.936  10.363 -0.0758  1.3189 -1.8602
  185SAPI   H4S21197   4.608   3.762  10.325  0.6961  0.1899  0.1463
  185SAPI   C2521198   4.717   3.907  10.189  0.7587  0.8053 -0.1478
  185SAPI   H5R21199   4.786   3.990  10.206  0.0250  0.9832  2.1244
  185SAPI   C2621200   4.707   3.843  10.068  0.3238  0.5036 -0.9620
  185SAPI   H6R21201   4.766   3.886   9.986 -0.1298 -1.1627 -2.1820
  185SAPI   C2721202   4.633   3.716  10.033 -0.8033  0.2473  0.6267
  185SAPI   H7R21203   4.590   3.663  10.121  1.6933 -0.1344  1.6569
  185SAPI   H7S21204   4.709   3.650   9.985 -0.5528  2.8397 -2.7052
  185SAPI   C2821205   4.508   3.748   9.953 -0.6127  0.4514 -0.6628
  185SAPI   H8R21206   4.445   3.825  10.000 -0.0735  0.1576  0.5857
  185SAPI   C2921207   4.459   3.680   9.846  0.1413  0.3488  0.0653
  185SAPI   H9R21208   4.368   3.713   9.794 -0.2079 -0.0826  0.3983
  185SAPI  C21021209   4.536   3.559   9.791 -0.0877  0.1437  0.2688
  185SAPI  H10R21210   4.460   3.479   9.803  1.7179 -1.5853  0.4832
  185SAPI  H10S21211   4.607   3.518   9.866  1.1171  0.9411 -0.4318
  185SAPI  C21121212   4.588   3.576   9.648 -0.1666 -0.8973 -0.0089
  185SAPI  H11R21213   4.693   3.604   9.630  0.5410 -2.6964  1.1494
  185SAPI  C21221214   4.500   3.570   9.544  0.3743  0.0015  0.4078
  185SAPI  H12R21215   4.538   3.562   9.441  1.1939 -0.6047  0.7530
  185SAPI  C21321216   4.347   3.538   9.551 -0.3359  0.0894  0.0791
  185SAPI  H13R21217   4.295   3.623   9.503  0.5753 -0.0831 -1.2518
  185SAPI  H13S21218   4.311   3.538   9.656 -2.6341 -0.3694 -0.6696
  185SAPI  C21421219   4.316   3.407   9.488 -0.1900 -0.3769 -0.7267
  185SAPI  H14R21220   4.306   3.329   9.565 -0.4847 -0.1024 -0.4853
  185SAPI  C21521221   4.298   3.363   9.366  0.2769  0.1601  0.4188
  185SAPI  H15R21222   4.277   3.257   9.346  0.2752  0.0448  1.0111
  185SAPI  C21621223   4.306   3.439   9.242  0.0980  0.0932 -0.4050
  185SAPI  H16R21224   4.321   3.548   9.259 -0.7961  0.2486 -0.5825
  185SAPI  H16S21225   4.217   3.428   9.177  0.3724 -1.1552 -0.5790
  185SAPI  C21721226   4.423   3.404   9.143  0.1142  0.4655  0.0754
  185SAPI  H17R21227   4.513   3.447   9.192 -1.0910 -0.1477  2.9537
  185SAPI  H17S21228   4.408   3.466   9.052 -2.0199  0.7080  0.5536
  185SAPI  C21821229   4.438   3.261   9.116 -0.1160  0.0562 -0.1585
  185SAPI  H18R21230   4.343   3.215   9.080  0.8831 -1.3702 -0.9886
  185SAPI  H18S21231   4.457   3.210   9.213  1.5713 -0.9936 -1.0180
  185SAPI  C21921232   4.547   3.226   9.014  0.0791 -0.5951  1.0077
  185SAPI  H19R21233   4.646   3.275   9.030  0.6162 -0.1410 -3.2565
  185SAPI  H19S21234   4.518   3.277   8.920  1.0669  2.1032  2.1070
  185SAPI  C22021235   4.577   3.075   9.004 -0.2950  0.2267  0.0750
  185SAPI  H20R21236   4.575   3.027   9.104  1.4266  0.9402  0.4607
  185SAPI  H20S21237   4.677   3.062   8.958  0.8799  0.1658  2.5237
  185SAPI  H20T21238   4.515   3.024   8.927  0.1570 -0.0724 -0.0908
  185SAPI   C3321239   3.946   3.627  10.425 -0.5385  0.1831  0.0272
  185SAPI   H3X21240   3.955   3.738  10.429  0.7717  0.0396  1.7056
  185SAPI   H3Y21241   3.876   3.591  10.503 -1.0994  2.2378  0.5037
  185SAPI   C3421242   3.890   3.597  10.276 -0.9891  0.4850 -1.1057
  185SAPI   H4X21243   3.866   3.488  10.272 -0.7047  0.4952 -3.4882
  185SAPI   H4Y21244   3.970   3.626  10.205  1.7084 -0.1378  1.5643
  185SAPI   C3521245   3.771   3.678  10.233 -0.5262 -0.3016 -0.4247
  185SAPI   H5X21246   3.797   3.783  10.258  0.4534 -0.8959  1.0809
  185SAPI   H5Y21247   3.699   3.646  10.312  0.3761 -0.9651  0.1412
  185SAPI   C3621248   3.709   3.648  10.101 -0.1125 -0.1379  0.4024
  185SAPI   H6X21249   3.681   3.541  10.087  0.6261 -0.2919  0.0790
  185SAPI   H6Y21250   3.787   3.673  10.026 -2.0125  2.8663 -0.6453
  185SAPI   C3721251   3.590   3.730  10.064  0.1234 -0.4217 -0.0539
  185SAPI   H7X21252   3.607   3.837  10.090  2.0531 -0.9060  0.7329
  185SAPI   H7Y21253   3.503   3.700  10.127 -0.7511  0.1437 -0.9708
  185SAPI   C3821254   3.556   3.717   9.918 -0.0845 -0.2318  0.3514
  185SAPI   H8X21255   3.619   3.782   9.855 -1.9870  1.5876  0.2597
  185SAPI   H8Y21256   3.454   3.760   9.906 -0.2888 -1.2398 -1.6643
  185SAPI   C3921257   3.537   3.578   9.865  0.0326  0.2181  0.2938
  185SAPI   H9X21258   3.469   3.533   9.940 -1.8191  1.1042 -0.7907
  185SAPI   H9Y21259   3.638   3.533   9.861 -0.4304 -0.6811 -1.9913
  185SAPI  C31021260   3.480   3.570   9.726 -0.5607 -0.4694  0.6315
  185SAPI  H10X21261   3.371   3.594   9.728 -0.4711 -0.1085  1.5364
  185SAPI  H10Y21262   3.502   3.467   9.689  4.0523  0.8078 -0.4100
  185SAPI  C31121263   3.530   3.678   9.625 -0.4907  0.0596  0.4338
  185SAPI  H11X21264   3.641   3.668   9.626 -0.6120 -1.4399  0.6798
  185SAPI  H11Y21265   3.506   3.777   9.668 -0.6517  0.1760  0.0756
  185SAPI  C31221266   3.464   3.667   9.485 -0.3612 -1.0041  0.3447
  185SAPI  H12X21267   3.516   3.749   9.431 -0.8703 -1.9246 -1.5851
  185SAPI  H12Y21268   3.353   3.671   9.487 -0.3925 -0.5017 -1.8411
  185SAPI  C31321269   3.509   3.541   9.407 -0.1574 -0.3573 -0.4246
  185SAPI  H13X21270   3.490   3.448   9.464 -0.0631 -0.7536 -1.0390
  185SAPI  H13Y21271   3.619   3.552   9.395  0.1108 -0.8192  1.4297
  185SAPI  C31421272   3.456   3.537   9.258 -0.1947  0.1603  0.4460
  185SAPI  H14X21273   3.473   3.633   9.204  1.2769 -0.3808 -0.0824
  185SAPI  H14Y21274   3.348   3.537   9.285 -0.5446 -0.2556 -0.9285
  185SAPI  C31521275   3.491   3.410   9.180 -0.4661 -0.3282  0.3633
  185SAPI  H15X21276   3.485   3.313   9.234  2.1887 -0.8801 -0.2465
  185SAPI  H15Y21277   3.594   3.417   9.138 -0.7899  2.0255 -0.1139
  185SAPI  C31621278   3.399   3.403   9.059 -0.1627  0.2399 -0.3801
  185SAPI  H16X21279   3.406   3.502   9.009  0.3376  0.4020  0.0001
  185SAPI  H16Y21280   3.293   3.382   9.089  0.0937  1.7724  1.7620
  185SAPI  C31721281   3.450   3.307   8.955 -0.3297 -0.6347  0.4118
  185SAPI  H17X21282   3.363   3.280   8.892  1.1521 -2.0990 -1.0332
  185SAPI  H17Y21283   3.483   3.214   9.005  1.6870 -0.0563  0.2084
  185SAPI  C31821284   3.572   3.361   8.867  0.5763 -1.0795 -0.2922
  185SAPI  H18X21285   3.597   3.292   8.784  0.0564  0.0166 -1.3727
  185SAPI  H18Y21286   3.656   3.352   8.939  1.8822  0.0291 -1.6635
  185SAPI  H18Z21287   3.564   3.466   8.833 -1.1176 -1.4835 -1.2026
  186SAPI   C1221288   5.179   2.202  10.834  0.1203  0.5167  0.2195
  186SAPI    H221289   5.217   2.153  10.743 -0.7705  0.2786 -0.0323
  186SAPI    O221290   5.181   2.106  10.938  0.1024  0.0398  0.2070
  186SAPI   HO221291   5.132   2.025  10.918 -2.2943  1.5709 -0.3815
  186SAPI   C1321292   5.252   2.324  10.872 -0.0735  0.9409  0.2374
  186SAPI    H321293   5.261   2.391  10.784  1.2635 -0.4322 -0.7019
  186SAPI    O321294   5.394   2.301  10.882  0.3196 -0.0325 -0.4864
  186SAPI   HO321295   5.435   2.372  10.832  2.2836  0.1397  1.2557
  186SAPI   C1421296   5.197   2.399  10.992  0.7034 -0.0426 -0.0597
  186SAPI    H421297   5.201   2.330  11.079 -0.2284 -0.5461 -0.4055
  186SAPI    O421298   5.276   2.518  11.016 -0.2338 -0.2271 -0.4630
  186SAPI   HO421299   5.252   2.595  10.965 -2.2863 -0.5551 -0.0499
  186SAPI   C1521300   5.047   2.432  10.972  0.1615 -0.0406 -0.3460
  186SAPI    H521301   5.052   2.514  10.897 -1.7662  0.7027  0.2945
  186SAPI    O521302   4.994   2.509  11.079 -0.0662 -0.4161 -0.0548
  186SAPI   HO521303   4.997   2.457  11.160  0.8831 -0.1792  0.0698
  186SAPI   C1621304   4.973   2.314  10.921  0.1754  0.0966  0.3772
  186SAPI    H621305   4.958   2.235  10.997  2.2073 -0.7239 -0.0468
  186SAPI    O621306   4.843   2.357  10.870  0.0242 -0.3033 -0.5276
  186SAPI   HO621307   4.845   2.441  10.825  0.1288 -0.2018 -0.3356
  186SAPI   C1121308   5.035   2.233  10.802 -0.4136 -0.3966 -0.3138
  186SAPI    H121309   5.034   2.304  10.716 -0.0726  0.6088  0.5033
  186SAPI     P21310   4.849   2.105  10.659  0.4232  0.0963  0.1064
  186SAPI   O1321311   4.817   2.238  10.600  0.0540 -0.7703  0.4673
  186SAPI   O1421312   4.730   2.030  10.700 -0.4886 -0.0237  0.2078
  186SAPI   O1221313   4.960   2.115  10.780  0.0808 -0.0100  0.1407
  186SAPI   O1121314   4.912   2.009  10.553 -0.3914  0.3081 -0.0823
  186SAPI    C121315   5.030   1.929  10.556  0.6841 -0.2110  0.0230
  186SAPI    HA21316   5.063   1.903  10.659  0.7696  0.6905  0.2233
  186SAPI    HB21317   5.002   1.827  10.522  1.0672 -0.0964 -0.6545
  186SAPI    C221318   5.146   1.985  10.473  0.1062  0.7479  0.3751
  186SAPI    HS21319   5.187   2.072  10.529 -0.9447 -0.0100  2.3685
  186SAPI   O2121320   5.086   2.021  10.350  0.1650 -0.0804  1.1642
  186SAPI   C2121321   5.142   2.118  10.285  0.5297  0.2514 -0.2353
  186SAPI   O2221322   5.253   2.164  10.301 -0.8661 -0.0445  0.0623
  186SAPI   C2221323   5.041   2.178  10.185 -0.0560 -0.1630 -0.0827
  186SAPI   H2R21324   4.965   2.103  10.152  0.1597 -0.5263  0.2505
  186SAPI   H2S21325   4.990   2.265  10.231  0.5930  0.8755 -1.2803
  186SAPI    C321326   5.252   1.869  10.455  0.4071  0.0317 -0.1751
  186SAPI    HX21327   5.193   1.778  10.430 -0.8795  0.8464 -0.1686
  186SAPI    HY21328   5.283   1.850  10.560  1.5941  1.9749 -0.1448
  186SAPI   O3121329   5.367   1.916  10.372 -0.1669 -0.3179  0.2642
  186SAPI   C3121330   5.430   1.801  10.346 -0.2306 -1.3141 -0.0907
  186SAPI   O3221331   5.397   1.692  10.403  0.0099  0.3252  0.0953
  186SAPI   C3221332   5.538   1.823  10.236  0.7861  0.8160 -0.2367
  186SAPI   H2X21333   5.629   1.870  10.279  0.5479 -0.5920  1.9327
  186SAPI   H2Y21334   5.492   1.879  10.153 -0.7773  2.4186  1.6606
  186SAPI   C2321335   5.118   2.209  10.055 -0.0986 -0.1871 -0.2414
  186SAPI   H3R21336   5.171   2.115  10.027  0.4190  0.4376 -1.4192
  186SAPI   H3S21337   5.199   2.280  10.081 -1.4798  0.7343  1.6211
  186SAPI   C2421338   5.040   2.239   9.927  0.6424 -0.3320 -0.0602
  186SAPI   H4R21339   4.978   2.148   9.915  3.0907 -2.1880  0.8040
  186SAPI   H4S21340   5.108   2.252   9.840  1.3286  1.0306  0.6526
  186SAPI   C2521341   4.957   2.369   9.947  0.5048  0.0724  0.1983
  186SAPI   H5R21342   4.916   2.380  10.049  1.5700 -0.2572  0.6636
  186SAPI   C2621343   4.927   2.457   9.851  0.4086 -0.2068  0.1545
  186SAPI   H6R21344   4.870   2.547   9.879 -0.5803 -1.1252  1.1092
  186SAPI   C2721345   4.969   2.437   9.707  0.6074 -0.2191 -0.1263
  186SAPI   H7R21346   4.958   2.327   9.692 -0.8955 -0.5095  2.7023
  186SAPI   H7S21347   5.078   2.459   9.704  0.2113  1.6301 -1.3857
  186SAPI   C2821348   4.906   2.514   9.596  0.4619  0.2605  0.7413
  186SAPI   H8R21349   4.809   2.565   9.602 -0.0730 -0.6779  0.3411
  186SAPI   C2921350   4.966   2.529   9.473 -0.0660 -0.2272 -0.1657
  186SAPI   H9R21351   4.910   2.585   9.397 -1.3664 -0.1180  0.8764
  186SAPI  C21021352   5.099   2.481   9.424  0.3990 -0.3191  0.6758
  186SAPI  H10R21353   5.103   2.371   9.440 -1.8972 -0.7725 -1.5101
  186SAPI  H10S21354   5.179   2.524   9.488 -1.9192  2.7773  1.6057
  186SAPI  C21121355   5.126   2.511   9.275  0.3372  0.2989 -0.0461
  186SAPI  H11R21356   5.163   2.613   9.254 -2.1494  1.7004  2.0800
  186SAPI  C21221357   5.090   2.432   9.172 -0.3303  0.8752 -0.0179
  186SAPI  H12R21358   5.121   2.473   9.075  2.0413 -3.6337 -1.2792
  186SAPI  C21321359   5.017   2.302   9.171  0.1739  0.0122  0.0376
  186SAPI  H13R21360   4.948   2.296   9.258  0.2193  0.3268  0.0972
  186SAPI  H13S21361   5.096   2.225   9.174  0.6115  0.5071  2.1788
  186SAPI  C21421362   4.940   2.268   9.046 -0.2939  0.9838  0.3240
  186SAPI  H14R21363   4.831   2.275   9.063 -0.7838 -0.3645 -2.0970
  186SAPI  C21521364   4.973   2.256   8.920  0.0778 -0.4419 -0.2207
  186SAPI  H15R21365   4.902   2.236   8.838  0.4223 -1.2969 -0.3160
  186SAPI  C21621366   5.119   2.263   8.874  0.9065 -0.2995 -0.0821
  186SAPI  H16R21367   5.187   2.237   8.958  1.5005 -0.2611 -0.5488
  186SAPI  H16S21368   5.142   2.369   8.848 -0.5639  0.8898  3.1790
  186SAPI  C21721369   5.162   2.182   8.755  0.2371 -0.0425 -0.0765
  186SAPI  H17R21370   5.108   2.218   8.664 -2.6368 -1.6301  0.9190
  186SAPI  H17S21371   5.122   2.079   8.760 -0.1737  0.2184  2.2584
  186SAPI  C21821372   5.317   2.195   8.739  0.4718 -0.6132 -0.0097
  186SAPI  H18R21373   5.361   2.172   8.838 -1.0879  1.5324  1.2116
  186SAPI  H18S21374   5.352   2.298   8.719 -1.8697  0.0698 -0.7097
  186SAPI  C21921375   5.364   2.101   8.623  1.3039 -0.4274 -0.0550
  186SAPI  H19R21376   5.302   2.125   8.534  0.7046  0.5111  0.6114
  186SAPI  H19S21377   5.338   1.999   8.658 -0.0829 -0.4424 -1.0731
  186SAPI  C22021378   5.513   2.103   8.592  1.1998 -0.5288  0.6512
  186SAPI  H20R21379   5.563   2.080   8.688  0.2226  1.3745  1.6532
  186SAPI  H20S21380   5.557   2.200   8.561  2.2460 -0.7172  1.5228
  186SAPI  H20T21381   5.542   2.030   8.513  0.4882 -0.0181 -0.0964
  186SAPI   C3321382   5.577   1.679  10.177  0.0904 -0.6483 -1.1817
  186SAPI   H3X21383   5.493   1.620  10.136  0.8619 -1.8366 -1.0851
  186SAPI   H3Y21384   5.621   1.615  10.256  0.7136  1.0269 -0.1257
  186SAPI   C3421385   5.675   1.689  10.061 -0.3182 -0.5369  1.0630
  186SAPI   H4X21386   5.713   1.586  10.041 -0.3644 -0.5053  0.8029
  186SAPI   H4Y21387   5.765   1.744  10.096 -1.2817 -0.2816  3.2060
  186SAPI   C3521388   5.621   1.759   9.936 -0.3642 -0.5239  0.0287
  186SAPI   H5X21389   5.583   1.862   9.947 -0.4857 -0.4333 -1.2252
  186SAPI   H5Y21390   5.533   1.704   9.895  0.2680 -2.7649  1.5628
  186SAPI   C3621391   5.734   1.752   9.829 -0.3191  0.0387  0.0297
  186SAPI   H6X21392   5.780   1.653   9.811  0.5115  0.1119  1.7365
  186SAPI   H6Y21393   5.820   1.817   9.855 -0.6934  0.0951  1.1607
  186SAPI   C3721394   5.685   1.802   9.694 -0.2076 -0.3457 -0.2648
  186SAPI   H7X21395   5.667   1.910   9.712 -1.0075 -0.8128  1.9016
  186SAPI   H7Y21396   5.579   1.770   9.687 -1.1676  2.5791  0.2796
  186SAPI   C3821397   5.782   1.766   9.577  0.3927  0.1396  0.6672
  186SAPI   H8X21398   5.765   1.663   9.538  2.1736  0.1931 -0.3411
  186SAPI   H8Y21399   5.880   1.746   9.626 -0.6338 -1.4741  2.0797
  186SAPI   C3921400   5.808   1.865   9.468 -0.3035 -0.2922 -0.2654
  186SAPI   H9X21401   5.850   1.954   9.520 -0.5150 -0.1207 -0.3880
  186SAPI   H9Y21402   5.711   1.910   9.441 -0.3800 -0.1752  0.1994
  186SAPI  C31021403   5.892   1.818   9.342  0.1477 -0.3154 -0.6165
  186SAPI  H10X21404   5.845   1.730   9.293 -1.0148  0.5361 -1.0389
  186SAPI  H10Y21405   5.994   1.792   9.378  0.0431  1.8473  1.3594
  186SAPI  C31121406   5.894   1.928   9.235  0.0341 -0.4074 -0.0573
  186SAPI  H11X21407   5.973   1.899   9.163 -0.0826  0.8399 -0.7018
  186SAPI  H11Y21408   5.918   2.023   9.288  1.0987 -1.0234  0.5875
  186SAPI  C31221409   5.756   1.959   9.164  0.5235  0.7936 -0.3115
  186SAPI  H12X21410   5.687   2.000   9.241 -0.0281  1.8950 -1.3847
  186SAPI  H12Y21411   5.713   1.862   9.133  1.3106  0.1566  0.5554
  186SAPI  C31321412   5.771   2.056   9.051  0.1597  0.0679 -0.1597
  186SAPI  H13X21413   5.826   2.145   9.087  1.2726 -0.8384  0.3929
  186SAPI  H13Y21414   5.667   2.084   9.022 -0.0023 -0.0141  0.3264
  186SAPI  C31421415   5.847   2.003   8.931 -0.3072  0.1196 -0.3741
  186SAPI  H14X21416   5.951   1.982   8.966 -1.0076  1.2552  2.5304
  186SAPI  H14Y21417   5.847   2.075   8.846  1.7297  1.7555  0.9386
  186SAPI  C31521418   5.785   1.878   8.872  0.3926 -1.2520 -0.9798
  186SAPI  H15X21419   5.683   1.918   8.851 -0.2686 -2.0774  0.5181
  186SAPI  H15Y21420   5.771   1.793   8.942 -1.6799  0.5143  0.8171
  186SAPI  C31621421   5.856   1.816   8.750 -0.2675  0.3576 -0.1840
  186SAPI  H16X21422   5.949   1.767   8.786 -0.0074  1.7436  1.0967
  186SAPI  H16Y21423   5.884   1.890   8.672  0.3029  0.1046 -0.2245
  186SAPI  C31721424   5.768   1.702   8.689 -0.0172  0.8101 -0.8231
  186SAPI  H17X21425   5.664   1.727   8.661 -0.4354 -0.9178 -0.8493
  186SAPI  H17Y21426   5.741   1.634   8.773 -0.5050  1.6193 -0.3246
  186SAPI  C31821427   5.836   1.619   8.577  0.0331  0.1307  0.6713
  186SAPI  H18X21428   5.946   1.631   8.566  0.2721 -1.4935  1.2503
  186SAPI  H18Y21429   5.794   1.645   8.477  1.1084  0.6363  0.3412
  186SAPI  H18Z21430   5.828   1.510   8.596  2.0477  0.0009  0.8406
  187SAPI   C1221431   2.626   3.133   6.571  0.4651  0.6790 -0.1060
  187SAPI    H221432   2.612   3.048   6.641 -1.2252  0.8220 -0.2518
  187SAPI    O221433   2.504   3.204   6.571 -0.5179 -0.4328  0.1398
  187SAPI   HO221434   2.444   3.161   6.510 -1.5751 -0.4580  1.1795
  187SAPI   C1321435   2.734   3.225   6.609 -0.0540 -0.6047 -0.2415
  187SAPI    H321436   2.826   3.163   6.618  0.2296  0.3534  4.8626
  187SAPI    O321437   2.710   3.275   6.744 -0.2342  0.3005  0.0675
  187SAPI   HO321438   2.615   3.281   6.755 -0.2667 -0.0311 -0.0344
  187SAPI   C1421439   2.742   3.340   6.514 -0.5876  0.4684  1.2252
  187SAPI    H421440   2.650   3.402   6.520 -0.4051  1.0156 -0.9515
  187SAPI    O421441   2.849   3.430   6.542 -0.4566  0.5223  0.1480
  187SAPI   HO421442   2.809   3.517   6.530  3.9235  2.3270 -2.6910
  187SAPI   C1521443   2.768   3.285   6.374 -0.0987 -0.1638 -0.5239
  187SAPI    H521444   2.874   3.251   6.379 -0.7288 -1.8463  2.4321
  187SAPI    O521445   2.765   3.388   6.273 -0.4913 -0.1182 -0.1281
  187SAPI   HO521446   2.678   3.398   6.235 -0.6425  0.3670  0.3288
  187SAPI   C1621447   2.668   3.181   6.335 -0.2448  0.3367  0.4609
  187SAPI    H621448   2.566   3.223   6.325 -1.1125 -1.1960  2.6332
  187SAPI    O621449   2.686   3.138   6.199  0.0493  0.7262  0.4750
  187SAPI   HO621450   2.608   3.087   6.175  0.2242  0.0417  1.3242
  187SAPI   C1121451   2.655   3.067   6.436  0.0239 -0.3005  0.4443
  187SAPI    H121452   2.753   3.017   6.446 -0.4263 -0.8779  2.0833
  187SAPI     P21453   2.571   2.815   6.407 -0.7560  0.3262 -0.0423
  187SAPI   O1321454   2.695   2.773   6.342  0.4974  0.2361  0.0834
  187SAPI   O1421455   2.450   2.749   6.359 -0.4677 -0.7218 -0.4666
  187SAPI   O1221456   2.549   2.976   6.406  0.2153 -0.0407  0.0530
  187SAPI   O1121457   2.585   2.797   6.565  0.7531  0.0609  0.7936
  187SAPI    C121458   2.481   2.727   6.635  0.4023  0.0338  0.0548
  187SAPI    HA21459   2.383   2.734   6.584  0.2740  2.9135  0.6137
  187SAPI    HB21460   2.505   2.621   6.660 -1.0970  0.3415  3.0196
  187SAPI    C221461   2.444   2.796   6.767  0.4921  0.2605  0.0820
  187SAPI    HS21462   2.382   2.884   6.741 -0.2292  0.0707  1.1374
  187SAPI   O2121463   2.574   2.833   6.830 -0.6458 -0.1378 -0.5892
  187SAPI   C2121464   2.578   2.949   6.896  0.1979  1.2400  0.1980
  187SAPI   O2221465   2.490   3.032   6.911  0.4157  0.3370 -0.4968
  187SAPI   C2221466   2.713   2.954   6.951 -0.8306  0.0430  0.7605
  187SAPI   H2R21467   2.749   2.853   6.979 -0.9892  0.4900  2.6545
  187SAPI   H2S21468   2.775   3.019   6.884  1.8497 -2.1112  1.0566
  187SAPI    C321469   2.365   2.723   6.867  0.4609  0.0236 -0.8608
  187SAPI    HX21470   2.405   2.624   6.897 -1.5297 -0.1318  1.3821
  187SAPI    HY21471   2.266   2.698   6.822  0.2814 -1.9230  0.5352
  187SAPI   O3121472   2.354   2.790   6.988  0.2815  0.3771  0.0657
  187SAPI   C3121473   2.252   2.878   6.987  0.2606  0.2071  0.5577
  187SAPI   O3221474   2.184   2.908   6.888  0.1397 -0.1976  0.3003
  187SAPI   C3221475   2.236   2.938   7.124 -0.4905 -0.0948 -0.2656
  187SAPI   H2X21476   2.309   3.020   7.132  0.9001 -1.4708  1.7154
  187SAPI   H2Y21477   2.273   2.861   7.196  0.8180  0.9935  0.2317
  187SAPI   C2321478   2.699   3.026   7.088 -0.4730 -1.1808 -0.6834
  187SAPI   H3R21479   2.628   2.965   7.147 -2.6682  1.3763 -0.6085
  187SAPI   H3S21480   2.652   3.125   7.071 -0.0966 -0.5336  1.8099
  187SAPI   C2421481   2.829   3.036   7.178 -0.3168 -0.3361  0.0287
  187SAPI   H4R21482   2.866   2.933   7.161  0.0585 -0.7400  3.0000
  187SAPI   H4S21483   2.806   3.044   7.286 -0.4174  2.3410 -0.1431
  187SAPI   C2521484   2.926   3.130   7.118 -0.0055  0.4237 -0.2004
  187SAPI   H5R21485   2.975   3.097   7.025 -0.3331  1.4716 -0.7605
  187SAPI   C2621486   2.961   3.254   7.172 -0.0374  0.0317  0.6192
  187SAPI   H6R21487   3.030   3.319   7.118 -0.7982  0.8199  0.5877
  187SAPI   C2721488   2.908   3.312   7.304 -0.3456 -0.2446  0.0386
  187SAPI   H7R21489   2.965   3.276   7.393  0.0517 -1.6715 -0.7876
  187SAPI   H7S21490   2.805   3.276   7.323 -1.0903  1.6681 -0.2585
  187SAPI   C2821491   2.904   3.460   7.320 -0.1979  0.6129  0.0588
  187SAPI   H8R21492   2.994   3.511   7.284 -1.1952  0.5937 -2.5149
  187SAPI   C2921493   2.812   3.524   7.397  0.4133  0.4365 -0.5157
  187SAPI   H9R21494   2.827   3.632   7.408  0.8039  0.4272 -0.9452
  187SAPI  C21021495   2.700   3.472   7.486 -0.9278 -0.3369 -0.1600
  187SAPI  H10R21496   2.731   3.377   7.535  0.7823  0.6881  0.7880
  187SAPI  H10S21497   2.616   3.442   7.419 -0.0934 -1.2159 -0.8215
  187SAPI  C21121498   2.662   3.563   7.599 -0.6649  0.2550 -1.2228
  187SAPI  H11R21499   2.730   3.556   7.685 -2.2229  1.8045  0.1966
  187SAPI  C21221500   2.548   3.642   7.606 -0.8976  0.0117  0.7894
  187SAPI  H12R21501   2.514   3.700   7.693  1.0201  0.4834  1.2371
  187SAPI  C21321502   2.451   3.663   7.492  0.8003 -0.0069 -0.1876
  187SAPI  H13R21503   2.486   3.639   7.389  0.2950  0.6467 -0.5112
  187SAPI  H13S21504   2.421   3.770   7.485  0.0519 -0.0065  2.3828
  187SAPI  C21421505   2.318   3.589   7.516 -0.2175 -0.7078  0.8949
  187SAPI  H14R21506   2.299   3.518   7.435 -2.0848  0.0757  0.6302
  187SAPI  C21521507   2.226   3.614   7.604  0.0211 -0.3652  0.0257
  187SAPI  H15R21508   2.125   3.574   7.584 -0.3579  0.6331 -0.0553
  187SAPI  C21621509   2.231   3.734   7.702 -0.1398  0.4749  0.1747
  187SAPI  H16R21510   2.150   3.807   7.686  1.1219  2.0914  1.0626
  187SAPI  H16S21511   2.326   3.791   7.690  0.9284 -1.7250 -2.3755
  187SAPI  C21721512   2.227   3.687   7.852 -1.2039 -0.0526  0.5773
  187SAPI  H17R21513   2.305   3.615   7.884 -0.9695  0.7752  1.9312
  187SAPI  H17S21514   2.125   3.649   7.877  1.0893 -4.2996  4.1462
  187SAPI  C21821515   2.249   3.807   7.948 -0.2466  0.1392  0.3534
  187SAPI  H18R21516   2.169   3.883   7.931 -0.5678 -0.1873  0.3994
  187SAPI  H18S21517   2.347   3.858   7.935 -0.4235  0.4073  0.0452
  187SAPI  C21921518   2.257   3.757   8.098  0.6174  0.0338 -0.8222
  187SAPI  H19R21519   2.342   3.687   8.112 -0.6198 -1.3210  0.0390
  187SAPI  H19S21520   2.162   3.702   8.106 -0.1637  1.2960 -1.2242
  187SAPI  C22021521   2.269   3.866   8.209  0.0325  0.7553 -0.5525
  187SAPI  H20R21522   2.373   3.875   8.247 -0.9773  0.4400  2.3731
  187SAPI  H20S21523   2.196   3.843   8.289  0.8230  1.2984  0.3259
  187SAPI  H20T21524   2.244   3.962   8.158 -3.2662  0.0593 -0.3666
  187SAPI   C3321525   2.092   2.981   7.161 -0.1561 -0.2507  0.0007
  187SAPI   H3X21526   2.062   3.053   7.083  0.1229 -1.1563 -0.9491
  187SAPI   H3Y21527   2.089   3.038   7.257 -0.0851  2.4580 -1.5616
  187SAPI   C3421528   1.994   2.861   7.159  0.9271  0.1010  0.1240
  187SAPI   H4X21529   2.004   2.802   7.065  1.7649 -0.6220  0.6561
  187SAPI   H4Y21530   1.894   2.909   7.158  1.4629  1.2752 -2.6387
  187SAPI   C3521531   1.996   2.769   7.287  0.0798  0.2211  0.5536
  187SAPI   H5X21532   2.096   2.720   7.288 -0.5809 -1.1440  0.7040
  187SAPI   H5Y21533   1.923   2.686   7.294 -0.5392  0.7034 -0.1014
  187SAPI   C3621534   1.994   2.842   7.431  0.0765  0.4271 -0.2009
  187SAPI   H6X21535   1.912   2.916   7.442 -2.4379 -2.2546 -0.3746
  187SAPI   H6Y21536   2.088   2.901   7.444  0.0013  1.1518 -2.8197
  187SAPI   C3721537   1.987   2.750   7.557 -0.4430  0.9034  0.0023
  187SAPI   H7X21538   2.053   2.662   7.543  0.6177  1.4260  1.5904
  187SAPI   H7Y21539   1.879   2.729   7.572 -0.8714 -0.8129 -4.4851
  187SAPI   C3821540   2.041   2.838   7.670  0.2242  0.1798 -0.1869
  187SAPI   H8X21541   1.976   2.928   7.681 -0.2146 -0.1957  0.3166
  187SAPI   H8Y21542   2.147   2.862   7.647  0.2812  1.0522  0.9527
  187SAPI   C3921543   2.030   2.757   7.803  0.5364  0.2438  0.6144
  187SAPI   H9X21544   2.079   2.658   7.795  2.3228  1.1583 -0.0157
  187SAPI   H9Y21545   1.925   2.740   7.837  0.4086  0.2765  0.2317
  187SAPI  C31021546   2.108   2.825   7.922  0.2191  0.5578  0.0557
  187SAPI  H10X21547   2.043   2.907   7.960 -0.6257 -0.0281 -0.1140
  187SAPI  H10Y21548   2.196   2.881   7.883  0.6093 -1.2927 -1.8180
  187SAPI  C31121549   2.167   2.717   8.022 -0.4370 -0.7604  0.7447
  187SAPI  H11X21550   2.234   2.655   7.959 -1.3635  1.1644 -2.2512
  187SAPI  H11Y21551   2.083   2.651   8.051 -0.6718 -2.0802 -2.6660
  187SAPI  C31221552   2.233   2.785   8.145 -0.1965 -0.2469 -0.0095
  187SAPI  H12X21553   2.167   2.867   8.181 -2.4062 -1.3279 -1.4234
  187SAPI  H12Y21554   2.331   2.829   8.117 -1.1887  1.0439 -1.5793
  187SAPI  C31321555   2.263   2.681   8.252 -0.1544 -0.3403  0.9807
  187SAPI  H13X21556   2.315   2.594   8.205 -0.3445 -0.6508  1.3424
  187SAPI  H13Y21557   2.164   2.637   8.275 -0.4058 -0.1707  0.2476
  187SAPI  C31421558   2.345   2.745   8.374  0.0147  0.2039 -0.1886
  187SAPI  H14X21559   2.289   2.826   8.425 -0.5914 -0.1197 -0.3456
  187SAPI  H14Y21560   2.437   2.787   8.328  1.6370 -0.7376  2.0433
  187SAPI  C31521561   2.389   2.644   8.480 -0.0363 -0.7032  0.9752
  187SAPI  H15X21562   2.400   2.545   8.431 -0.0062 -0.4634  0.4886
  187SAPI  H15Y21563   2.309   2.640   8.556 -0.0340  0.6921  1.0679
  187SAPI  C31621564   2.524   2.684   8.530  0.2007  0.1162  0.8812
  187SAPI  H16X21565   2.505   2.770   8.597  0.0773 -0.0709  1.0893
  187SAPI  H16Y21566   2.593   2.721   8.451 -1.6788 -0.1260 -0.9353
  187SAPI  C31721567   2.581   2.568   8.612 -0.1744 -0.3584  0.1405
  187SAPI  H17X21568   2.688   2.594   8.631  0.2348 -0.8257 -1.4867
  187SAPI  H17Y21569   2.593   2.471   8.560  3.4880 -0.0174  0.2213
  187SAPI  C31821570   2.512   2.554   8.745  0.6488  0.2131  0.7745
  187SAPI  H18X21571   2.531   2.644   8.806 -1.1697  0.9404  0.3065
  187SAPI  H18Y21572   2.553   2.468   8.802 -1.6775 -0.1984  1.8763
  187SAPI  H18Z21573   2.402   2.540   8.745  0.6554 -0.9394 -3.9531
  188SAPI   C1221574   3.198   6.709   6.375 -0.4723 -0.5700 -0.1311
  188SAPI    H221575   3.273   6.651   6.434 -0.1974  1.1861  1.2677
  188SAPI    O221576   3.102   6.765   6.458  0.3001  0.8662  0.5818
  188SAPI   HO221577   3.033   6.698   6.455  1.3194 -0.1461 -2.4227
  188SAPI   C1321578   3.272   6.811   6.290 -0.4953  0.2636  0.7851
  188SAPI    H321579   3.338   6.753   6.222 -2.4024 -2.0282  0.8114
  188SAPI    O321580   3.347   6.904   6.373 -0.4764 -0.1968 -0.0202
  188SAPI   HO321581   3.288   6.938   6.440 -0.7192  0.8506 -0.7588
  188SAPI   C1421582   3.167   6.884   6.199 -0.1969  0.6044 -0.8979
  188SAPI    H421583   3.089   6.933   6.262 -0.8279 -0.1717 -1.0600
  188SAPI    O421584   3.232   6.987   6.129  0.2299 -0.4167  0.8793
  188SAPI   HO421585   3.289   7.031   6.192  0.7553  0.1300  0.0285
  188SAPI   C1521586   3.088   6.783   6.113  0.3637  0.2690 -0.3521
  188SAPI    H521587   3.164   6.727   6.055 -1.2421 -0.4548 -1.7957
  188SAPI    O521588   3.008   6.846   6.009 -0.5933  0.0750 -0.7238
  188SAPI   HO521589   2.925   6.874   6.048 -0.6323 -0.4487 -0.4311
  188SAPI   C1621590   3.020   6.676   6.198  0.4537  0.5422  0.2186
  188SAPI    H621591   2.940   6.725   6.258  1.5511 -0.0993  2.2541
  188SAPI    O621592   2.953   6.586   6.111 -0.4985  0.0545  0.1930
  188SAPI   HO621593   2.904   6.525   6.166 -0.5467 -0.2856 -0.2260
  188SAPI   C1121594   3.125   6.609   6.288  0.1138 -0.1723  0.0170
  188SAPI    H121595   3.201   6.564   6.220 -0.0069  1.4406 -1.2214
  188SAPI     P21596   3.157   6.398   6.459 -0.3304 -0.0235 -0.3303
  188SAPI   O1321597   3.293   6.402   6.414 -0.2602 -0.4847  1.1245
  188SAPI   O1421598   3.085   6.267   6.470  0.2437  0.2219 -0.5437
  188SAPI   O1221599   3.064   6.506   6.369 -0.0702  0.4960  0.4238
  188SAPI   O1121600   3.148   6.465   6.602  0.0189  0.0403  0.3634
  188SAPI    C121601   3.018   6.486   6.654  0.0718 -0.7061 -0.3956
  188SAPI    HA21602   2.982   6.582   6.611  0.3282  0.2968  1.5352
  188SAPI    HB21603   2.949   6.405   6.623 -1.1892  0.6446 -1.1771
  188SAPI    C221604   3.016   6.494   6.804 -0.3707 -0.2734  0.5876
  188SAPI    HS21605   2.917   6.524   6.844 -1.5548 -0.8817 -1.7549
  188SAPI   O2121606   3.120   6.584   6.853  0.1003  0.1253 -0.2748
  188SAPI   C2121607   3.084   6.709   6.860  0.4537  0.3632  0.0704
  188SAPI   O2221608   2.973   6.746   6.825 -0.0484  0.2687  0.3023
  188SAPI   C2221609   3.196   6.791   6.917  0.2620  0.6499  0.8144
  188SAPI   H2R21610   3.266   6.726   6.975  2.0379  0.7249 -1.2101
  188SAPI   H2S21611   3.255   6.820   6.828  2.2789 -2.6500  0.9609
  188SAPI    C321612   3.047   6.349   6.863  0.1554 -0.2228  0.5321
  188SAPI    HX21613   3.145   6.308   6.833 -0.2083 -0.9476  0.3331
  188SAPI    HY21614   2.964   6.300   6.809  0.5629  0.1468 -0.4339
  188SAPI   O3121615   3.034   6.339   7.006 -0.5604  0.6606 -0.3041
  188SAPI   C3121616   3.138   6.385   7.079 -0.2499 -0.6295  0.4500
  188SAPI   O3221617   3.248   6.415   7.035  0.3691  0.3232  0.1882
  188SAPI   C3221618   3.096   6.388   7.221 -0.7821 -0.1739  0.3895
  188SAPI   H2X21619   3.100   6.285   7.262 -2.9426 -0.3237  0.2461
  188SAPI   H2Y21620   2.994   6.429   7.232 -0.4618  1.3827 -2.0345
  188SAPI   C2321621   3.155   6.905   7.007 -0.1091 -0.1299  0.3827
  188SAPI   H3R21622   3.092   6.977   6.950 -1.5037 -2.4022 -1.0095
  188SAPI   H3S21623   3.236   6.973   7.040 -0.4507  1.0471 -1.1487
  188SAPI   C2421624   3.086   6.861   7.135 -0.0682  0.0147  0.5170
  188SAPI   H4R21625   3.162   6.797   7.185  0.3686 -0.1490 -0.3299
  188SAPI   H4S21626   3.004   6.788   7.122  0.7199 -0.7869 -0.0748
  188SAPI   C2521627   3.018   6.961   7.225  0.0221 -0.4987  1.2428
  188SAPI   H5R21628   2.925   7.009   7.190 -1.1540 -1.6381  2.7408
  188SAPI   C2621629   3.058   7.000   7.343 -0.4138 -0.1459 -0.6153
  188SAPI   H6R21630   3.002   7.077   7.398 -0.0593 -0.8760  0.7805
  188SAPI   C2721631   3.183   6.966   7.416 -0.2229  0.1158  0.0023
  188SAPI   H7R21632   3.265   6.945   7.344  1.2546  1.7169  1.1677
  188SAPI   H7S21633   3.172   6.878   7.483  2.6055 -0.9001 -0.7763
  188SAPI   C2821634   3.248   7.078   7.499  0.1675 -0.0938  0.0683
  188SAPI   H8R21635   3.305   7.146   7.434 -0.2546 -1.3631 -1.6515
  188SAPI   C2921636   3.241   7.111   7.626 -0.0838  0.2575  0.2855
  188SAPI   H9R21637   3.307   7.189   7.666  1.5192 -2.0161  2.1764
  188SAPI  C21021638   3.159   7.038   7.731 -0.1644  0.0019  0.2433
  188SAPI  H10R21639   3.241   6.994   7.791  1.6637  1.9917 -0.7512
  188SAPI  H10S21640   3.109   6.946   7.693  0.6022 -0.1757 -0.3485
  188SAPI  C21121641   3.081   7.129   7.822  0.4394 -0.5363  0.0668
  188SAPI  H11R21642   3.048   7.224   7.777  2.3293  0.3366  0.4861
  188SAPI  C21221643   3.061   7.110   7.950  0.9868 -0.0148 -0.9106
  188SAPI  H12R21644   3.009   7.181   8.016  0.6197 -3.1003  2.2480
  188SAPI  C21321645   3.092   6.979   8.017  0.4927  0.0296 -0.0362
  188SAPI  H13R21646   3.139   6.905   7.949  0.7277 -1.6341  1.8705
  188SAPI  H13S21647   2.997   6.939   8.058 -0.0944  1.6224  0.2038
  188SAPI  C21421648   3.201   7.004   8.122 -0.0391 -1.1814  1.1268
  188SAPI  H14R21649   3.305   7.009   8.087 -0.5047 -0.2785 -0.1586
  188SAPI  C21521650   3.186   7.021   8.257 -0.0553 -0.2567  0.1802
  188SAPI  H15R21651   3.280   7.031   8.312  0.5712 -0.6011 -0.8163
  188SAPI  C21621652   3.066   7.026   8.341  0.6620  0.2666 -0.1059
  188SAPI  H16R21653   3.072   6.949   8.421  1.2730 -0.2512 -0.6412
  188SAPI  H16S21654   2.971   7.005   8.288  0.3848  0.3127  0.3662
  188SAPI  C21721655   3.046   7.164   8.400 -1.0017  0.4002  0.0743
  188SAPI  H17R21656   3.151   7.191   8.424 -0.8786  0.8023 -0.9274
  188SAPI  H17S21657   2.987   7.161   8.494 -0.1892  2.7577  0.7123
  188SAPI  C21821658   2.984   7.256   8.299  0.2861  0.2074  0.2732
  188SAPI  H18R21659   2.888   7.217   8.261 -0.4074 -0.9358  3.0308
  188SAPI  H18S21660   3.042   7.272   8.206 -0.9645  0.1341 -0.5203
  188SAPI  C21921661   2.960   7.397   8.359  1.0294  0.1851 -0.0908
  188SAPI  H19R21662   2.915   7.379   8.459 -2.0061  2.2129 -1.0226
  188SAPI  H19S21663   2.882   7.441   8.293 -2.4423 -3.1528  1.5937
  188SAPI  C22021664   3.080   7.484   8.379 -0.4473 -0.5366  0.3387
  188SAPI  H20R21665   3.162   7.418   8.415  0.5194  0.2758 -0.3551
  188SAPI  H20S21666   3.064   7.562   8.456  0.6634 -0.0793  0.1115
  188SAPI  H20T21667   3.130   7.516   8.284 -2.2502 -2.0190 -1.1472
  188SAPI   C3321668   3.188   6.480   7.308 -0.3681 -0.0245  0.0403
  188SAPI   H3X21669   3.176   6.589   7.287 -0.5541 -0.1928 -0.7410
  188SAPI   H3Y21670   3.296   6.454   7.298 -0.7668 -1.6320 -0.2174
  188SAPI   C3421671   3.157   6.470   7.458 -0.6533  0.0872 -0.2584
  188SAPI   H4X21672   3.172   6.364   7.487 -1.8380  0.1402  0.6362
  188SAPI   H4Y21673   3.052   6.490   7.488 -0.0175  0.4558  1.7821
  188SAPI   C3521674   3.249   6.556   7.542 -0.1604  0.0993  0.2573
  188SAPI   H5X21675   3.226   6.663   7.520 -1.9421 -0.3401 -0.0713
  188SAPI   H5Y21676   3.357   6.540   7.520 -0.7688  0.3883 -3.1888
  188SAPI   C3621677   3.228   6.527   7.692  0.0307 -0.1162 -0.0664
  188SAPI   H6X21678   3.233   6.417   7.707  2.0788  0.1072  1.1536
  188SAPI   H6Y21679   3.123   6.554   7.717  0.1978 -1.5277  2.2843
  188SAPI   C3721680   3.330   6.599   7.786  0.2149 -0.4317 -0.0042
  188SAPI   H7X21681   3.308   6.707   7.796  1.1676 -0.3799  1.7938
  188SAPI   H7Y21682   3.432   6.587   7.744  1.1521  1.0362  1.7560
  188SAPI   C3821683   3.321   6.531   7.924  0.3208  0.4531 -0.0200
  188SAPI   H8X21684   3.393   6.584   7.991 -0.6262  0.4717  1.0000
  188SAPI   H8Y21685   3.361   6.428   7.921 -0.5806  0.0963  0.1186
  188SAPI   C3921686   3.185   6.541   7.992  0.3790 -0.2590 -0.5442
  188SAPI   H9X21687   3.105   6.507   7.923 -0.1540  1.9901 -1.0656
  188SAPI   H9Y21688   3.173   6.649   8.015  1.7193 -0.9054  3.6851
  188SAPI  C31021689   3.184   6.461   8.131  0.7206  0.3860 -0.1564
  188SAPI  H10X21690   3.264   6.499   8.198 -1.1868  0.7235  1.9462
  188SAPI  H10Y21691   3.198   6.355   8.099 -0.1699  0.3340 -0.3774
  188SAPI  C31121692   3.057   6.477   8.210 -0.6444 -0.7323 -0.1262
  188SAPI  H11X21693   2.982   6.446   8.135 -0.4745  0.2566 -0.7225
  188SAPI  H11Y21694   3.027   6.582   8.233  2.2115  0.3741 -1.1820
  188SAPI  C31221695   3.054   6.393   8.343  0.5209 -0.2765 -0.4522
  188SAPI  H12X21696   3.134   6.428   8.411  1.9598  1.1240 -2.8099
  188SAPI  H12Y21697   3.069   6.283   8.332 -2.7425 -0.8588  0.2472
  188SAPI  C31321698   2.923   6.412   8.417 -0.7865 -0.6799 -0.2043
  188SAPI  H13X21699   2.922   6.350   8.509 -0.6446  1.8314  1.5174
  188SAPI  H13Y21700   2.837   6.374   8.358 -0.8638  2.4566 -2.2121
  188SAPI  C31421701   2.897   6.550   8.471 -0.1695 -0.0166  0.0987
  188SAPI  H14X21702   2.791   6.555   8.504 -0.1956  1.2222 -0.1517
  188SAPI  H14Y21703   2.905   6.627   8.392 -2.1003 -0.3934 -0.4857
  188SAPI  C31521704   2.994   6.594   8.591 -0.2340  0.2086 -0.0416
  188SAPI  H15X21705   3.095   6.568   8.552 -0.3731 -0.2526 -0.0981
  188SAPI  H15Y21706   2.981   6.533   8.683 -2.5826  1.5230  0.5275
  188SAPI  C31621707   2.993   6.740   8.633  0.6329  0.9120 -0.3676
  188SAPI  H16X21708   2.970   6.804   8.544 -1.0580  1.1294  0.2021
  188SAPI  H16Y21709   3.095   6.767   8.668  0.4226  0.5298  0.5542
  188SAPI  C31721710   2.879   6.772   8.729  0.4760  0.3439  0.6394
  188SAPI  H17X21711   2.875   6.721   8.828 -0.9087  0.0243  0.4410
  188SAPI  H17Y21712   2.783   6.746   8.678  0.3350  1.3241  0.4019
  188SAPI  C31821713   2.876   6.920   8.764  0.2503  0.5537  0.3949
  188SAPI  H18X21714   2.785   6.953   8.818 -1.1540 -0.8968 -1.0476
  188SAPI  H18Y21715   2.886   6.987   8.675  2.0759 -0.0092  0.1608
  188SAPI  H18Z21716   2.960   6.950   8.831  0.1689  0.3616  0.5820
  189POPC     N21717   2.735   0.176  11.200 -0.1154  0.3100  0.0489
  189POPC   C1221718   2.724   0.174  11.053  0.3668 -0.0417  0.1203
  189POPC  H12A21719   2.649   0.241  11.014 -0.5274 -1.1321 -0.0598
  189POPC  H12B21720   2.693   0.077  11.017 -1.4538  0.7080 -0.3718
  189POPC   C1321721   2.775   0.309  11.260  0.0180 -0.0703  0.5142
  189POPC  H13A21722   2.855   0.347  11.199 -1.0440  2.7973  0.8411
  189POPC  H13B21723   2.688   0.372  11.252  1.1743  1.6773  1.2761
  189POPC  H13C21724   2.818   0.298  11.359 -0.7454 -1.8795  0.6681
  189POPC   C1421725   2.609   0.127  11.264  0.4909  0.4756  0.2117
  189POPC  H14A21726   2.520   0.185  11.244  0.2689 -0.7345 -2.5136
  189POPC  H14B21727   2.590   0.022  11.251 -0.2965  0.1349  3.7637
  189POPC  H14C21728   2.603   0.130  11.372 -0.7942  0.4625  0.1529
  189POPC   C1521729   2.840   0.073  11.241  0.6245  0.6321  0.4924
  189POPC  H15A21730   2.861   0.072  11.346  0.1476 -1.1348  0.5855
  189POPC  H15B21731   2.933   0.107  11.198  2.4812 -1.1357  3.0162
  189POPC  H15C21732   2.806  -0.021  11.200 -1.4426  1.1265  1.0111
  189POPC   C1121733   2.852   0.209  10.967  0.8964 -0.3558 -0.4138
  189POPC  H11A21734   2.824   0.197  10.860  0.8552  1.0520 -0.5642
  189POPC  H11B21735   2.939   0.140  10.979  1.5377  0.2301 -1.5522
  189POPC     P21736   2.841   0.465  10.927 -0.2647 -0.4223  0.5175
  189POPC   O1321737   2.868   0.586  11.007  0.4510 -0.4215  0.3644
  189POPC   O1421738   2.700   0.448  10.879 -0.1749  0.1663 -0.3734
  189POPC   O1221739   2.901   0.338  11.003 -0.4561 -0.0072 -1.0820
  189POPC   O1121740   2.940   0.452  10.805  0.4730 -0.1319  0.5687
  189POPC    C121741   3.080   0.479  10.820  0.6063 -0.1401  0.1048
  189POPC    HA21742   3.130   0.379  10.821  1.6108  0.3484 -0.4793
  189POPC    HB21743   3.101   0.546  10.906  0.1046  0.2248 -0.0567
  189POPC    C221744   3.138   0.557  10.702  0.3749 -0.1684  0.8915
  189POPC    HS21745   3.083   0.653  10.695  0.4755  0.0210  2.4786
  189POPC   O2121746   3.119   0.480  10.580 -0.3316 -0.4392  0.8270
  189POPC   C2121747   3.101   0.548  10.466  0.0435 -0.0312 -0.3654
  189POPC   O2221748   3.085   0.668  10.460  0.4285  0.2373 -0.2695
  189POPC   C2221749   3.095   0.446  10.353  0.7749  0.3310 -0.7630
  189POPC   H2R21750   3.055   0.349  10.389  2.1260  0.2005  0.4329
  189POPC   H2S21751   3.196   0.418  10.316  0.4983 -0.4381 -0.9570
  189POPC    C321752   3.289   0.588  10.727  0.5738 -0.1006  0.1448
  189POPC    HX21753   3.323   0.492  10.771  2.3087  0.0964 -0.7209
  189POPC    HY21754   3.302   0.674  10.796  0.1728  0.2069 -0.1557
  189POPC   O3121755   3.364   0.612  10.601 -0.6723  0.2081  0.3661
  189POPC   C3121756   3.427   0.723  10.590 -0.1516  0.5080 -1.0179
  189POPC   O3221757   3.438   0.810  10.675 -0.0758 -0.5768 -0.6308
  189POPC   C3221758   3.500   0.732  10.452 -0.0120 -0.1949 -0.6455
  189POPC   H2X21759   3.582   0.657  10.455  3.2660  3.2003 -2.3319
  189POPC   H2Y21760   3.544   0.833  10.439  1.3926 -0.5940  0.8722
  189POPC   C2321761   3.017   0.495  10.232 -0.0196  0.1802 -0.1278
  189POPC   H3R21762   3.069   0.580  10.182 -3.5573  3.1984  1.0786
  189POPC   H3S21763   2.924   0.536  10.277 -0.0975 -1.8766  1.6660
  189POPC   C2421764   2.970   0.384  10.136 -0.0655 -0.0538 -0.3705
  189POPC   H4R21765   2.920   0.309  10.200  0.0301 -0.3979 -0.6914
  189POPC   H4S21766   3.058   0.327  10.098 -0.2096  0.3071 -1.2601
  189POPC   C2521767   2.879   0.435  10.023  0.3560 -0.3865 -0.3186
  189POPC   H5R21768   2.787   0.479  10.068 -0.6415 -0.6259 -2.1186
  189POPC   H5S21769   2.837   0.345   9.975  0.2316  0.4717 -1.8454
  189POPC   C2621770   2.932   0.558   9.949  0.2537  0.1676 -0.9422
  189POPC   H6R21771   3.030   0.529   9.907 -0.4523 -1.3702 -1.5667
  189POPC   H6S21772   2.932   0.643  10.021 -1.2990 -1.8379  1.5092
  189POPC   C2721773   2.841   0.585   9.833  0.0444 -0.6963 -0.2776
  189POPC   H7R21774   2.882   0.680   9.794 -1.5654  0.7629  1.4638
  189POPC   H7S21775   2.737   0.596   9.869 -0.9737 -1.6069 -2.8740
  189POPC   C2821776   2.824   0.469   9.743  0.3329 -0.7465 -0.0540
  189POPC   H8R21777   2.759   0.390   9.787 -0.4761 -1.0612 -1.7551
  189POPC   H8S21778   2.924   0.421   9.741  0.2181 -1.0407  0.9218
  189POPC   C2921779   2.772   0.514   9.613 -0.4116  0.1153 -0.1730
  189POPC   H9121780   2.667   0.546   9.623 -0.5570 -0.1637 -0.7369
  189POPC  C21021781   2.824   0.518   9.491  0.0381 -0.5481 -0.7521
  189POPC  H10121782   2.762   0.549   9.405  1.2772  0.8791 -1.1487
  189POPC  C21121783   2.964   0.465   9.461 -0.2262 -0.0258  0.1433
  189POPC  H11R21784   2.960   0.358   9.432 -1.5411  0.1072 -0.2008
  189POPC  H11S21785   3.032   0.460   9.548 -0.4567  1.4754  0.4292
  189POPC  C21221786   3.033   0.544   9.345 -0.3725  0.0181 -0.5563
  189POPC  H12R21787   3.141   0.521   9.353 -0.1299  0.4173 -2.4272
  189POPC  H12S21788   3.019   0.654   9.348 -0.4257  0.0390 -1.4573
  189POPC  C21321789   2.999   0.486   9.205  0.3152 -0.2233 -0.2756
  189POPC  H13R21790   2.903   0.523   9.164  1.1466  0.6682 -1.4660
  189POPC  H13S21791   3.017   0.377   9.218  4.4966  0.6579  2.4975
  189POPC  C21421792   3.102   0.532   9.107  0.4756 -0.1160 -0.1031
  189POPC  H14R21793   3.204   0.504   9.142  0.1097 -0.2426  0.8649
  189POPC  H14S21794   3.086   0.640   9.087 -1.5147 -0.5736 -1.1086
  189POPC  C21521795   3.079   0.461   8.967  0.5589 -0.5116 -0.1305
  189POPC  H15R21796   2.978   0.499   8.941 -0.3432 -0.5798  3.0649
  189POPC  H15S21797   3.079   0.350   8.975  0.3704 -0.4136  1.5122
  189POPC  C21621798   3.187   0.520   8.881  1.0417 -0.1324  0.9011
  189POPC  H16R21799   3.287   0.490   8.920  0.7032 -0.4353  1.5422
  189POPC  H16S21800   3.180   0.630   8.891 -0.4642 -0.1223 -0.1653
  189POPC  C21721801   3.174   0.479   8.732 -0.1418 -0.7421  0.4930
  189POPC  H17R21802   3.075   0.517   8.697  0.5953  0.3255 -0.4578
  189POPC  H17S21803   3.164   0.368   8.724  2.1965 -0.8375 -1.7987
  189POPC  C21821804   3.287   0.536   8.648  0.3068 -1.3834  0.1045
  189POPC  H18R21805   3.380   0.477   8.661 -1.0865 -3.7132 -0.0317
  189POPC  H18S21806   3.322   0.639   8.671  2.1352 -1.2288 -3.1860
  189POPC  H18T21807   3.261   0.532   8.540  2.6556 -2.6114 -0.4390
  189POPC   C3321808   3.409   0.701  10.330 -0.4989  0.2189  0.0182
  189POPC   H3X21809   3.324   0.773  10.332 -2.0613 -1.5757 -0.0308
  189POPC   H3Y21810   3.350   0.606  10.332  0.1183 -0.2183 -1.4078
  189POPC   C3421811   3.478   0.697  10.194  1.2988 -0.6979  0.2816
  189POPC   H4X21812   3.563   0.629  10.215  0.8797 -1.0464  0.8498
  189POPC   H4Y21813   3.513   0.797  10.161  1.5279 -0.8706 -0.0054
  189POPC   C3521814   3.377   0.660  10.079 -0.2203  0.6766 -0.3422
  189POPC   H5X21815   3.285   0.722  10.079 -0.8420 -0.2021 -3.0848
  189POPC   H5Y21816   3.344   0.558  10.110  0.7982  0.8438  1.4253
  189POPC   C3621817   3.443   0.642   9.944  0.2303  0.9201 -0.1176
  189POPC   H6X21818   3.543   0.594   9.950 -1.2022 -2.1287  0.3476
  189POPC   H6Y21819   3.457   0.740   9.893 -1.5660  0.1946 -2.0848
  189POPC   C3721820   3.365   0.560   9.832 -0.4125  0.2480 -0.7281
  189POPC   H7X21821   3.433   0.566   9.744  1.1117 -1.8861  0.2716
  189POPC   H7Y21822   3.266   0.603   9.805 -0.2443  0.8170 -0.4415
  189POPC   C3821823   3.347   0.410   9.864 -0.5673  0.0291 -0.2006
  189POPC   H8X21824   3.307   0.404   9.968 -0.6209 -0.7794 -0.2665
  189POPC   H8Y21825   3.432   0.341   9.882 -0.3783  0.4805  0.7376
  189POPC   C3921826   3.256   0.339   9.770  0.2042  0.3635  1.0110
  189POPC   H9X21827   3.154   0.383   9.766 -2.0191 -4.4087  0.5288
  189POPC   H9Y21828   3.222   0.238   9.804 -0.5374 -0.3824 -1.8255
  189POPC  C31021829   3.316   0.338   9.631 -0.1408 -0.1390 -0.4559
  189POPC  H10X21830   3.418   0.299   9.649  0.0939  1.4254  1.9894
  189POPC  H10Y21831   3.313   0.431   9.570  0.4770 -1.1682 -2.0579
  189POPC  C31121832   3.241   0.229   9.550 -0.6660 -0.3027 -0.7014
  189POPC  H11X21833   3.132   0.250   9.541 -0.4307  0.8227 -0.9341
  189POPC  H11Y21834   3.251   0.126   9.589  0.7445  0.6367  1.5110
  189POPC  C31221835   3.297   0.219   9.413  0.5475  0.2640  0.0658
  189POPC  H12X21836   3.402   0.185   9.419  0.8456  1.2238  0.4607
  189POPC  H12Y21837   3.315   0.317   9.364  0.7264 -1.1421 -2.8025
  189POPC  C31321838   3.216   0.124   9.320  0.1224  0.4044 -0.4098
  189POPC  H13X21839   3.119   0.174   9.297 -1.3796 -2.5238 -0.7642
  189POPC  H13Y21840   3.191   0.027   9.368  1.1887  0.3895  0.1199
  189POPC  C31421841   3.293   0.102   9.192  0.2714  0.2670  0.5773
  189POPC  H14X21842   3.388   0.046   9.205 -0.3415 -0.8964  0.0977
  189POPC  H14Y21843   3.327   0.201   9.154 -1.5949  0.6167 -0.2343
  189POPC  C31521844   3.211   0.024   9.086  0.0082 -1.0216  0.2644
  189POPC  H15X21845   3.120   0.088   9.076  0.0689 -1.0646 -0.6174
  189POPC  H15Y21846   3.186  -0.078   9.121  0.9368 -1.0276  0.9201
  189POPC  C31621847   3.280   0.020   8.945 -0.1562 -0.0386 -0.1471
  189POPC  H16X21848   3.278   0.122   8.901 -0.4041  0.1867  0.3769
  189POPC  H16Y21849   3.225  -0.053   8.881  1.2198 -0.3978 -0.9324
  189POPC  H16Z21850   3.384  -0.018   8.943 -0.1833 -0.2011  0.9017
  190POPC     N21851   5.120   3.594  11.396 -0.2199 -0.4117 -0.3761
  190POPC   C1221852   5.107   3.517  11.260  0.1337 -0.0761  0.0740
  190POPC  H12A21853   5.024   3.449  11.271  0.9648 -1.0265  0.5182
  190POPC  H12B21854   5.197   3.459  11.245 -0.3025 -0.7634  0.1010
  190POPC   C1321855   5.243   3.681  11.397  0.1313  0.4408  0.2167
  190POPC  H13A21856   5.270   3.728  11.491 -0.6447 -0.6089  0.9815
  190POPC  H13B21857   5.326   3.615  11.372 -0.6836 -0.6251  0.2877
  190POPC  H13C21858   5.245   3.755  11.319  1.0858 -0.5320 -0.7135
  190POPC   C1421859   5.002   3.671  11.436 -0.1641 -0.8080  0.4837
  190POPC  H14A21860   4.921   3.603  11.455 -2.1725  1.8029  1.5242
  190POPC  H14B21861   5.013   3.729  11.526  1.9933 -1.4565  0.6629
  190POPC  H14C21862   4.977   3.733  11.351  0.0815  0.3497  1.2433
  190POPC   C1521863   5.136   3.490  11.504 -0.7697  0.1338 -0.2584
  190POPC  H15A21864   5.129   3.523  11.607 -0.2881 -1.0222  0.1620
  190POPC  H15B21865   5.236   3.449  11.501 -1.4363 -1.4186 -1.9330
  190POPC  H15C21866   5.070   3.406  11.495  1.1852 -1.3789 -0.9087
  190POPC   C1121867   5.079   3.609  11.139  0.2556 -0.9442  0.0300
  190POPC  H11A21868   4.992   3.673  11.165  0.7475  0.2333 -1.2049
  190POPC  H11B21869   5.052   3.554  11.047  1.4843 -1.4175 -0.0554
  190POPC     P21870   5.295   3.664  10.999 -0.5063  0.4488  0.0832
  190POPC   O1321871   5.368   3.546  11.039 -0.1768  0.0122  0.4243
  190POPC   O1421872   5.379   3.785  10.980  0.5171  0.3797  0.3179
  190POPC   O1221873   5.195   3.696  11.116  0.4253 -0.2869  0.1667
  190POPC   O1121874   5.196   3.639  10.878 -0.4528 -0.2019 -0.2290
  190POPC    C121875   5.116   3.749  10.825 -0.2670  0.1337 -0.9163
  190POPC    HA21876   5.106   3.825  10.906  1.4799 -0.5014 -0.0937
  190POPC    HB21877   5.013   3.715  10.800  0.1515 -0.3800 -1.9671
  190POPC    C221878   5.185   3.798  10.697  0.0890  0.4172 -0.3436
  190POPC    HS21879   5.293   3.818  10.714  0.0631  0.0501  0.2622
  190POPC   O2121880   5.110   3.911  10.649  0.7859  0.2172 -0.0482
  190POPC   C2121881   5.154   4.028  10.682  0.4407  0.2075  0.1103
  190POPC   O2221882   5.244   4.057  10.760 -0.2061 -0.0235  0.1289
  190POPC   C2221883   5.079   4.130  10.599  0.4090  0.5773 -0.4401
  190POPC   H2R21884   5.083   4.228  10.652  2.1601  0.4627 -0.3332
  190POPC   H2S21885   4.971   4.102  10.594  0.5958 -1.3261  3.6423
  190POPC    C321886   5.175   3.700  10.584 -0.3494 -0.0297  0.3376
  190POPC    HX21887   5.075   3.672  10.545  0.1801 -0.2017 -0.9315
  190POPC    HY21888   5.212   3.602  10.621  1.7004  0.4938 -0.2567
  190POPC   O3121889   5.258   3.741  10.475 -0.2137  0.3086  0.1286
  190POPC   C3121890   5.383   3.697  10.488 -0.5509 -0.0876 -0.5651
  190POPC   O3221891   5.425   3.616  10.572  0.5651  0.2127  0.2349
  190POPC   C3221892   5.471   3.743  10.373  0.7635 -0.3711  0.1684
  190POPC   H2X21893   5.543   3.662  10.346 -0.7404 -1.9976  0.9315
  190POPC   H2Y21894   5.530   3.829  10.410 -1.0341  1.4062 -0.9998
  190POPC   C2321895   5.136   4.154  10.459  0.1108 -0.8411  0.5845
  190POPC   H3R21896   5.243   4.126  10.446  1.2214  1.2663  4.3245
  190POPC   H3S21897   5.132   4.263  10.435  1.1048 -1.2255 -1.4233
  190POPC   C2421898   5.059   4.072  10.352 -0.3573 -0.0194  0.1763
  190POPC   H4R21899   4.954   4.104  10.368  0.0642  1.1367  0.6416
  190POPC   H4S21900   5.064   3.962  10.370 -0.2139  0.3119  2.2897
  190POPC   C2521901   5.097   4.099  10.210  0.2150  0.3990 -0.8621
  190POPC   H5R21902   5.054   4.012  10.156  0.8987  1.0550 -2.4976
  190POPC   H5S21903   5.207   4.105  10.199  0.4464  1.8720  1.8863
  190POPC   C2621904   5.016   4.221  10.166  0.6086  0.0351  1.0063
  190POPC   H6R21905   5.002   4.291  10.251  0.9590  1.6606 -0.2327
  190POPC   H6S21906   4.915   4.177  10.151  0.0777  1.3486  0.5932
  190POPC   C2721907   5.057   4.287  10.038  0.0545 -0.1537  0.6052
  190POPC   H7R21908   5.161   4.322  10.056  0.7861 -2.0492  0.2196
  190POPC   H7S21909   4.998   4.376  10.008 -0.4577 -1.0687 -1.2034
  190POPC   C2821910   5.055   4.184   9.920  0.0257  0.4712  0.0635
  190POPC   H8R21911   4.954   4.161   9.879  1.7712 -0.9224 -3.6641
  190POPC   H8S21912   5.118   4.098   9.948 -1.0730  0.4537  2.6086
  190POPC   C2921913   5.131   4.254   9.812 -0.5311  0.3036  1.0421
  190POPC   H9121914   5.237   4.277   9.827 -0.8399  1.4666  1.4492
  190POPC  C21021915   5.086   4.287   9.690 -0.3980  0.2687  0.5929
  190POPC  H10121916   5.160   4.328   9.620 -0.4954  1.4125  1.1523
  190POPC  C21121917   4.944   4.261   9.643 -0.5975 -0.1162  0.4696
  190POPC  H11R21918   4.911   4.352   9.589  0.4540  0.3820  0.6621
  190POPC  H11S21919   4.878   4.251   9.732 -1.0256  2.6454  0.5201
  190POPC  C21221920   4.922   4.130   9.561  0.4080 -0.2932  0.8475
  190POPC  H12R21921   4.929   4.043   9.630 -0.3715  0.0596  1.3834
  190POPC  H12S21922   4.997   4.120   9.480  0.7776  0.6402  1.0622
  190POPC  C21321923   4.782   4.128   9.488 -0.5674 -0.1371  0.2401
  190POPC  H13R21924   4.790   4.212   9.416  1.4521  0.3640  0.9885
  190POPC  H13S21925   4.702   4.154   9.560 -0.0421 -0.6207  1.0154
  190POPC  C21421926   4.764   3.991   9.430  0.0786  0.2102 -0.0042
  190POPC  H14R21927   4.747   3.909   9.503 -2.1536 -0.5449 -1.2973
  190POPC  H14S21928   4.852   3.952   9.374  1.1729 -1.3093  2.6832
  190POPC  C21521929   4.640   3.986   9.346  0.5990  0.0549  1.0136
  190POPC  H15R21930   4.656   4.029   9.244  0.0258 -2.2322 -0.0628
  190POPC  H15S21931   4.554   4.039   9.393  0.1174  0.2711 -0.0716
  190POPC  C21621932   4.582   3.838   9.322  0.1728 -0.5607 -0.5081
  190POPC  H16R21933   4.521   3.801   9.407  1.8287 -0.2743  0.8466
  190POPC  H16S21934   4.673   3.774   9.315  2.4995  2.6079 -0.5128
  190POPC  C21721935   4.495   3.848   9.193  0.5849  0.2096  0.4066
  190POPC  H17R21936   4.473   3.747   9.152  0.4403  0.6140 -0.5204
  190POPC  H17S21937   4.553   3.908   9.120  0.2495 -0.0088 -0.0410
  190POPC  C21821938   4.362   3.910   9.222  0.2003 -1.1727  0.3657
  190POPC  H18R21939   4.310   3.963   9.140  1.8543  0.7116  0.5118
  190POPC  H18S21940   4.359   3.982   9.306  0.0544 -0.1982 -0.4723
  190POPC  H18T21941   4.298   3.837   9.277 -0.3676  0.1775  1.5074
  190POPC   C3321942   5.383   3.769  10.251 -0.3885  0.7904  0.1629
  190POPC   H3X21943   5.333   3.868  10.262  1.6943  1.8665  0.2077
  190POPC   H3Y21944   5.312   3.684  10.238  1.4361 -0.9973  1.5021
  190POPC   C3421945   5.459   3.790  10.125 -0.4517  0.9083  0.4593
  190POPC   H4X21946   5.490   3.693  10.080 -2.3511 -0.8701  2.8231
  190POPC   H4Y21947   5.555   3.836  10.157 -0.7565  2.4351 -0.7265
  190POPC   C3521948   5.390   3.885  10.022 -0.1154  0.8285  0.5475
  190POPC   H5X21949   5.380   3.990  10.057 -1.2197  0.7033  0.6376
  190POPC   H5Y21950   5.286   3.847  10.010 -0.1159  0.8922  0.3536
  190POPC   C3621951   5.470   3.879   9.893 -0.0929 -0.1806  0.1171
  190POPC   H6X21952   5.451   3.776   9.855 -0.8990 -0.0932  0.2757
  190POPC   H6Y21953   5.580   3.884   9.908 -0.0623 -0.6363  0.0716
  190POPC   C3721954   5.427   3.970   9.784  0.0069 -0.0808  1.0407
  190POPC   H7X21955   5.427   4.078   9.809  1.1856  0.1115  0.2699
  190POPC   H7Y21956   5.317   3.961   9.774  0.0096 -0.2816  1.1941
  190POPC   C3821957   5.491   3.949   9.650 -0.2956 -0.7379  0.3495
  190POPC   H8X21958   5.492   3.839   9.633 -0.6751 -1.2188  3.1933
  190POPC   H8Y21959   5.599   3.977   9.657 -1.2717  2.6372  3.2642
  190POPC   C3921960   5.442   4.037   9.524  0.1872 -0.6461 -0.9179
  190POPC   H9X21961   5.468   4.145   9.532 -1.6968 -0.2940  0.6390
  190POPC   H9Y21962   5.333   4.019   9.529 -0.0040  0.2005 -1.8610
  190POPC  C31021963   5.492   3.992   9.383 -0.1212 -0.1660 -0.6162
  190POPC  H10X21964   5.462   3.885   9.372 -1.8798  0.1561  0.7643
  190POPC  H10Y21965   5.603   3.994   9.390 -0.0008 -2.1930 -1.5584
  190POPC  C31121966   5.432   4.065   9.271 -0.2327 -0.6652 -0.4250
  190POPC  H11X21967   5.482   4.023   9.181  0.2727 -0.3595 -0.2858
  190POPC  H11Y21968   5.458   4.172   9.277 -0.8373 -0.6256  2.2293
  190POPC  C31221969   5.284   4.041   9.255 -0.4081 -0.6345 -0.4960
  190POPC  H12X21970   5.242   4.056   9.357  0.7187 -0.1763 -0.0969
  190POPC  H12Y21971   5.262   3.940   9.212  0.2555 -1.0597  0.1468
  190POPC  C31321972   5.220   4.161   9.179 -0.2711  0.8023  0.1102
  190POPC  H13X21973   5.270   4.175   9.080  3.6163 -0.3439  1.8267
  190POPC  H13Y21974   5.221   4.248   9.248 -0.6174  0.6365  0.3244
  190POPC  C31421975   5.071   4.131   9.155  0.6851  1.1362  0.2507
  190POPC  H14X21976   5.041   4.077   9.247 -0.5498  0.9015 -0.2734
  190POPC  H14Y21977   5.064   4.069   9.062 -0.7479  1.3233  0.2208
  190POPC  C31521978   4.980   4.247   9.125 -0.1114 -0.1145  0.2538
  190POPC  H15X21979   5.032   4.305   9.046 -0.7760 -1.4511 -1.1754
  190POPC  H15Y21980   4.984   4.312   9.215 -0.3918  0.2971 -0.0305
  190POPC  C31621981   4.837   4.203   9.077  0.5339 -0.6576  0.4101
  190POPC  H16X21982   4.770   4.291   9.082 -0.0952 -1.0803 -0.5073
  190POPC  H16Y21983   4.795   4.137   9.155  0.4540 -0.2753  0.6927
  190POPC  H16Z21984   4.838   4.168   8.972 -0.0021 -2.1805  0.8997
  191POPC     N21985   5.849   4.806   6.206 -0.0944 -0.8087  0.3343
  191POPC   C1221986   5.871   4.829   6.355 -0.3145  0.0568 -0.6993
  191POPC  H12A21987   5.920   4.922   6.378 -0.1471  0.2763 -1.9443
  191POPC  H12B21988   5.943   4.752   6.378  0.9510  1.6117  0.6261
  191POPC   C1321989   5.775   4.679   6.190  0.4483 -0.1037 -0.3775
  191POPC  H13A21990   5.672   4.699   6.218 -0.3775 -2.4335 -1.6198
  191POPC  H13B21991   5.768   4.640   6.090  0.2259 -2.4507  0.5051
  191POPC  H13C21992   5.814   4.595   6.246 -1.6863 -1.6494 -1.1149
  191POPC   C1421993   5.770   4.922   6.150 -0.5869  0.3064 -0.1423
  191POPC  H14A21994   5.673   4.932   6.196 -0.0890  3.8719  0.2667
  191POPC  H14B21995   5.824   5.015   6.160  0.5713 -0.5103  1.2248
  191POPC  H14C21996   5.760   4.911   6.043 -1.0491  1.2191 -0.2047
  191POPC   C1521997   5.976   4.788   6.138  0.8027 -0.4101  0.0546
  191POPC  H15A21998   6.021   4.886   6.145 -0.1845  0.1276 -0.9835
  191POPC  H15B21999   5.962   4.772   6.032 -2.9612  0.0466  0.4212
  191POPC  H15C22000   6.026   4.703   6.183  1.4412 -0.2290 -0.3204
  191POPC   C1122001   5.759   4.809   6.462  0.0308  0.4106 -0.0723
  191POPC  H11A22002   5.807   4.821   6.561 -0.7473  0.0358  0.3521
  191POPC  H11B22003   5.710   4.710   6.450  2.3568 -1.0472  2.0167
  191POPC     P22004   5.692   5.058   6.505 -0.2918 -0.0230  0.4724
  191POPC   O1322005   5.568   5.141   6.505 -0.0554 -0.1564 -0.0985
  191POPC   O1422006   5.812   5.123   6.438 -0.0892 -0.3266 -0.5050
  191POPC   O1222007   5.663   4.913   6.446  0.3310  0.1497 -0.0225
  191POPC   O1122008   5.713   5.013   6.655  0.2674  0.2899 -0.3459
  191POPC    C122009   5.649   5.072   6.764 -0.1216  0.4424  0.2916
  191POPC    HA22010   5.655   5.183   6.766 -0.2325  0.4504  0.1855
  191POPC    HB22011   5.710   5.054   6.854  0.6361 -0.1631 -0.3371
  191POPC    C222012   5.501   5.023   6.784 -0.5102 -0.8152 -0.0318
  191POPC    HS22013   5.427   5.073   6.718 -0.4022 -1.6357 -0.7832
  191POPC   O2122014   5.457   5.034   6.927  0.2303 -0.5211  0.5357
  191POPC   C2122015   5.449   5.162   6.972  0.4322  0.1581  0.2915
  191POPC   O2222016   5.474   5.258   6.902  0.9792 -0.1291  0.1670
  191POPC   C2222017   5.390   5.164   7.119  0.0347  0.0360 -0.0270
  191POPC   H2R22018   5.374   5.058   7.149  0.4848 -0.2250 -0.6975
  191POPC   H2S22019   5.290   5.211   7.122  0.5353  1.1763 -0.8673
  191POPC    C322020   5.482   4.873   6.762  0.1359  0.3933 -0.6103
  191POPC    HX22021   5.498   4.859   6.653 -0.3198  2.0039 -0.9013
  191POPC    HY22022   5.376   4.851   6.789  1.6181 -2.0863  3.5599
  191POPC   O3122023   5.567   4.797   6.847 -0.0240 -0.0636  0.0964
  191POPC   C3122024   5.579   4.667   6.810  0.2757  0.0136  0.1555
  191POPC   O3222025   5.510   4.612   6.722  0.3694 -1.1200  0.3957
  191POPC   C3222026   5.657   4.587   6.909 -0.5338  0.2746  0.0793
  191POPC   H2X22027   5.756   4.635   6.928 -0.6189  0.4545  0.0677
  191POPC   H2Y22028   5.687   4.485   6.877  1.0363  0.0767  2.0486
  191POPC   C2322029   5.486   5.229   7.216  0.7076 -0.1669 -0.1326
  191POPC   H3R22030   5.424   5.264   7.301  0.8135  0.9895 -0.5335
  191POPC   H3S22031   5.535   5.318   7.172  2.2856 -0.7378  0.3869
  191POPC   C2422032   5.591   5.127   7.259 -0.1520 -0.8065  0.2276
  191POPC   H4R22033   5.668   5.181   7.318 -0.8933 -0.2220  0.6841
  191POPC   H4S22034   5.637   5.071   7.175  0.0024  0.6332 -0.6516
  191POPC   C2522035   5.543   5.025   7.362  0.2243  0.1972  0.0939
  191POPC   H5R22036   5.620   4.947   7.376 -1.4562 -1.5449 -0.0577
  191POPC   H5S22037   5.465   4.961   7.315 -0.4827  1.4056 -0.4123
  191POPC   C2622038   5.497   5.079   7.497  0.4998  0.1416 -0.1820
  191POPC   H6R22039   5.391   5.113   7.498  0.2281 -0.6904  2.6302
  191POPC   H6S22040   5.565   5.159   7.534  1.9997 -2.0534  2.0126
  191POPC   C2722041   5.491   4.957   7.595  0.0160 -0.3411  0.4224
  191POPC   H7R22042   5.584   4.898   7.584  1.9087  2.1902  2.3513
  191POPC   H7S22043   5.406   4.892   7.565  0.7478 -1.1068 -0.0226
  191POPC   C2822044   5.474   4.986   7.745  0.3651 -0.1877  0.2100
  191POPC   H8R22045   5.382   5.048   7.756  2.2695  3.3255 -2.6557
  191POPC   H8S22046   5.558   5.050   7.780  0.2336  1.0547 -1.6868
  191POPC   C2922047   5.472   4.850   7.824 -0.2539 -0.9768 -0.1482
  191POPC   H9122048   5.427   4.765   7.770  0.3534 -1.6144  0.3462
  191POPC  C21022049   5.526   4.826   7.940  0.5183 -0.0214  0.1354
  191POPC  H10122050   5.518   4.720   7.968 -0.3669  0.2111  0.7888
  191POPC  C21122051   5.595   4.929   8.037 -0.7472 -0.1713  0.1266
  191POPC  H11R22052   5.579   5.035   8.009 -0.8127 -1.0309 -3.3291
  191POPC  H11S22053   5.704   4.918   8.020 -0.8696  2.1136 -2.3986
  191POPC  C21222054   5.557   4.895   8.181  0.0528 -0.1273  0.2379
  191POPC  H12R22055   5.628   4.941   8.252 -0.1581  2.7826 -1.3446
  191POPC  H12S22056   5.585   4.787   8.189 -1.6561 -0.6126 -0.1637
  191POPC  C21322057   5.415   4.936   8.222 -0.1080 -0.6571 -0.2279
  191POPC  H13R22058   5.340   4.882   8.161  0.8641  1.0611 -3.0131
  191POPC  H13S22059   5.402   5.046   8.216 -0.2390 -0.5144  1.9418
  191POPC  C21422060   5.389   4.892   8.364 -0.6316 -0.3423 -0.1414
  191POPC  H14R22061   5.469   4.923   8.434 -0.1368  1.5767 -1.5069
  191POPC  H14S22062   5.392   4.782   8.354  0.4257 -0.4445  1.1158
  191POPC  C21522063   5.253   4.936   8.413 -0.5791  0.3958 -0.0347
  191POPC  H15R22064   5.217   4.857   8.482  0.4294 -1.9604 -2.1507
  191POPC  H15S22065   5.184   4.954   8.328 -1.5469  0.9113  0.8549
  191POPC  C21622066   5.268   5.061   8.499 -0.1349 -0.0797  0.4756
  191POPC  H16R22067   5.315   5.133   8.429 -0.4135  0.7191  1.1054
  191POPC  H16S22068   5.339   5.032   8.580  0.0654  1.0620  0.7176
  191POPC  C21722069   5.133   5.126   8.557 -0.4337  0.0851 -0.0059
  191POPC  H17R22070   5.156   5.218   8.615 -1.3307  0.5156 -0.3202
  191POPC  H17S22071   5.084   5.053   8.624 -1.4882  0.9486  0.1651
  191POPC  C21822072   5.045   5.172   8.443  0.1952  1.5709  0.0864
  191POPC  H18R22073   5.097   5.233   8.367  4.1593 -0.7224  0.8289
  191POPC  H18S22074   4.966   5.242   8.479 -0.8209 -0.0540  1.0573
  191POPC  H18T22075   4.986   5.090   8.397  1.1607  0.6234  0.5068
  191POPC   C3322076   5.574   4.585   7.046 -0.4809 -0.1708 -0.2568
  191POPC   H3X22077   5.469   4.562   7.017 -0.8275  1.1476 -0.0581
  191POPC   H3Y22078   5.571   4.684   7.095 -1.2137 -0.5204  0.4101
  191POPC   C3422079   5.631   4.488   7.150 -0.0430  0.0774  0.4638
  191POPC   H4X22080   5.732   4.525   7.179 -0.8957  0.5448  2.9316
  191POPC   H4Y22081   5.646   4.388   7.105  0.4786  0.5676 -0.4634
  191POPC   C3522082   5.542   4.490   7.272 -0.1805  0.5282  0.1779
  191POPC   H5X22083   5.455   4.421   7.260 -0.0616  0.6436 -1.3930
  191POPC   H5Y22084   5.508   4.595   7.283 -0.2158  0.3429  1.9298
  191POPC   C3622085   5.617   4.460   7.398 -0.4215 -0.0738 -0.1497
  191POPC   H6X22086   5.692   4.540   7.419 -0.9897  0.5813 -0.5826
  191POPC   H6Y22087   5.676   4.368   7.379 -1.7065 -0.7254 -1.0223
  191POPC   C3722088   5.535   4.441   7.529 -0.6461  0.4367 -0.3465
  191POPC   H7X22089   5.480   4.346   7.511  1.2093 -0.4479 -1.5449
  191POPC   H7Y22090   5.451   4.514   7.532 -0.1868  1.0284 -1.5792
  191POPC   C3822091   5.613   4.450   7.652  0.1604 -0.4067 -1.0070
  191POPC   H8X22092   5.664   4.547   7.674  1.5677 -1.0922 -1.2245
  191POPC   H8Y22093   5.699   4.381   7.644  0.6494 -0.0059  0.5597
  191POPC   C3922094   5.535   4.426   7.785 -0.0675  0.3786 -0.3622
  191POPC   H9X22095   5.490   4.326   7.770  1.2553 -0.2393 -0.3235
  191POPC   H9Y22096   5.446   4.489   7.808 -0.7827 -1.4097  1.9962
  191POPC  C31022097   5.621   4.441   7.911  0.5775  0.2901  0.2604
  191POPC  H10X22098   5.655   4.546   7.915 -0.9545  0.7802  0.8135
  191POPC  H10Y22099   5.709   4.374   7.903  1.4068  1.2211  1.4227
  191POPC  C31122100   5.541   4.422   8.044  0.4172 -0.3900  0.0354
  191POPC  H11X22101   5.506   4.317   8.054 -1.4374  0.0970 -1.2076
  191POPC  H11Y22102   5.447   4.479   8.054  0.4664 -0.2749 -0.1692
  191POPC  C31222103   5.632   4.445   8.166 -0.0506 -0.2012  0.4434
  191POPC  H12X22104   5.670   4.549   8.170 -1.1104  0.2188 -0.3344
  191POPC  H12Y22105   5.721   4.379   8.155  0.0906 -0.2598  1.8423
  191POPC  C31322106   5.579   4.401   8.303  0.3251  0.0321  0.3282
  191POPC  H13X22107   5.567   4.291   8.308 -0.3432  0.0071 -1.5869
  191POPC  H13Y22108   5.477   4.445   8.307  0.0013 -0.4104 -2.1222
  191POPC  C31422109   5.677   4.460   8.411 -0.4250 -0.5263 -0.1759
  191POPC  H14X22110   5.671   4.569   8.390 -3.3387 -0.6647 -0.2764
  191POPC  H14Y22111   5.779   4.435   8.375 -0.6478  1.2392 -2.1501
  191POPC  C31522112   5.671   4.438   8.566 -0.3441  0.1212 -1.0689
  191POPC  H15X22113   5.618   4.342   8.584 -1.4886  0.7594 -1.0164
  191POPC  H15Y22114   5.618   4.516   8.625  0.7680 -0.4578  0.7487
  191POPC  C31622115   5.814   4.430   8.619  0.3412  0.4516 -0.4011
  191POPC  H16X22116   5.814   4.419   8.729  0.5689  3.8265 -0.0318
  191POPC  H16Y22117   5.869   4.524   8.601  0.3835  0.5253  0.1066
  191POPC  H16Z22118   5.869   4.346   8.571  0.0916  0.3665 -0.5413
  192POPC     N22119   4.259   0.746   5.899 -0.1358 -0.1256 -0.9086
  192POPC   C1222120   4.238   0.685   6.037 -0.2087  0.4875 -0.6069
  192POPC  H12A22121   4.326   0.627   6.062  1.0445  1.9072 -1.6673
  192POPC  H12B22122   4.150   0.622   6.033 -0.4664  0.9109 -1.7195
  192POPC   C1322123   4.366   0.854   5.907  0.5347 -0.1179  0.1685
  192POPC  H13A22124   4.331   0.934   5.972 -1.6339 -0.8199 -0.1293
  192POPC  H13B22125   4.450   0.823   5.968  1.3481  1.8500  0.0807
  192POPC  H13C22126   4.387   0.894   5.810  2.0946  2.4495  1.5054
  192POPC   C1422127   4.304   0.632   5.808  0.3371 -0.4763 -0.0549
  192POPC  H14A22128   4.224   0.567   5.776  0.9546 -1.2304 -0.0721
  192POPC  H14B22129   4.340   0.672   5.714  1.2704 -0.7886  0.1636
  192POPC  H14C22130   4.390   0.577   5.844  0.0617  0.5077  2.1613
  192POPC   C1522131   4.137   0.800   5.837 -0.1413 -0.4287 -0.3651
  192POPC  H15A22132   4.063   0.721   5.829 -0.8064  0.4509 -3.7258
  192POPC  H15B22133   4.163   0.846   5.743 -2.3517  0.7472 -0.4286
  192POPC  H15C22134   4.096   0.879   5.899 -0.0876 -0.0723 -0.7852
  192POPC   C1122135   4.228   0.786   6.150 -0.4471  1.3044 -0.3608
  192POPC  H11A22136   4.155   0.753   6.226 -0.9514 -0.8865 -1.7400
  192POPC  H11B22137   4.180   0.877   6.108 -0.9780  1.3980  0.4415
  192POPC     P22138   4.450   0.744   6.277 -0.4071 -0.0109 -0.3171
  192POPC   O1322139   4.582   0.766   6.217 -0.4376  0.1805 -0.3426
  192POPC   O1422140   4.399   0.611   6.298 -0.5602  0.3169 -0.3907
  192POPC   O1222141   4.358   0.831   6.192  0.3370  0.1397  0.8307
  192POPC   O1122142   4.444   0.816   6.412 -0.0203  0.0749  0.0490
  192POPC    C122143   4.468   0.958   6.429  0.0920 -0.3503 -0.6163
  192POPC    HA22144   4.448   1.009   6.333 -0.3901  0.4917 -0.0805
  192POPC    HB22145   4.569   0.980   6.469  0.1568 -0.8199 -0.5261
  192POPC    C222146   4.360   1.019   6.533  0.3859  1.0131  0.7886
  192POPC    HS22147   4.376   1.128   6.536  1.9892  0.7946  0.2929
  192POPC   O2122148   4.365   0.966   6.668 -0.3035  0.1432 -0.3328
  192POPC   C2122149   4.468   0.976   6.738  0.2998  0.1911 -0.2227
  192POPC   O2222150   4.573   1.024   6.701 -0.2782 -0.3254  0.3505
  192POPC   C2222151   4.449   0.918   6.877 -0.0849 -0.0269  0.1247
  192POPC   H2R22152   4.450   0.807   6.888 -0.4139  0.1061  1.5874
  192POPC   H2S22153   4.343   0.944   6.897 -0.9204 -2.9944 -0.1867
  192POPC    C322154   4.216   0.990   6.479  0.2695  0.5015  0.0492
  192POPC    HX22155   4.214   0.879   6.472 -0.9513  0.4796  0.6020
  192POPC    HY22156   4.203   1.038   6.380  2.0050 -0.4299 -0.6640
  192POPC   O3122157   4.114   1.042   6.568  0.2239 -0.1753  0.0796
  192POPC   C3122158   3.991   1.016   6.549  0.5217 -0.1865  0.0985
  192POPC   O3222159   3.940   0.939   6.473 -0.0890 -0.0593 -0.7029
  192POPC   C3222160   3.916   1.104   6.656  0.2136 -0.4841 -0.2074
  192POPC   H2X22161   3.812   1.107   6.618 -0.1040 -0.6432  0.6465
  192POPC   H2Y22162   3.953   1.208   6.643  1.1315 -0.4660  2.3013
  192POPC   C2322163   4.540   0.972   6.992  0.1740  0.4860  0.9172
  192POPC   H3R22164   4.524   1.082   7.003  0.9780  0.8972 -1.6229
  192POPC   H3S22165   4.645   0.962   6.955 -0.3762 -0.4172 -0.4653
  192POPC   C2422166   4.520   0.907   7.123  0.4207  0.7650 -0.3121
  192POPC   H4R22167   4.542   0.798   7.123 -1.2523  0.3984  1.0796
  192POPC   H4S22168   4.418   0.930   7.160  1.7027  2.0446  2.5844
  192POPC   C2522169   4.600   0.983   7.231 -0.1175 -0.4128  0.4495
  192POPC   H5R22170   4.550   1.081   7.248  1.3032  0.2267  0.9549
  192POPC   H5S22171   4.701   1.005   7.192  0.6986 -2.7664  1.1558
  192POPC   C2622172   4.620   0.908   7.364  0.0519  0.5852  0.6584
  192POPC   H6R22173   4.686   0.961   7.436  2.4960 -1.5593  0.0682
  192POPC   H6S22174   4.664   0.810   7.337  0.1633  0.1787  2.2705
  192POPC   C2722175   4.487   0.879   7.435  0.6436  0.6315 -0.0299
  192POPC   H7R22176   4.433   0.808   7.368  0.3462 -1.1835  2.0985
  192POPC   H7S22177   4.429   0.972   7.452 -2.1358 -0.4570 -2.9593
  192POPC   C2822178   4.508   0.804   7.563 -0.1798  0.3156  0.3358
  192POPC   H8R22179   4.584   0.729   7.533  0.0079  1.2883 -1.7314
  192POPC   H8S22180   4.415   0.750   7.592 -0.6627  2.0581  2.1671
  192POPC   C2922181   4.563   0.891   7.670 -0.0643  0.0725 -0.3480
  192POPC   H9122182   4.615   0.980   7.634  2.5359 -0.7781  1.1385
  192POPC  C21022183   4.546   0.873   7.803  0.0756 -0.5043 -0.1905
  192POPC  H10122184   4.591   0.941   7.877  0.8434 -1.5594  0.3207
  192POPC  C21122185   4.463   0.764   7.873 -0.7108  0.4018 -0.1269
  192POPC  H11R22186   4.535   0.706   7.936 -0.9551  1.1301  0.8313
  192POPC  H11S22187   4.421   0.695   7.797  1.0020 -1.8129  0.8691
  192POPC  C21222188   4.350   0.807   7.974  0.0608 -0.3851 -1.0071
  192POPC  H12R22189   4.281   0.877   7.923 -0.3939  1.3011  1.8142
  192POPC  H12S22190   4.398   0.869   8.053  0.7896  0.5726 -2.1987
  192POPC  C21322191   4.292   0.675   8.034 -0.7326 -0.6096  0.2492
  192POPC  H13R22192   4.385   0.629   8.072  0.7333  0.0860 -2.3749
  192POPC  H13S22193   4.244   0.608   7.959  0.1180 -1.3317  0.3473
  192POPC  C21422194   4.197   0.683   8.152 -0.2762 -0.7344 -0.1629
  192POPC  H14R22195   4.260   0.725   8.234  0.2660  0.5849 -1.2361
  192POPC  H14S22196   4.178   0.577   8.179  0.6294 -1.1745 -1.2204
  192POPC  C21522197   4.074   0.772   8.131 -0.8367  0.7214  0.5621
  192POPC  H15R22198   4.013   0.722   8.053  0.7382  0.2077 -0.3676
  192POPC  H15S22199   4.115   0.867   8.091  2.8518 -0.7747  0.5808
  192POPC  C21622200   3.999   0.793   8.260 -0.6163  0.0391  0.3478
  192POPC  H16R22201   3.908   0.851   8.234  0.7204  1.3698 -1.4309
  192POPC  H16S22202   4.057   0.853   8.333 -0.6571 -2.8426  2.8624
  192POPC  C21722203   3.961   0.664   8.340 -0.2710  0.0106  0.1160
  192POPC  H17R22204   4.057   0.620   8.372  0.7374  0.5030 -2.1208
  192POPC  H17S22205   3.912   0.595   8.268 -0.9600 -0.3042  0.8720
  192POPC  C21822206   3.863   0.693   8.456 -0.9920  0.0955  0.2668
  192POPC  H18R22207   3.773   0.730   8.403  0.6365  0.9832 -1.9405
  192POPC  H18S22208   3.903   0.768   8.527  0.6425  0.3228 -0.8704
  192POPC  H18T22209   3.835   0.603   8.515 -1.8630  1.5420  2.1130
  192POPC   C3322210   3.916   1.050   6.801  0.1737  0.1067 -0.7508
  192POPC   H3X22211   3.881   0.945   6.812 -0.4686  0.3580 -0.3542
  192POPC   H3Y22212   3.841   1.114   6.854 -0.7526 -1.5677  0.0062
  192POPC   C3422213   4.050   1.077   6.883 -0.4368  0.1178  0.4871
  192POPC   H4X22214   4.062   1.187   6.885 -1.2678  0.2558 -1.2663
  192POPC   H4Y22215   4.134   1.038   6.822 -0.9263  1.4406 -1.0516
  192POPC   C3522216   4.051   1.018   7.024 -0.0359 -0.5044  0.2550
  192POPC   H5X22217   4.147   1.032   7.078  0.8584  0.3506 -1.5398
  192POPC   H5Y22218   4.049   0.907   7.022 -0.3175 -0.4995  0.1937
  192POPC   C3622219   3.934   1.059   7.110 -1.0916  0.2626  0.2942
  192POPC   H6X22220   3.838   1.015   7.075 -0.6513 -1.3960  1.1297
  192POPC   H6Y22221   3.923   1.169   7.119  3.5379  0.8827 -0.3570
  192POPC   C3722222   3.956   1.006   7.248 -0.2532  0.5356 -0.0645
  192POPC   H7X22223   4.047   1.055   7.289  0.2990 -0.8115  0.3696
  192POPC   H7Y22224   3.980   0.898   7.240  3.4011  1.2462  0.3129
  192POPC   C3822225   3.847   1.051   7.342  0.0143  0.7031 -0.0440
  192POPC   H8X22226   3.747   1.024   7.301  0.3888  0.5362 -0.8450
  192POPC   H8Y22227   3.851   1.160   7.360  1.4675  0.9275 -1.6666
  192POPC   C3922228   3.879   0.990   7.481 -0.1355  0.3279  0.5170
  192POPC   H9X22229   3.975   1.031   7.520  0.5370 -2.8816  2.3987
  192POPC   H9Y22230   3.889   0.880   7.477  1.8206  0.4428  1.6822
  192POPC  C31022231   3.782   1.033   7.601  0.6111  0.2549  0.3262
  192POPC  H10X22232   3.684   0.984   7.579 -0.1459  1.7415  0.3442
  192POPC  H10Y22233   3.758   1.141   7.597  0.1394  0.0912 -1.8733
  192POPC  C31122234   3.828   0.975   7.727  0.1071  0.1446  0.9265
  192POPC  H11X22235   3.930   1.017   7.745  1.0327 -2.5777  2.2670
  192POPC  H11Y22236   3.839   0.864   7.726 -0.3969  0.0973  0.1961
  192POPC  C31222237   3.730   1.033   7.836  0.3237  0.2783 -0.1245
  192POPC  H12X22238   3.626   0.999   7.817  0.4112  0.1135 -0.3042
  192POPC  H12Y22239   3.744   1.142   7.822  2.1311 -0.2466 -2.7192
  192POPC  C31322240   3.758   0.986   7.976  0.3599 -0.1874  0.1214
  192POPC  H13X22241   3.864   0.997   8.009  0.4723 -1.6502  0.3113
  192POPC  H13Y22242   3.752   0.875   7.982  0.3059 -0.3939 -3.0063
  192POPC  C31422243   3.666   1.040   8.091 -0.0452 -0.3319  0.0462
  192POPC  H14X22244   3.704   0.991   8.183  0.3729  1.8163  1.0508
  192POPC  H14Y22245   3.558   1.015   8.077  0.4363 -1.7380 -1.3267
  192POPC  C31522246   3.684   1.192   8.115  0.5067  0.4228 -0.0421
  192POPC  H15X22247   3.616   1.254   8.053  1.9465  1.7770 -0.2854
  192POPC  H15Y22248   3.788   1.217   8.085  0.4254  0.8880  0.0713
  192POPC  C31622249   3.663   1.214   8.267 -0.1270  0.0651  0.2417
  192POPC  H16X22250   3.694   1.318   8.290 -1.1938  0.2272  0.9370
  192POPC  H16Y22251   3.724   1.145   8.329 -0.0400  0.8410  1.0277
  192POPC  H16Z22252   3.556   1.209   8.295  0.1147  0.1808  1.2033
  193SOD    SOD22253   4.080   0.442   1.344  0.3791  0.2184 -0.1246
  194SOD    SOD22254   5.275   5.424   2.737  0.4865  0.2024 -0.0660
  195SOD    SOD22255   6.055   2.159  14.268 -0.3701 -0.3387  0.0654
  196SOD    SOD22256   1.801   0.949   3.141  0.2096 -0.0951 -0.0470
  197SOD    SOD22257   3.057   4.545   1.403 -0.0139  0.4053  0.3540
  198SOD    SOD22258   1.314   1.325  16.821  0.1359  0.0877 -0.3866
  199SOD    SOD22259   4.300   4.373   5.530 -0.4870 -0.5487  0.3263
  200SOD    SOD22260   5.116   0.254  13.019 -0.0600 -0.0034  0.0477
  201SOD    SOD22261   1.351   4.786  14.259 -0.2288 -0.0256  0.0068
  202SOD    SOD22262   1.236   3.687  11.385 -0.3227  0.3483 -0.0938
  203SOD    SOD22263   2.602   3.882   6.118  0.1069  0.6604 -0.2416
  204SOD    SOD22264   1.194   0.105   1.228  0.4903  0.0194  0.0481
  205SOD    SOD22265   5.025   0.438  10.387 -0.1693  0.1529  0.0203
  206SOD    SOD22266   3.819   3.848   6.593  0.0682 -0.1765  0.3913
  207SOD    SOD22267   2.483   2.081   4.541  0.7186 -0.2476 -0.0849
  208SOD    SOD22268   5.041   0.523   4.640 -0.1734 -0.2419  0.0806
  209SOD    SOD22269   2.804   1.417  12.732 -0.2553  0.1803  0.3606
  210SOD    SOD22270   4.732   1.284  10.788 -0.0111 -0.2169 -0.4236
  211SOD    SOD22271   6.349   0.756   0.859  0.2814 -0.1488 -0.0019
  212SOD    SOD22272   4.052   4.792  14.105 -0.3339  0.1280  0.1852
  213SOD    SOD22273   1.254   4.772   0.118 -0.0255  0.2669  0.6118
  214SOD    SOD22274   2.923   1.508   5.551 -0.8089  0.1298 -0.3002
  215SOD    SOD22275   4.089   3.375   3.109 -0.0627 -0.8056 -0.3416
  216SOD    SOD22276   6.186   1.436   3.375 -0.8353  0.0220 -0.3687
  217SOD    SOD22277   1.141   0.586  14.974 -0.5723 -0.6803 -0.2877
  218SOD    SOD22278   0.828   2.012  12.548 -0.4255 -0.3094 -0.1504
  219SOD    SOD22279   5.811   4.124  16.184  0.3281  0.3821 -0.0618
  220SOD    SOD22280   2.774   5.258   0.332 -0.3869 -0.4032  0.0817
  221SOD    SOD22281   4.273   2.525  12.146 -0.4846  0.3820  0.0342
  222SOD    SOD22282   6.716   2.891  12.593 -0.1553 -0.0532  0.0421
  223SOD    SOD22283   1.394   5.602   4.258  0.5288 -0.0221 -0.2422
  224SOD    SOD22284   2.862   4.908  12.797  0.3703  0.1929  0.1626
  225SOD    SOD22285   5.091   5.980  14.877  0.3767  0.4427  0.5196
  226SOD    SOD22286   1.361   3.426   2.748 -0.0361 -0.2919 -0.0834
  227SOD    SOD22287   5.707   1.941   4.929 -0.0539 -0.0798 -0.0342
  228SOD    SOD22288   2.527   5.564  13.104 -0.1326 -0.1436  0.6253
  229SOD    SOD22289   5.472   1.423  16.061  0.4717  0.2925  0.4424
  230SOD    SOD22290   4.343   1.537   5.859 -0.1409  0.1996  0.1907
  231SOD    SOD22291   4.573   5.465   0.559  0.0024 -0.0318 -0.5403
  232SOD    SOD22292   3.572   3.557  11.128  0.2602 -0.4018 -0.1476
  233SOD    SOD22293   6.134   5.136  15.102 -0.5943 -0.2469 -0.3742
  234SOD    SOD22294   1.350   4.078  10.708  0.1440  0.3160 -0.1155
  235SOD    SOD22295   5.544   0.249   0.643 -0.6701  0.4706 -0.9145
  236SOD    SOD22296   0.346   1.264  15.739 -0.2611 -0.0646  0.1559
  237SOD    SOD22297   0.144   0.039   0.649 -0.0990 -0.0697  0.0051
  238SOD    SOD22298   1.980   4.331   0.073  0.6734  0.0891 -0.7618
  239SOD    SOD22299   3.108   3.071   2.744 -0.2025  0.1446 -0.0935
  240SOD    SOD22300   1.382   3.219   3.783  0.0941  0.0477 -0.3476
  241SOD    SOD22301   3.250   4.488  12.668 -0.4429  0.0381  0.1046
  242SOD    SOD22302   1.203   3.409   4.860 -0.1521  0.1302 -0.1832
  243SOD    SOD22303   6.556   4.218   1.108  0.3993 -0.8331  0.0148
  244SOD    SOD22304   3.145   0.225   5.902  0.1048  0.3175 -0.3784
  245SOD    SOD22305   2.539   6.172  10.838  0.6631  0.0939  0.4983
  246SOD    SOD22306   5.874   6.395  16.400  0.1958  0.0833  0.0270
  247SOD    SOD22307   3.679   2.659   1.670  0.2218 -0.4512  0.2105
  248SOD    SOD22308   0.917   2.454   3.568  0.0694  0.3162 -0.1541
  249SOD    SOD22309   2.580   3.128   3.644  0.0844 -0.2293 -0.2750
  250SOD    SOD22310   5.703   3.111   6.229  0.0235  0.0340  0.6356
  251SOD    SOD22311   3.662   4.499  16.003 -0.5841  0.4811  0.1357
  252SOD    SOD22312   1.758   1.110   1.702 -0.0778 -0.0360  0.0101
  253SOD    SOD22313   5.651   5.014  10.705 -0.2753  0.2947 -0.2225
  254SOD    SOD22314   6.407   1.640   0.424  0.2636  0.1687 -0.4658
  255SOD    SOD22315   2.895   6.678  12.516 -0.0047 -0.2827 -0.1814
  256SOD    SOD22316   0.177   6.768   6.383 -0.4750  0.2411 -0.3216
  257SOD    SOD22317   4.476   0.427  15.053  0.3721 -0.1062 -0.3194
  258SOD    SOD22318   6.227   6.594  11.612 -0.1205  0.1090 -0.1881
  259SOD    SOD22319   1.455   2.381  14.592  0.0217  0.5190  0.4508
  260SOD    SOD22320   0.842   6.677  11.253  0.0703 -0.1843  0.3032
  261SOD    SOD22321   6.121   0.211  10.652 -0.6227  0.1468 -0.2215
  262SOD    SOD22322   6.559   2.944  13.149 -0.1785  0.3683  0.1726
  263SOD    SOD22323   0.004   0.522  12.980  0.0094  0.1282  0.0122
  264SOD    SOD22324   4.836   0.802  16.326 -0.4187  0.1537 -0.3910
  265SOD    SOD22325   0.697   1.475   6.460  0.1426  0.1712  0.8334
  266SOD    SOD22326   4.658   6.038   1.444 -0.0287  0.3724  0.5316
  267SOD    SOD22327   5.651   4.140  11.021  0.1524 -0.0822 -0.2653
  268SOD    SOD22328   2.196   4.688   0.432 -0.2471  0.1497  0.1913
  269SOD    SOD22329   1.506   2.040   0.603  0.8010  0.0117  0.2748
  270CLA    CLA22330   2.998   1.462   3.757 -0.1743  0.2830 -0.2408
  271CLA    CLA22331   3.731   5.554  12.331  0.1279 -0.1552 -0.0355
  272CLA    CLA22332   1.739   0.145  14.717  0.4655  0.2261  0.0832
  273CLA    CLA22333   5.294   3.255   3.626  0.1535  0.3366 -0.0193
  274CLA    CLA22334   2.896   4.310   2.240 -0.3616 -0.1815  0.0109
  275CLA    CLA22335   2.417   1.442   3.807 -0.3164  0.2885 -0.2358
  276CLA    CLA22336   6.119   4.699  12.526  0.3920 -0.0184 -0.3692
  277CLA    CLA22337   3.088   4.771  16.323  0.0704  0.2782  0.0009
  278CLA    CLA22338   0.318   0.235   2.651  0.2508  0.0358  0.0469
  279CLA    CLA22339   4.921   3.236   1.938 -0.3182  0.3814  0.0668
  280CLA    CLA22340   2.393   2.325   2.437  0.6803  0.3212  0.1094
  281CLA    CLA22341   6.536   1.204   4.011  0.2759 -0.0954  0.1253
  282CLA    CLA22342   2.099   1.676   1.753  0.2892 -0.0280  0.1842
  283CLA    CLA22343   2.299   4.602  15.453  0.2525 -0.1970  0.2357
  284CLA    CLA22344   2.721   0.475   3.236  0.0734 -0.0621  0.1765
  285CLA    CLA22345   3.384   3.889   0.200  0.0123  0.3187  0.3842
  286CLA    CLA22346   6.326   4.325  13.454 -0.0288  0.6160 -0.5968
  287CLA    CLA22347   1.438   1.402  16.112 -0.3611  0.3974  0.0504
  288CLA    CLA22348   0.753   5.316  14.702 -0.0981  0.0644  0.1530
  289CLA    CLA22349   2.001   6.698   4.149  0.0043  0.4172 -0.1897
  290CLA    CLA22350   2.991   2.724   2.147  0.3264 -0.0377  0.0200
  291CLA    CLA22351   1.143   0.217   1.786 -0.3561  0.2507  0.1256
  292CLA    CLA22352   6.230   2.575  15.401 -0.3922  0.1010  0.0756
  293CLA    CLA22353   5.810   2.362  16.582 -0.0376  0.3057 -0.0699
  294CLA    CLA22354   3.007   6.694   1.657 -0.2593  0.3409 -0.1337
  295CLA    CLA22355   5.517   2.029  14.358  0.2396  0.1974  0.0969
  296CLA    CLA22356   6.616   5.877  16.383  0.0090 -0.0098 -0.2132
  297CLA    CLA22357   1.131   1.922  16.383  0.7189 -0.1676 -0.1632
  298CLA    CLA22358   6.091   5.770  15.031  0.1059  0.1247  0.1517
  299CLA    CLA22359   4.404   1.536  14.385 -0.1447  0.1660  0.0015
  300CLA    CLA22360   5.715   5.712  16.009  0.4492 -0.4203 -0.1241
  301CLA    CLA22361   6.119   0.746   0.713  0.6188 -0.4502 -0.3659
  302CLA    CLA22362   0.696   2.717  11.909  0.0258 -0.0828  0.2311
  303CLA    CLA22363   6.167   0.025  15.074 -0.2260  0.3205  0.0097
  304CLA    CLA22364   3.372   0.062  12.431 -0.5464 -0.0739 -0.0864
  305CLA    CLA22365   4.214   4.213   2.631 -0.1672 -0.2507 -0.5135
  306CLA    CLA22366   2.876   6.095  15.255  0.1589  0.0584  0.3762
  307CLA    CLA22367   3.015   3.465   0.707 -0.0086 -0.2747 -0.1874
  308CLA    CLA22368   0.753   3.459   3.200 -0.0781  0.0956 -0.2288
  309CLA    CLA22369   6.586   2.955  12.180 -0.2813  0.2877 -0.0891
  310CLA    CLA22370   4.243   3.474   3.910  0.2430  0.3523 -0.0096
  311CLA    CLA22371   0.866   2.440   0.291  0.1825  0.0664  0.0934
  312CLA    CLA22372   3.333   1.542   4.973  0.3023  0.1491 -0.3853
  313CLA    CLA22373   5.250   5.282  11.672 -0.2992 -0.2411 -0.1766
  314CLA    CLA22374   6.140   1.895  12.706  0.0666  0.3723 -0.1630
  315CLA    CLA22375   2.763   5.145  14.117 -0.2056 -0.1434  0.1621
  316CLA    CLA22376   3.200   4.009  14.875  0.2650  0.0526  0.1301
  317CLA    CLA22377   1.574   6.077   0.637 -0.5560  0.1507  0.3838
  318CLA    CLA22378   0.468   0.553   1.309 -0.1088  0.6175 -0.0335
  319CLA    CLA22379   1.626   5.353   0.025 -0.1590  0.4123 -0.2075
  320CLA    CLA22380   6.070   1.285   0.327 -0.4983 -0.2111 -0.4049
  321CLA    CLA22381   3.399   2.211  11.708 -0.4286  0.3420  0.5915
  322CLA    CLA22382   3.786   3.800  13.620  0.0113  0.0998  0.2938
  323TIP3   OH222383   4.038   1.213   4.252  0.2828 -0.1736 -0.3569
  323TIP3    H122384   4.016   1.154   4.179 -2.0786 -0.3477  0.4603
  323TIP3    H222385   3.974   1.283   4.246  1.5430  1.0425  0.1813
  324TIP3   OH222386   0.358   5.163  15.052 -0.5577 -0.0007 -0.0554
  324TIP3    H122387   0.370   5.135  14.961  0.3560 -2.1488  0.7074
  324TIP3    H222388   0.444   5.155  15.092 -1.3751 -1.1120  1.5531
  325TIP3   OH222389   0.801   1.542  12.527  0.2326  0.3591 -0.2161
  325TIP3    H122390   0.874   1.604  12.528  0.4232  0.1289 -0.0640
  325TIP3    H222391   0.733   1.585  12.579 -0.1098  1.0212 -1.1798
  326TIP3   OH222392   4.357   6.248   2.773  0.6193  0.5754 -0.1206
  326TIP3    H122393   4.263   6.267   2.781  0.4484 -0.6560  0.8805
  326TIP3    H222394   4.400   6.328   2.802 -0.1212  0.9083  0.0746
  327TIP3   OH222395   6.138   6.067  14.424 -0.5374 -0.0698 -0.2224
  327TIP3    H122396   6.064   6.077  14.363 -0.5629 -2.1758 -0.5741
  327TIP3    H222397   6.130   5.977  14.456  0.5317  0.4499  1.5297
  328TIP3   OH222398   5.409   6.367   2.516 -0.5983  0.8310 -0.2706
  328TIP3    H122399   5.469   6.357   2.590 -0.4735  1.4604 -0.2817
  328TIP3    H222400   5.439   6.301   2.453 -1.3516 -0.4145  0.6377
  329TIP3   OH222401   6.009   0.820   4.218  0.0612 -0.2091  0.0519
  329TIP3    H122402   6.094   0.796   4.255  0.8886  2.1810 -0.2219
  329TIP3    H222403   6.007   0.779   4.132  1.2157  0.2086 -0.1883
  330TIP3   OH222404   2.499   0.164   1.415  0.1076  0.3682  0.1642
  330TIP3    H122405   2.405   0.151   1.402 -0.0483  1.1557  0.5059
  330TIP3    H222406   2.530   0.081   1.453 -0.2620 -0.2634 -0.8875
  331TIP3   OH222407   4.569   4.490  11.887  0.3775 -0.7879 -0.0838
  331TIP3    H122408   4.524   4.551  11.829 -0.1089 -2.2261 -1.2479
  331TIP3    H222409   4.516   4.489  11.966  0.4391  0.3615 -0.0164
  332TIP3   OH222410   4.235   1.610   2.379 -0.0281  0.1010 -0.0581
  332TIP3    H122411   4.306   1.600   2.442  0.5307 -0.3104 -0.7355
  332TIP3    H222412   4.155   1.610   2.431  0.2999 -2.2533  0.5031
  333TIP3   OH222413   6.272   5.517   5.994 -0.0170 -0.4648  0.3481
  333TIP3    H122414   6.333   5.586   6.020  0.1806 -0.7233  0.5637
  333TIP3    H222415   6.251   5.471   6.075 -1.1612  0.1634  0.4155
  334TIP3   OH222416   2.168   4.965  12.993  0.0694  0.4886  0.0542
  334TIP3    H122417   2.224   5.035  12.958 -0.7263  2.0249  1.7292
  334TIP3    H222418   2.149   4.993  13.082 -1.7207 -1.0185  0.1716
  335TIP3   OH222419   3.055   5.202  14.600 -0.1481  0.4545 -0.0859
  335TIP3    H122420   3.023   5.163  14.682 -0.1233 -1.5257 -0.9736
  335TIP3    H222421   2.991   5.175  14.534  2.5978 -2.5757 -1.6770
  336TIP3   OH222422   2.919   2.118  12.540  0.0145 -0.2565 -0.0808
  336TIP3    H122423   2.954   2.033  12.567  2.2183  0.4009 -0.8489
  336TIP3    H222424   2.952   2.132  12.452 -3.7856 -0.4889 -1.6596
  337TIP3   OH222425   2.310   2.041   0.026 -0.0071  0.4936  0.0847
  337TIP3    H122426   2.329   2.010   0.114 -0.5868  1.4440  0.5448
  337TIP3    H222427   2.357   1.980  -0.031  0.0905 -0.3348  1.0312
  338TIP3   OH222428   5.636   5.710   0.314  0.3837 -0.3895  0.1305
  338TIP3    H122429   5.598   5.639   0.262  0.6020  0.6801 -1.5489
  338TIP3    H222430   5.635   5.786   0.255  1.6839  0.5812  1.3245
  339TIP3   OH222431   1.952   0.238   3.517  0.0291  0.4457 -0.3821
  339TIP3    H122432   2.031   0.269   3.473  1.5102 -1.0402  1.1186
  339TIP3    H222433   1.964   0.264   3.609 -0.7895 -0.6077  0.0308
  340TIP3   OH222434   3.933   2.423  12.864 -0.1336 -0.0923 -0.4893
  340TIP3    H122435   3.964   2.501  12.817  0.3417 -1.3051 -2.2690
  340TIP3    H222436   4.013   2.373  12.882 -0.4172 -0.0976  0.8094
  341TIP3   OH222437   6.612   6.188   4.082 -0.1706 -0.4881  0.0609
  341TIP3    H122438   6.668   6.248   4.032 -1.1983 -0.6067 -1.2507
  341TIP3    H222439   6.672   6.121   4.115  0.9772  1.1680  1.4218
  342TIP3   OH222440   3.339   3.896  12.246 -0.1134  0.3810  0.2740
  342TIP3    H122441   3.420   3.846  12.238  0.4044  1.1618  0.5252
  342TIP3    H222442   3.351   3.970  12.187 -1.0085  0.0332 -0.3515
  343TIP3   OH222443   1.534   3.948   2.788  0.0813  0.0659 -0.1541
  343TIP3    H122444   1.489   4.023   2.750  0.0170  0.2934  0.3698
  343TIP3    H222445   1.578   3.983   2.865 -1.0414 -0.6867  0.8577
  344TIP3   OH222446   3.869   3.681   4.352  0.3959  0.3937 -0.0792
  344TIP3    H122447   3.923   3.661   4.276  1.8166  2.0514  0.4577
  344TIP3    H222448   3.914   3.754   4.395 -1.1429  0.4155  1.5609
  345TIP3   OH222449   3.819   2.416   2.094  0.1544  0.2885 -0.3803
  345TIP3    H122450   3.881   2.430   2.022 -0.5717  0.3466 -1.0098
  345TIP3    H222451   3.771   2.337   2.069 -1.0642  1.1010 -0.6698
  346TIP3   OH222452   1.544   1.970   3.411  0.1982  0.4714 -0.6120
  346TIP3    H122453   1.551   1.877   3.393  0.5127  0.4520 -0.3984
  346TIP3    H222454   1.520   1.974   3.504  2.0094  0.6381 -0.1352
  347TIP3   OH222455   3.328   1.768  13.181 -0.5431  0.5450 -0.0042
  347TIP3    H122456   3.285   1.703  13.125  0.1698  0.3584 -0.3471
  347TIP3    H222457   3.410   1.727  13.207 -0.4332  1.0117  0.3999
  348TIP3   OH222458   1.775   1.818   5.511 -0.0010 -0.5672  0.2891
  348TIP3    H122459   1.763   1.797   5.419  2.0099  0.9700 -0.3587
  348TIP3    H222460   1.867   1.801   5.528  0.2324  1.5404  1.3497
  349TIP3   OH222461   1.224   3.052  11.455 -0.6456  0.0180 -0.3084
  349TIP3    H122462   1.295   3.082  11.400  0.0590 -1.4530 -0.2231
  349TIP3    H222463   1.159   3.017  11.394 -0.2505 -0.8047 -0.2643
  350TIP3   OH222464   1.067   5.302   4.232 -0.1848 -0.0726 -0.1357
  350TIP3    H122465   1.002   5.330   4.168 -0.3458  2.7484  1.1968
  350TIP3    H222466   1.015   5.268   4.305 -0.0994  0.2544  0.0757
  351TIP3   OH222467   0.055   3.948  10.702  0.0905 -0.0657 -0.1346
  351TIP3    H122468   0.106   4.025  10.680  0.3567  0.3658  1.9173
  351TIP3    H222469   0.120   3.879  10.717  0.0199  0.1736  1.2937
  352TIP3   OH222470   2.411   6.475   4.289 -0.7415  0.8844  0.1103
  352TIP3    H122471   2.413   6.495   4.195 -0.7743 -0.0340 -0.0923
  352TIP3    H222472   2.335   6.522   4.322 -0.4932  1.5471 -0.2443
  353TIP3   OH222473   5.502   2.342  14.732 -0.4554 -0.3180 -0.3139
  353TIP3    H122474   5.528   2.401  14.662 -0.3788 -0.9239 -0.7951
  353TIP3    H222475   5.428   2.386  14.775  1.0905  1.2207  0.8220
  354TIP3   OH222476   0.799   0.920   0.583 -0.8477  0.4225  0.4817
  354TIP3    H122477   0.779   0.909   0.490 -1.4473 -0.6400  0.7207
  354TIP3    H222478   0.825   1.012   0.591 -2.3566  0.9584 -0.4618
  355TIP3   OH222479   3.266   3.034   0.367 -0.2605 -0.4321 -0.0827
  355TIP3    H122480   3.307   2.958   0.406  0.1643 -0.2257 -0.1280
  355TIP3    H222481   3.173   3.025   0.388  0.1608  0.4232  2.2011
  356TIP3   OH222482   0.261   4.522  11.949 -0.3958 -0.1261  0.1346
  356TIP3    H122483   0.293   4.458  11.885 -0.5086  0.3143 -0.3686
  356TIP3    H222484   0.191   4.476  11.996  0.1945 -0.7067  0.4610
  357TIP3   OH222485   5.871   0.314  15.380  0.1337 -0.0897  0.3351
  357TIP3    H122486   5.911   0.227  15.377  0.4893  0.1041 -0.4393
  357TIP3    H222487   5.938   0.370  15.419 -0.0974 -0.1546  0.8395
  358TIP3   OH222488   4.634   2.815   6.220  0.7634 -0.4591 -0.2081
  358TIP3    H122489   4.561   2.798   6.279  0.2599 -0.0100 -0.6933
  358TIP3    H222490   4.667   2.901   6.247  1.7211 -1.0718  0.6219
  359TIP3   OH222491   5.838   4.347   3.585 -0.2865 -0.3820 -0.2639
  359TIP3    H122492   5.789   4.297   3.520 -0.9764 -0.2888  0.1742
  359TIP3    H222493   5.845   4.288   3.660  0.0545 -0.3018 -0.2330
  360TIP3   OH222494   5.727   0.542  13.672  0.5714  0.2440 -0.6983
  360TIP3    H122495   5.713   0.568  13.763  0.1771 -1.1795 -0.3349
  360TIP3    H222496   5.669   0.467  13.660  0.7440  0.3178 -2.0807
  361TIP3   OH222497   2.862   4.865  16.135  0.4016  0.3359 -0.1941
  361TIP3    H122498   2.888   4.949  16.099  0.7480  0.6767  0.8407
  361TIP3    H222499   2.912   4.856  16.216 -2.6171  1.0308  1.8638
  362TIP3   OH222500   2.916   1.935   6.511 -0.3456 -0.5710  0.2339
  362TIP3    H122501   2.903   2.029   6.512  0.9055 -0.3832  0.1147
  362TIP3    H222502   3.000   1.922   6.556 -0.4239 -1.6128  0.0993
  363TIP3   OH222503   3.872   2.547  13.124 -0.4482  0.2052  0.2792
  363TIP3    H122504   3.898   2.544  13.216 -0.0638 -0.3161  0.1582
  363TIP3    H222505   3.939   2.496  13.078 -1.5487 -0.9590 -0.0681
  364TIP3   OH222506   5.772   2.675   5.914 -0.4713  0.2733 -0.3071
  364TIP3    H122507   5.746   2.611   5.980 -1.2576  0.2011 -0.6912
  364TIP3    H222508   5.847   2.720   5.953  0.8368 -1.6761 -0.5109
  365TIP3   OH222509   5.291   5.769  14.397 -0.2268  0.0375  0.1187
  365TIP3    H122510   5.231   5.697  14.381 -0.9519  0.7839 -0.5686
  365TIP3    H222511   5.377   5.735  14.370 -0.7592 -0.1698 -1.3592
  366TIP3   OH222512   5.204   4.980   3.508 -0.2257 -0.3119  0.0648
  366TIP3    H122513   5.255   4.901   3.524  1.1509  0.4755 -0.3473
  366TIP3    H222514   5.250   5.024   3.436 -1.2458  0.6225 -0.0314
  367TIP3   OH222515   0.834   5.600   3.372 -0.4298 -0.6515 -0.1265
  367TIP3    H122516   0.780   5.673   3.401  0.1244 -0.2389 -0.1070
  367TIP3    H222517   0.894   5.639   3.308 -0.3096 -1.1440 -0.3143
  368TIP3   OH222518   2.314   2.820   5.742 -0.3108 -0.1616  0.6182
  368TIP3    H122519   2.314   2.728   5.717  1.8785  0.1657 -0.6894
  368TIP3    H222520   2.300   2.819   5.837  0.4131 -1.8718  0.7148
  369TIP3   OH222521   1.135   3.258  13.541 -0.0364  0.1562  0.2060
  369TIP3    H122522   1.088   3.175  13.537 -0.6669  0.5496 -0.6284
  369TIP3    H222523   1.215   3.243  13.491 -0.5954  0.3276 -0.7624
  370TIP3   OH222524   0.776   4.490   1.034 -0.0504  0.9343  0.0415
  370TIP3    H122525   0.863   4.451   1.026 -0.0959  0.8720 -0.1613
  370TIP3    H222526   0.716   4.417   1.023 -0.1540  1.2082 -1.3586
  371TIP3   OH222527   0.918   3.580  12.407 -0.1044  0.5236 -0.2565
  371TIP3    H122528   0.922   3.484  12.408  2.4291  0.6099  0.6370
  371TIP3    H222529   0.825   3.600  12.416 -0.7369 -1.8546 -1.1316
  372TIP3   OH222530   6.128   6.314  10.875  0.0832 -0.0907 -0.1396
  372TIP3    H122531   6.081   6.325  10.793 -1.0554 -1.5968  0.2887
  372TIP3    H222532   6.208   6.366  10.864 -0.3533  0.2324 -1.9459
  373TIP3   OH222533   4.673   2.509  12.683  0.0512  0.6732  0.0834
  373TIP3    H122534   4.605   2.473  12.741 -0.4691  0.7817 -0.4452
  373TIP3    H222535   4.661   2.461  12.601  0.1963  1.1469 -0.2170
  374TIP3   OH222536   3.336   6.652   1.574 -0.3847  0.5327 -0.0250
  374TIP3    H122537   3.344   6.558   1.560 -0.6546  0.0846  2.4676
  374TIP3    H222538   3.252   6.663   1.618  0.9463  1.5251  2.4290
  375TIP3   OH222539   3.245   3.144  11.611  0.4964 -0.2829 -0.2114
  375TIP3    H122540   3.327   3.179  11.645 -0.3356  2.3375 -0.7747
  375TIP3    H222541   3.186   3.141  11.686  1.0103 -1.9929  0.1538
  376TIP3   OH222542   0.180   3.912  13.546 -0.1820  0.3522  0.2430
  376TIP3    H122543   0.141   3.997  13.564 -0.1228  0.4915 -0.2822
  376TIP3    H222544   0.273   3.924  13.566  0.2360  1.0688 -1.9911
  377TIP3   OH222545   2.266   1.492  14.783 -0.6720 -0.3969 -1.0647
  377TIP3    H122546   2.356   1.510  14.811 -1.4172  1.9906 -0.0658
  377TIP3    H222547   2.275   1.421  14.719  1.6097 -2.2965  1.2044
  378TIP3   OH222548   1.637   1.848  11.338  0.8468  0.3160  0.0779
  378TIP3    H122549   1.732   1.853  11.347  0.8324 -0.7204  0.9425
  378TIP3    H222550   1.622   1.846  11.244  1.5042  3.3892 -0.1421
  379TIP3   OH222551   1.731   5.274   3.812 -0.0754  0.7765 -0.0811
  379TIP3    H122552   1.727   5.337   3.885  0.7092 -0.0423  0.6869
  379TIP3    H222553   1.790   5.206   3.844  0.9032  0.8080 -1.7960
  380TIP3   OH222554   4.846   6.540   0.405  0.3093  0.3206 -0.6660
  380TIP3    H122555   4.905   6.471   0.375  1.3969  0.6524  0.6510
  380TIP3    H222556   4.758   6.502   0.395  0.8065 -0.6567 -1.4454
  381TIP3   OH222557   1.154   2.540  13.074  0.3388 -1.1808  0.0056
  381TIP3    H122558   1.083   2.523  13.012  1.0642 -2.2459 -0.5623
  381TIP3    H222559   1.177   2.632  13.060  2.1751 -2.0287 -3.1306
  382TIP3   OH222560   4.883   0.263   3.384 -0.7589 -0.2290  0.4585
  382TIP3    H122561   4.945   0.249   3.312 -1.0573 -0.9569  0.3382
  382TIP3    H222562   4.817   0.194   3.373 -1.3158  0.2279  0.8814
  383TIP3   OH222563   4.968   3.244  14.395  0.4644  0.4324 -0.1476
  383TIP3    H122564   4.979   3.315  14.458 -1.0089 -0.6087  1.3186
  383TIP3    H222565   4.873   3.238  14.381  0.6646 -0.3733 -1.2737
  384TIP3   OH222566   3.552   3.811   3.437  0.1648  0.3463  0.1659
  384TIP3    H122567   3.629   3.849   3.395  1.0861 -0.8538  0.7297
  384TIP3    H222568   3.586   3.738   3.488 -1.4089 -0.4790  0.0753
  385TIP3   OH222569   2.034   1.505   3.427 -0.1848 -0.9007 -0.1608
  385TIP3    H122570   2.049   1.590   3.385  1.0955 -1.4558 -0.8606
  385TIP3    H222571   2.111   1.453   3.403 -0.5311 -1.9640  1.0160
  386TIP3   OH222572   3.077   3.563  11.947  0.0419 -0.0283 -0.7079
  386TIP3    H122573   3.076   3.642  11.893 -0.6413  0.9240  0.6779
  386TIP3    H222574   3.076   3.595  12.037  0.9729 -1.5990 -0.1106
  387TIP3   OH222575   5.512   1.460  14.266 -0.3627  0.3845  0.1613
  387TIP3    H122576   5.525   1.548  14.301  0.0654 -0.6158  2.6265
  387TIP3    H222577   5.588   1.411  14.297 -1.2773 -1.1997 -0.0846
  388TIP3   OH222578   5.246   2.312  16.176  0.0564  0.1497  0.1407
  388TIP3    H122579   5.174   2.262  16.137 -0.0080  0.6684 -0.4205
  388TIP3    H222580   5.230   2.307  16.270 -1.4953  1.3949 -0.0368
  389TIP3   OH222581   2.163   5.367  13.686 -0.0966  0.3017 -0.1561
  389TIP3    H122582   2.222   5.310  13.736 -0.5890  1.1611  1.4373
  389TIP3    H222583   2.220   5.434  13.649  0.2174 -0.1259 -0.4584
  390TIP3   OH222584   5.065   5.661  11.849  0.0368 -0.1349  0.5030
  390TIP3    H122585   5.133   5.616  11.898  0.8067 -0.4598 -0.8227
  390TIP3    H222586   4.993   5.598  11.843  1.7944 -1.9972 -2.9134
  391TIP3   OH222587   3.562   4.815   5.778 -0.0199  0.5455 -0.4214
  391TIP3    H122588   3.488   4.811   5.717 -2.1099 -0.4212  2.0650
  391TIP3    H222589   3.532   4.873   5.848  2.1225  1.2348 -0.0414
  392TIP3   OH222590   5.176   6.014   5.658 -0.0107  0.4902 -0.0407
  392TIP3    H122591   5.261   5.978   5.633  0.5443  0.6668  1.5678
  392TIP3    H222592   5.184   6.108   5.640  0.2983  0.5774  0.5398
  393TIP3   OH222593   6.212   3.287  12.440  0.2221  0.3536 -0.9072
  393TIP3    H122594   6.201   3.373  12.400  0.5324  0.0131 -1.7277
  393TIP3    H222595   6.306   3.269  12.432  0.3238  0.3657  0.1503
  394TIP3   OH222596   2.238   3.981  15.255  0.1138  0.2910 -0.2282
  394TIP3    H122597   2.289   4.053  15.219  0.9838  0.6396  1.6502
  394TIP3    H222598   2.302   3.916  15.282 -0.4788  0.1960  1.0104
  395TIP3   OH222599   2.021   1.427  11.029  0.3381 -0.0354 -0.1091
  395TIP3    H122600   2.004   1.361  10.962 -2.2337 -1.0102  1.4272
  395TIP3    H222601   1.961   1.499  11.007  0.2987  0.1124  0.4735
  396TIP3   OH222602   1.386   2.258   5.943 -0.1950  0.1675  0.3396
  396TIP3    H122603   1.295   2.285   5.957 -0.8286 -1.6596 -0.0946
  396TIP3    H222604   1.430   2.337   5.913 -1.4224  1.3086  1.4849
  397TIP3   OH222605   3.924   0.214  12.962  0.1556  0.6474  0.4789
  397TIP3    H122606   3.882   0.258  13.036  0.4879  1.1573  0.3650
  397TIP3    H222607   4.003   0.174  12.998 -0.3763 -0.2551  0.6776
  398TIP3   OH222608   0.478   3.111   5.535  0.2890 -0.4140 -0.0008
  398TIP3    H122609   0.571   3.105   5.556  0.2815 -0.1270  0.1206
  398TIP3    H222610   0.435   3.057   5.601  0.4645 -1.5465 -0.7970
  399TIP3   OH222611   1.241   2.973   4.975 -0.6529 -0.5057 -0.2455
  399TIP3    H122612   1.244   2.892   5.024  2.4706 -0.6118 -0.5360
  399TIP3    H222613   1.270   2.949   4.887 -0.7126  0.7497 -0.6222
  400TIP3   OH222614   2.187   0.857  16.970  0.3798  0.1289 -0.7689
  400TIP3    H122615   2.134   0.803  16.912  0.7236 -0.2625 -0.7172
  400TIP3    H222616   2.277   0.836  16.948  0.5172 -0.7138  0.5557
  401TIP3   OH222617   6.125   2.927  14.450  0.0391  0.1668 -0.5412
  401TIP3    H122618   6.178   2.915  14.371  0.2936 -0.5764 -0.2588
  401TIP3    H222619   6.053   2.983  14.421  0.9932  1.2332 -0.9109
  402TIP3   OH222620   1.100   6.274  12.857  0.3041 -0.7117 -0.2288
  402TIP3    H122621   1.091   6.256  12.763 -0.4387 -0.1081 -0.2815
  402TIP3    H222622   1.010   6.283  12.888  0.5273 -1.6638  0.6966
  403TIP3   OH222623   3.852   4.299  16.585 -0.3618  0.1788  0.4198
  403TIP3    H122624   3.821   4.364  16.648  0.3687 -0.6402  1.6385
  403TIP3    H222625   3.864   4.220  16.636 -0.5030 -0.7262 -0.9062
  404TIP3   OH222626   2.603   6.768   3.507  0.6179  0.1459 -0.1369
  404TIP3    H122627   2.689   6.780   3.547  0.0519  1.9182  0.5685
  404TIP3    H222628   2.581   6.676   3.526  1.8675 -0.0148  0.6130
  405TIP3   OH222629   5.330   3.244   5.902 -0.4733 -0.3008 -0.0335
  405TIP3    H122630   5.403   3.299   5.874  0.3678 -0.9947  0.7785
  405TIP3    H222631   5.256   3.304   5.907  0.5349  0.8724  1.2649
  406TIP3   OH222632   4.767   2.764  15.283  0.1090 -0.4698 -0.0040
  406TIP3    H122633   4.699   2.715  15.236  0.4497 -1.6385  0.7004
  406TIP3    H222634   4.847   2.716  15.264  0.5813  0.3416 -0.0367
  407TIP3   OH222635   1.920   0.279   3.791  0.1218 -0.8275 -0.0795
  407TIP3    H122636   1.866   0.353   3.763  1.6588  0.4565  0.3309
  407TIP3    H222637   1.888   0.257   3.878 -1.5447 -1.8359 -0.9143
  408TIP3   OH222638   0.943   5.496  14.960  0.4166  0.0887  0.2718
  408TIP3    H122639   0.957   5.478  14.867  1.0268 -0.2260  0.4234
  408TIP3    H222640   0.932   5.591  14.964 -1.0162 -0.0369 -0.2943
  409TIP3   OH222641   1.501   2.495   3.034 -0.2046 -0.3438  0.1657
  409TIP3    H122642   1.493   2.429   2.964 -2.4508  0.5881 -0.5135
  409TIP3    H222643   1.479   2.448   3.114 -2.6527 -0.2601 -0.4262
  410TIP3   OH222644   2.182   0.927   3.965  0.0110 -0.2037  0.3458
  410TIP3    H122645   2.252   0.909   4.028 -0.1619 -2.2182  0.0185
  410TIP3    H222646   2.145   0.840   3.946  0.3082  0.2897 -2.7951
  411TIP3   OH222647   1.746   5.847   5.495  0.0903 -0.0698  0.6184
  411TIP3    H122648   1.802   5.924   5.503  2.4515 -1.4926 -1.3358
  411TIP3    H222649   1.756   5.802   5.579 -1.3274  1.7158  1.7846
  412TIP3   OH222650   3.277   3.121   2.889  0.5297  0.1278 -0.4690
  412TIP3    H122651   3.290   3.049   2.951 -0.5868 -0.1875 -0.5906
  412TIP3    H222652   3.304   3.199   2.937  0.4876 -0.2186  0.1214
  413TIP3   OH222653   1.902   0.010   5.272  0.2678  0.0531 -0.1341
  413TIP3    H122654   1.889  -0.083   5.292 -0.4911 -0.2818 -2.0283
  413TIP3    H222655   1.834   0.030   5.207  0.9528  1.7173 -0.3584
  414TIP3   OH222656   1.800   5.665  12.485  0.1525 -0.4833  0.0705
  414TIP3    H122657   1.842   5.665  12.571 -1.9507 -1.1332  1.1268
  414TIP3    H222658   1.868   5.634  12.426  1.7578  0.3491  1.4174
  415TIP3   OH222659   1.945   2.131  14.826  0.5124 -0.0599 -0.3586
  415TIP3    H122660   2.038   2.155  14.820  1.5503 -2.9904  2.4882
  415TIP3    H222661   1.914   2.176  14.905  0.5316 -2.0076  0.7919
  416TIP3   OH222662   5.558   2.530  15.583  0.4802  0.1547  0.6903
  416TIP3    H122663   5.511   2.455  15.547  2.6931 -1.0296  0.2187
  416TIP3    H222664   5.564   2.512  15.676  1.3023 -0.4172  0.5268
  417TIP3   OH222665   4.354   0.337  14.544 -0.1669 -0.4758 -0.5864
  417TIP3    H122666   4.348   0.289  14.461 -1.6543  0.7572 -1.2191
  417TIP3    H222667   4.264   0.337  14.578  0.1800  0.2298  0.3435
  418TIP3   OH222668   2.301   6.486   4.636 -0.2257  0.1003 -0.7165
  418TIP3    H122669   2.268   6.546   4.703 -0.1008  0.8543 -1.3244
  418TIP3    H222670   2.292   6.535   4.554  1.3882 -0.0948 -1.0166
  419TIP3   OH222671   0.626   1.288  13.645  0.3547 -0.0391  0.2657
  419TIP3    H122672   0.677   1.287  13.726 -1.1966 -1.5694  1.2616
  419TIP3    H222673   0.579   1.204  13.645  3.6816 -2.0923 -4.4273
  420TIP3   OH222674   5.566   2.834   0.003  0.3265 -0.2479  0.2320
  420TIP3    H122675   5.649   2.823  -0.044  1.2640  0.5361  1.6673
  420TIP3    H222676   5.512   2.762  -0.027  1.1365 -0.1434 -1.5592
  421TIP3   OH222677   2.497   2.267   4.863 -0.8003  0.4872 -0.5001
  421TIP3    H122678   2.467   2.268   4.771 -0.8546 -0.8692 -0.5123
  421TIP3    H222679   2.576   2.212   4.861 -1.5212 -0.6020  0.4626
  422TIP3   OH222680   5.292   1.159   1.040  0.2212 -0.0305  0.1681
  422TIP3    H122681   5.225   1.143   1.107  0.5062  0.8052  0.6659
  422TIP3    H222682   5.364   1.201   1.088  1.2564 -1.2367 -0.2907
  423TIP3   OH222683   3.877   3.394   3.019 -0.6205  0.4434  0.3044
  423TIP3    H122684   3.792   3.417   3.057 -0.9234  0.1549 -0.1908
  423TIP3    H222685   3.862   3.395   2.925  0.0502  0.8632  0.1990
  424TIP3   OH222686   5.780   4.360  13.220 -0.5607 -0.1505  0.0611
  424TIP3    H122687   5.798   4.411  13.299 -3.1736  1.3219 -0.2486
  424TIP3    H222688   5.769   4.270  13.251 -0.7007  0.2779  1.2593
  425TIP3   OH222689   4.189   3.425   5.126 -0.3560  0.4593 -0.0883
  425TIP3    H122690   4.164   3.476   5.203 -1.3905  1.7025 -1.2343
  425TIP3    H222691   4.213   3.339   5.161 -1.1687  0.8993  1.5858
  426TIP3   OH222692   3.180   3.456  13.843 -0.3062 -0.2956 -0.3105
  426TIP3    H122693   3.255   3.503  13.881 -0.4775 -1.4616  1.4946
  426TIP3    H222694   3.108   3.473  13.903 -1.3111  0.1247 -1.6025
  427TIP3   OH222695   1.250   0.147  11.928 -0.7221  0.1872  0.3231
  427TIP3    H122696   1.241   0.233  11.888 -1.6806  0.7327  1.6886
  427TIP3    H222697   1.162   0.125  11.959 -0.1082 -0.4196  1.6961
  428TIP3   OH222698   4.239   2.428   5.081 -0.7875  0.2329 -0.2561
  428TIP3    H122699   4.227   2.499   5.019 -0.6297  1.2869  0.8949
  428TIP3    H222700   4.177   2.361   5.053  0.5287 -0.0423 -2.5736
  429TIP3   OH222701   5.936   3.057   4.885  0.1779  0.8048  0.3730
  429TIP3    H122702   5.956   3.130   4.826 -2.0075 -0.5023 -2.0887
  429TIP3    H222703   5.841   3.063   4.900 -0.2199 -2.0579 -0.6642
  430TIP3   OH222704   0.514   5.121   2.357 -0.4538  0.0662  0.5349
  430TIP3    H122705   0.599   5.148   2.324  0.0243  1.0663  2.4861
  430TIP3    H222706   0.504   5.031   2.328  0.2461  0.6759 -1.6468
  431TIP3   OH222707   4.756   4.268   2.740  0.4829  0.1529 -0.9053
  431TIP3    H122708   4.814   4.295   2.669  1.0584 -0.2257 -0.5832
  431TIP3    H222709   4.668   4.267   2.701  0.8565 -0.5290 -1.7389
  432TIP3   OH222710   0.443   3.137   2.831 -0.3081  0.1449 -0.2834
  432TIP3    H122711   0.425   3.167   2.920 -1.6071  0.7431 -0.7358
  432TIP3    H222712   0.447   3.217   2.778  0.4106 -0.2084 -0.7772
  433TIP3   OH222713   3.426   3.969   3.145 -0.0224  0.2348 -0.4685
  433TIP3    H122714   3.435   4.050   3.195 -2.4978  0.9394 -1.1077
  433TIP3    H222715   3.514   3.953   3.111  0.9353  1.5934  1.2678
  434TIP3   OH222716   6.433   0.630  13.625 -0.1142  0.0977 -0.4183
  434TIP3    H122717   6.387   0.713  13.637 -1.9975 -0.9745  0.0435
  434TIP3    H222718   6.387   0.588  13.552  0.6104 -0.6907 -0.4231
  435TIP3   OH222719   5.194   6.212   1.753  0.2178  0.1144  0.4959
  435TIP3    H122720   5.113   6.257   1.728  1.2616  2.3717  0.9866
  435TIP3    H222721   5.169   6.157   1.827 -1.3985 -1.2235 -1.0228
  436TIP3   OH222722   1.192   6.233   4.960 -0.3477 -0.0105 -0.0400
  436TIP3    H122723   1.285   6.252   4.962 -0.4159  0.3952 -0.8639
  436TIP3    H222724   1.178   6.188   4.877 -0.6817 -1.1459  0.6177
  437TIP3   OH222725   1.807   4.959  14.168  0.3589  0.3477  0.2339
  437TIP3    H122726   1.718   4.971  14.136  0.6031  0.8001 -0.2746
  437TIP3    H222727   1.851   5.042  14.151  1.0483 -0.0706 -0.0625
  438TIP3   OH222728   4.137   4.474  15.315 -0.0372  0.3720 -0.6854
  438TIP3    H122729   4.229   4.476  15.288  1.1230  0.2187  2.9375
  438TIP3    H222730   4.114   4.381  15.316  0.6821  0.1999  1.1638
  439TIP3   OH222731   4.356   3.421   1.361 -0.2496 -0.2402 -0.6682
  439TIP3    H122732   4.397   3.505   1.381 -1.3661  0.5092 -1.4435
  439TIP3    H222733   4.429   3.362   1.344  0.5843  0.1714  1.3584
  440TIP3   OH222734   6.638   0.211  14.798  0.5571 -0.4023  0.1429
  440TIP3    H122735   6.546   0.233  14.807  0.8203  0.6944  0.1943
  440TIP3    H222736   6.639   0.134  14.741 -0.2537  0.9638 -1.7647
  441TIP3   OH222737   2.032   0.177  13.759  0.0326  0.0614  0.1628
  441TIP3    H122738   1.976   0.212  13.689 -0.8473  0.0138  0.8345
  441TIP3    H222739   2.103   0.242  13.767  0.6069 -0.3612 -1.3363
  442TIP3   OH222740   5.807   5.093   3.119 -0.1408  0.0948 -0.5832
  442TIP3    H122741   5.728   5.095   3.064 -0.9393  0.5200  0.5771
  442TIP3    H222742   5.796   5.015   3.174  0.4104 -0.0304 -0.6432
  443TIP3   OH222743   0.130   0.425  12.551 -0.3467  0.1266 -0.0175
  443TIP3    H122744   0.047   0.427  12.503 -0.3908 -0.9601 -0.0141
  443TIP3    H222745   0.192   0.472  12.495 -0.3445 -1.2949 -1.2647
  444TIP3   OH222746   2.689   6.328  13.681  0.0323  0.4429  0.0985
  444TIP3    H122747   2.714   6.244  13.642  0.3659  0.4905  0.2076
  444TIP3    H222748   2.697   6.390  13.609 -3.0763 -0.0976 -0.7707
  445TIP3   OH222749   4.822   6.370  14.077  0.0226  0.1284  0.1710
  445TIP3    H122750   4.837   6.275  14.072 -1.5251 -0.1174  0.1391
  445TIP3    H222751   4.743   6.379  14.130 -0.5753  1.3477 -0.9070
  446TIP3   OH222752   5.909   3.115  13.272 -0.1662  0.2655  0.1506
  446TIP3    H122753   5.955   3.144  13.194  0.9992 -1.3951  0.1864
  446TIP3    H222754   5.975   3.066  13.322 -1.9354 -2.1528  0.2077
  447TIP3   OH222755   2.404   6.192  14.403 -0.3591  0.9703 -0.4692
  447TIP3    H122756   2.352   6.270  14.418  0.6769  1.3716  1.1797
  447TIP3    H222757   2.465   6.188  14.477  2.5195  0.9708 -2.7214
  448TIP3   OH222758   1.345   6.294   4.426  0.3240  0.5158 -0.0779
  448TIP3    H122759   1.431   6.329   4.448  0.7893 -0.9901  0.5894
  448TIP3    H222760   1.358   6.248   4.343  0.4060 -0.5388  0.5059
  449TIP3   OH222761   1.577   1.846  11.081  0.1679 -0.3161 -0.3405
  449TIP3    H122762   1.586   1.781  11.011  1.5205  0.4146 -0.8796
  449TIP3    H222763   1.495   1.891  11.061 -0.6265 -1.6638 -0.1203
  450TIP3   OH222764   2.391   6.688   2.542  0.0941  0.0070  0.3189
  450TIP3    H122765   2.366   6.648   2.625  0.4064  0.1159  0.4647
  450TIP3    H222766   2.474   6.732   2.560 -0.4255  1.0343  0.2570
  451TIP3   OH222767   6.221   6.064  13.646 -0.2574  0.2051  0.6240
  451TIP3    H122768   6.137   6.026  13.622 -0.3890  0.8641  0.0323
  451TIP3    H222769   6.268   6.074  13.563 -0.4740  1.9132  0.6943
  452TIP3   OH222770   1.197   3.782   2.869 -0.5896  0.7698 -0.6765
  452TIP3    H122771   1.253   3.829   2.931 -1.4310  1.0732 -0.1291
  452TIP3    H222772   1.257   3.736   2.811  0.2088  0.4842  0.3756
  453TIP3   OH222773   5.135   3.945   1.707 -0.1132 -0.4093  0.0086
  453TIP3    H122774   5.132   3.971   1.615  1.8099  0.4097  0.1584
  453TIP3    H222775   5.225   3.916   1.721 -0.5578 -1.1450  1.4835
  454TIP3   OH222776   4.687   4.737   4.894  0.1474 -0.3009  0.0817
  454TIP3    H122777   4.625   4.666   4.909  0.8118 -1.3248 -1.9021
  454TIP3    H222778   4.642   4.815   4.927 -1.6879 -1.2027 -0.2171
  455TIP3   OH222779   4.666   6.313   2.025  0.2738 -0.3641 -0.6037
  455TIP3    H122780   4.656   6.404   2.051  1.8726 -0.0667 -0.9967
  455TIP3    H222781   4.760   6.302   2.010  0.3259 -2.4988  1.0206
  456TIP3   OH222782   4.177   0.073  16.612  0.1115  0.2207  0.1018
  456TIP3    H122783   4.096   0.023  16.601  0.0184  0.6405 -1.2957
  456TIP3    H222784   4.147   0.162  16.633  0.2171  0.2881 -0.0341
  457TIP3   OH222785   1.885   3.981   3.882  0.2680  0.0721  0.1908
  457TIP3    H122786   1.868   3.971   3.788  0.1876  1.1739  0.0747
  457TIP3    H222787   1.968   3.936   3.897 -0.5742 -1.6086 -0.0774
  458TIP3   OH222788   3.842   5.827   5.646  0.1143 -0.4571 -0.0211
  458TIP3    H122789   3.864   5.891   5.714  1.6499 -0.9183 -0.0688
  458TIP3    H222790   3.912   5.762   5.651 -1.0239 -1.7398 -0.4811
  459TIP3   OH222791   0.844   2.490  13.178 -0.4205  0.2868  0.0597
  459TIP3    H122792   0.874   2.536  13.256 -1.1337 -0.5319  0.8203
  459TIP3    H222793   0.863   2.398  13.194 -1.5823 -0.0221 -0.2470
  460TIP3   OH222794   2.182   0.801  14.877  0.6000  0.0042 -0.0988
  460TIP3    H122795   2.191   0.822  14.970  0.5766  0.2350 -0.1478
  460TIP3    H222796   2.238   0.724  14.864 -1.1242 -1.4006  0.5774
  461TIP3   OH222797   2.052   3.240  12.987 -0.2135 -0.3220 -0.1589
  461TIP3    H122798   2.048   3.329  12.951 -0.7899 -1.1714 -2.2873
  461TIP3    H222799   1.963   3.208  12.980  0.0154 -1.1033  0.5196
  462TIP3   OH222800   5.059   2.051  11.483  0.0541  0.4116  0.1471
  462TIP3    H122801   5.122   1.990  11.520 -0.5968  0.3348  1.1676
  462TIP3    H222802   4.990   1.995  11.446  0.6709  0.4900 -1.1267
  463TIP3   OH222803   6.223   6.772   5.795 -0.8567 -0.2300  0.6479
  463TIP3    H122804   6.200   6.838   5.861 -0.5831  0.4810  0.0478
  463TIP3    H222805   6.251   6.824   5.719  1.0020 -1.0649  0.7565
  464TIP3   OH222806   0.726   0.612   4.862  0.4361 -0.3237 -0.1509
  464TIP3    H122807   0.764   0.691   4.822 -0.8660  0.4661  0.1243
  464TIP3    H222808   0.699   0.559   4.787 -0.0092  0.1568 -0.3357
  465TIP3   OH222809   2.920   1.218  13.134  0.0952  0.1745  0.8797
  465TIP3    H122810   2.835   1.216  13.178 -0.2670  1.8734  0.3009
  465TIP3    H222811   2.949   1.127  13.132 -2.5259 -0.6767 -0.4696
  466TIP3   OH222812   3.875   2.257   3.179  0.7733  0.1285  0.5659
  466TIP3    H122813   3.845   2.342   3.211 -1.0234  0.3239 -1.5454
  466TIP3    H222814   3.952   2.276   3.127 -0.4144  0.6441 -1.0259
  467TIP3   OH222815   1.849   5.314  16.281 -0.4239 -0.1096 -0.0185
  467TIP3    H122816   1.785   5.287  16.215 -2.5462  0.4108  1.7561
  467TIP3    H222817   1.829   5.406  16.297  0.7455  0.0409  0.6161
  468TIP3   OH222818   6.254   1.076   2.720 -0.1585  0.3272  0.4917
  468TIP3    H122819   6.317   1.053   2.789  3.5667  0.3436 -2.7248
  468TIP3    H222820   6.297   1.146   2.671 -3.3250  1.2708 -1.0458
  469TIP3   OH222821   0.168   3.033  13.911 -0.3486  0.1650 -0.1305
  469TIP3    H122822   0.204   3.036  13.823 -0.0056  1.3466  0.0502
  469TIP3    H222823   0.097   3.096  13.911 -1.6999 -1.3331 -0.1482
  470TIP3   OH222824   1.836   3.265  15.672 -0.2228  0.2966  0.5764
  470TIP3    H122825   1.930   3.247  15.666 -0.2509  0.7199 -1.6669
  470TIP3    H222826   1.829   3.360  15.657 -1.0761  0.1000 -0.3611
  471TIP3   OH222827   4.282   1.391   3.389  0.1762 -0.0694  0.5436
  471TIP3    H122828   4.261   1.301   3.363 -1.6700  1.0654 -2.0368
  471TIP3    H222829   4.369   1.384   3.429 -0.0362 -3.0264  0.6222
  472TIP3   OH222830   6.711   1.087  10.935  0.3623  0.4913 -0.6659
  472TIP3    H122831   6.743   1.000  10.913 -0.0642  0.6601 -2.0349
  472TIP3    H222832   6.691   1.127  10.850  1.4517  2.2667 -0.1141
  473TIP3   OH222833   2.441   1.084   6.736 -0.2653 -0.6987  0.2579
  473TIP3    H122834   2.489   1.002   6.743  0.8579 -0.0355  0.4981
  473TIP3    H222835   2.507   1.148   6.708 -1.1223  0.1198  0.0787
  474TIP3   OH222836   4.046   5.204  15.024 -0.1580 -0.2258 -0.4652
  474TIP3    H122837   4.039   5.238  14.935 -1.2040 -0.9361 -0.6674
  474TIP3    H222838   3.958   5.172  15.044 -0.2036  0.8882  1.2109
  475TIP3   OH222839   0.562   4.839  12.435  1.2090 -0.6930  0.6445
  475TIP3    H122840   0.503   4.913  12.419 -0.3729 -2.0753 -0.0212
  475TIP3    H222841   0.650   4.879  12.438  0.4867  1.0594 -0.6901
  476TIP3   OH222842   1.055   5.843   0.543  0.3862  0.5771 -0.1039
  476TIP3    H122843   1.134   5.891   0.563  1.1314 -1.4747  2.2213
  476TIP3    H222844   0.991   5.874   0.607  1.4095 -2.6514  2.6960
  477TIP3   OH222845   3.729   5.674   2.024 -0.1350 -0.5221  0.0473
  477TIP3    H122846   3.723   5.654   1.931  0.0316 -0.2059 -0.0330
  477TIP3    H222847   3.642   5.703   2.049  0.0602  0.2864 -0.2195
  478TIP3   OH222848   5.441   3.311  14.191  0.3314 -0.4031  0.2553
  478TIP3    H122849   5.494   3.253  14.136 -2.3436 -2.0218 -0.7536
  478TIP3    H222850   5.366   3.334  14.135  0.8055  3.2476  0.9946
  479TIP3   OH222851   3.189   2.686  12.165  0.2879  0.8081  0.0097
  479TIP3    H122852   3.265   2.744  12.167 -0.4001  1.7018  0.0195
  479TIP3    H222853   3.147   2.697  12.250  0.7246 -0.4659  0.4035
  480TIP3   OH222854   4.981   4.215   5.976  0.4104 -0.1897 -0.0552
  480TIP3    H122855   4.964   4.162   6.054  0.1057 -1.9293 -1.2625
  480TIP3    H222856   4.953   4.303   6.000 -3.8642 -1.5337  0.3645
  481TIP3   OH222857   6.251   3.535   1.253  0.2602  0.8535 -0.0735
  481TIP3    H122858   6.295   3.475   1.312  0.1390 -0.0549 -0.8964
  481TIP3    H222859   6.305   3.536   1.174 -0.5386  0.6409 -0.6378
  482TIP3   OH222860   4.122   6.092   3.802  0.3874  0.0490 -0.2643
  482TIP3    H122861   4.110   6.154   3.730 -1.3436 -0.6263 -0.5603
  482TIP3    H222862   4.217   6.078   3.806  0.4632 -0.2377 -2.6807
  483TIP3   OH222863   4.457   1.666  12.125  0.3612 -0.3760  0.0918
  483TIP3    H122864   4.453   1.642  12.032 -2.6302 -1.4277  0.4459
  483TIP3    H222865   4.401   1.743  12.132 -1.1290 -1.5243  1.3395
  484TIP3   OH222866   2.674   5.547   1.849  0.0586 -0.1472  0.7550
  484TIP3    H122867   2.628   5.471   1.886  1.8647 -1.1366  0.9794
  484TIP3    H222868   2.677   5.610   1.921 -2.8163  0.7928  0.1169
  485TIP3   OH222869   5.325   6.066   5.104 -0.2856 -0.5956  0.0237
  485TIP3    H122870   5.412   6.101   5.123  0.1824 -1.1132 -1.1173
  485TIP3    H222871   5.293   6.033   5.188  1.3299 -1.9863  0.1101
  486TIP3   OH222872   1.738   2.263   5.354 -0.3073 -0.0639  0.6573
  486TIP3    H122873   1.668   2.296   5.298  1.1315  0.7818 -0.7244
  486TIP3    H222874   1.739   2.323   5.429 -1.1668 -0.1845  0.7694
  487TIP3   OH222875   5.032   1.667  16.953  0.2961  0.3070  0.4147
  487TIP3    H122876   5.011   1.741  17.009 -0.1918 -0.5997  1.4576
  487TIP3    H222877   5.047   1.594  17.014 -1.3783 -0.9868 -0.6422
  488TIP3   OH222878   3.088   0.976  14.443 -0.1949 -0.6285  0.1328
  488TIP3    H122879   3.078   0.897  14.495 -1.3497 -0.4584  0.1986
  488TIP3    H222880   3.179   1.003  14.455 -0.3887 -0.7306  1.8472
  489TIP3   OH222881   3.736   2.698  11.827  0.2137 -0.4005  0.4992
  489TIP3    H122882   3.795   2.692  11.903  1.0668 -0.0523 -0.1343
  489TIP3    H222883   3.795   2.705  11.752 -0.6319 -1.7231 -0.2905
  490TIP3   OH222884   5.638   1.321   2.208 -0.0751 -0.2641  0.6151
  490TIP3    H122885   5.687   1.393   2.247  1.8162 -0.2491 -1.6908
  490TIP3    H222886   5.704   1.268   2.162 -1.4744 -3.2647  1.9114
  491TIP3   OH222887   2.339   3.398  11.478 -0.5623 -0.1896 -0.5005
  491TIP3    H122888   2.269   3.344  11.515 -1.2153  1.0336  0.0922
  491TIP3    H222889   2.405   3.336  11.448 -0.6877 -1.2633  1.3860
  492TIP3   OH222890   5.205   5.148   0.100 -0.0555 -0.5684  0.0258
  492TIP3    H122891   5.273   5.130   0.166 -0.6400 -0.9255  0.5346
  492TIP3    H222892   5.226   5.236   0.069 -0.3869  0.0336  1.4492
  493TIP3   OH222893   0.624   5.341   1.682 -0.7415 -0.1108  0.1934
  493TIP3    H122894   0.709   5.297   1.688 -0.7777 -0.3238 -0.8002
  493TIP3    H222895   0.646   5.431   1.660 -0.8914 -0.8726 -3.2352
  494TIP3   OH222896   0.224   2.950  11.605 -0.2258 -0.0476  0.0381
  494TIP3    H122897   0.133   2.976  11.589 -0.3819 -1.2043 -1.0567
  494TIP3    H222898   0.220   2.901  11.687 -0.4719  0.4980  0.3568
  495TIP3   OH222899   5.085   5.515  15.173  0.3407 -0.2063  0.0440
  495TIP3    H122900   5.110   5.607  15.187 -1.5978  0.4162 -0.4129
  495TIP3    H222901   5.094   5.475  15.259  0.4108  0.6161  0.4289
  496TIP3   OH222902   4.522   1.586   0.021  0.1948 -0.1528  0.0171
  496TIP3    H122903   4.613   1.616   0.017 -0.0196  0.4487 -0.6408
  496TIP3    H222904   4.474   1.651  -0.032 -0.7302 -0.0288  0.9943
  497TIP3   OH222905   3.116   3.369  14.383  0.3847  0.0326 -0.0999
  497TIP3    H122906   3.058   3.394  14.311  1.1610 -0.5375 -0.9411
  497TIP3    H222907   3.184   3.436  14.383  0.3772  0.0400  0.1133
  498TIP3   OH222908   4.827   5.089  11.813  0.5488  0.0085 -0.2835
  498TIP3    H122909   4.826   5.010  11.866 -0.3392 -0.3546 -0.8352
  498TIP3    H222910   4.892   5.072  11.745  0.3137 -0.2686 -0.4377
  499TIP3   OH222911   1.299   5.169  15.698 -0.2958  0.2173  0.3600
  499TIP3    H122912   1.259   5.144  15.782 -0.0723 -0.1575  0.3594
  499TIP3    H222913   1.340   5.254  15.715 -1.2247  0.6679  0.3196
  500TIP3   OH222914   0.581   1.062  12.360 -0.2057  0.0157  0.5521
  500TIP3    H122915   0.599   1.145  12.316 -0.0018 -0.3390 -0.0375
  500TIP3    H222916   0.577   1.084  12.453  0.1645  0.6317  0.4231
  501TIP3   OH222917   4.904   1.469  11.607  0.0400  0.1106  0.0987
  501TIP3    H122918   4.916   1.561  11.587 -1.3002 -0.1228 -1.9648
  501TIP3    H222919   4.932   1.460  11.698  1.5224  2.2513 -0.1200
  502TIP3   OH222920   0.146   2.975   6.556 -0.1067 -0.0132 -0.4650
  502TIP3    H122921   0.197   3.016   6.486  1.1195 -0.0510  0.3892
  502TIP3    H222922   0.200   2.903   6.586 -1.3804 -1.0471 -0.6043
  503TIP3   OH222923   6.297   4.712   1.814  0.1753  0.1824 -0.2290
  503TIP3    H122924   6.330   4.794   1.852 -0.6327  0.1428  0.5766
  503TIP3    H222925   6.206   4.706   1.845 -0.0404 -0.5844 -0.9923
  504TIP3   OH222926   5.556   1.979   4.020 -0.3041  0.1971 -0.0477
  504TIP3    H122927   5.570   2.035   4.097 -0.9166 -0.0375  0.2386
  504TIP3    H222928   5.631   1.920   4.019 -0.7981 -0.4521  0.9416
  505TIP3   OH222929   5.202   0.363   2.679 -0.1197  0.1767  0.1502
  505TIP3    H122930   5.255   0.429   2.635  0.5624 -0.4690 -0.0216
  505TIP3    H222931   5.249   0.281   2.664 -2.1960 -0.7343 -1.7325
  506TIP3   OH222932   5.784   6.270  11.856  0.0674 -0.0198  0.1595
  506TIP3    H122933   5.871   6.287  11.818  1.5881 -2.0416  2.5588
  506TIP3    H222934   5.755   6.190  11.813 -0.7110  0.7611 -0.7798
  507TIP3   OH222935   2.021   4.893  16.000 -0.1840  0.2812 -0.2045
  507TIP3    H122936   1.980   4.976  16.025 -0.4979  0.3512 -0.9524
  507TIP3    H222937   2.096   4.886  16.058 -0.8886  0.4612  0.7481
  508TIP3   OH222938   0.402   0.918  16.963  0.3500  1.0216 -0.4845
  508TIP3    H122939   0.392   0.951  17.053 -1.4694  0.4588 -0.4575
  508TIP3    H222940   0.373   0.991  16.908 -1.0807  0.4535 -0.5099
  509TIP3   OH222941   0.776   4.870   6.860  0.1060  0.9038  0.2715
  509TIP3    H122942   0.843   4.830   6.915  0.7097 -0.4321 -1.3683
  509TIP3    H222943   0.817   4.950   6.826  1.4816 -0.6615 -1.9002
  510TIP3   OH222944   1.758   4.303   0.026 -0.2220 -0.0453 -0.7056
  510TIP3    H122945   1.762   4.331  -0.066 -0.7958  0.5757 -0.5434
  510TIP3    H222946   1.703   4.225   0.024  1.8089 -1.5175 -1.2313
  511TIP3   OH222947   6.431   2.527   4.999 -0.3148  0.1337  0.5106
  511TIP3    H122948   6.434   2.593   4.930  0.5178  0.4994  0.8931
  511TIP3    H222949   6.510   2.543   5.052  0.6593 -2.0442 -0.2173
  512TIP3   OH222950   0.183   0.530   1.478  0.5231 -0.0645  0.0641
  512TIP3    H122951   0.265   0.488   1.452  2.3199  2.4025  1.4424
  512TIP3    H222952   0.211   0.613   1.517 -2.6645  0.8684  0.4762
  513TIP3   OH222953   4.971   6.198  16.259 -0.6260  0.2679 -0.0972
  513TIP3    H122954   4.947   6.107  16.277  0.2183 -0.4414 -2.3832
  513TIP3    H222955   4.947   6.245  16.339 -1.5031 -1.8700  0.9498
  514TIP3   OH222956   2.211   2.971  12.605 -0.5870  0.0703  0.4702
  514TIP3    H122957   2.175   3.057  12.628  1.2228  0.8521  0.4363
  514TIP3    H222958   2.258   2.943  12.684  2.0419  0.8489 -0.7513
  515TIP3   OH222959   0.276   5.745   5.698 -0.5206 -0.2229 -0.4458
  515TIP3    H122960   0.262   5.722   5.790 -1.2979  1.5888 -0.0897
  515TIP3    H222961   0.229   5.678   5.650 -2.2544  0.2354  0.5564
  516TIP3   OH222962   5.092   5.141   1.651  0.0919  0.0139 -0.0600
  516TIP3    H122963   5.104   5.068   1.591 -0.6550 -0.6659  0.6166
  516TIP3    H222964   5.001   5.135   1.680  0.6518 -0.1343  1.7390
  517TIP3   OH222965   3.687   2.509   4.670  0.6242  0.1565 -0.4296
  517TIP3    H122966   3.745   2.535   4.741  3.1079 -0.2849 -2.2073
  517TIP3    H222967   3.668   2.417   4.687  0.4336  0.3036  0.1689
  518TIP3   OH222968   5.302   0.973   3.126  0.2320 -0.4907  0.6277
  518TIP3    H122969   5.364   1.045   3.133  0.2157 -0.3410 -0.6366
  518TIP3    H222970   5.250   0.978   3.206 -0.5252  1.6296  0.0270
  519TIP3   OH222971   4.295   4.603   3.757 -0.1739  0.2831  0.0893
  519TIP3    H122972   4.284   4.631   3.666  3.1164 -0.2526 -0.5169
  519TIP3    H222973   4.273   4.681   3.809  0.3305  1.3386 -1.2666
  520TIP3   OH222974   2.394   6.073  16.046 -0.0908 -0.4390  0.4559
  520TIP3    H122975   2.368   6.083  15.955 -0.3727 -1.9061  0.3589
  520TIP3    H222976   2.422   6.160  16.073 -0.3845  0.0895 -0.9137
  521TIP3   OH222977   0.875   2.007   3.642 -0.7071 -0.2986  0.4512
  521TIP3    H122978   0.946   1.975   3.698 -0.0400  1.9374  0.9379
  521TIP3    H222979   0.911   2.001   3.553 -0.2665 -0.1362  0.6127
  522TIP3   OH222980   3.909   5.213   2.379 -0.4827  0.2271 -0.3713
  522TIP3    H122981   3.989   5.214   2.431  0.7989  0.2844 -2.2816
  522TIP3    H222982   3.883   5.304   2.371 -1.2577  0.1382  0.9917
  523TIP3   OH222983   2.746   1.428  12.948  0.4892  0.2070  0.6040
  523TIP3    H122984   2.694   1.371  13.005 -0.3713 -0.7116 -1.0449
  523TIP3    H222985   2.781   1.495  13.006 -1.3616 -0.0019  2.0090
  524TIP3   OH222986   2.234   5.697   1.447  0.0477  0.5737 -0.0723
  524TIP3    H122987   2.323   5.671   1.423  1.1525  4.7296 -0.8809
  524TIP3    H222988   2.242   5.788   1.475 -3.7653  0.6347  1.2131
  525TIP3   OH222989   1.424   4.890  14.519 -0.6439 -0.2532  0.1477
  525TIP3    H122990   1.484   4.870  14.591 -0.5321 -1.4119 -0.2597
  525TIP3    H222991   1.337   4.884  14.558 -0.5051  1.7283  0.8114
  526TIP3   OH222992   4.837   4.822  16.590  0.1808  0.0648  0.0596
  526TIP3    H122993   4.845   4.747  16.531  1.3153  0.1053  0.1619
  526TIP3    H222994   4.822   4.783  16.676  0.1475 -0.0272  0.0112
  527TIP3   OH222995   2.022   3.087   0.504  0.0990 -0.5273 -0.1919
  527TIP3    H122996   2.100   3.061   0.456 -0.5552 -0.6106 -1.2362
  527TIP3    H222997   2.049   3.162   0.557  0.9558 -0.7503 -0.3178
  528TIP3   OH222998   0.899   0.087  15.171 -0.3793 -0.2658 -0.4163
  528TIP3    H122999   0.822   0.133  15.204 -1.3751 -1.6486 -0.7509
  528TIP3    H223000   0.888  -0.003  15.203  1.7696 -0.1803  0.6270
  529TIP3   OH223001   1.321   4.894   1.876 -0.0980  1.1700 -0.1282
  529TIP3    H123002   1.384   4.825   1.855 -2.1811 -1.0398  0.5695
  529TIP3    H223003   1.347   4.925   1.962  0.5258  0.8542 -0.2019
  530TIP3   OH223004   0.821   1.756   3.854 -0.1783  0.2070  0.4144
  530TIP3    H123005   0.751   1.731   3.794  0.1950  1.8289 -0.7323
  530TIP3    H223006   0.809   1.700   3.931 -2.3982  0.1004  0.0033
  531TIP3   OH223007   1.668   2.990  11.523  0.3339  0.2763 -0.4575
  531TIP3    H123008   1.738   2.967  11.462 -1.0238 -1.0563 -1.5500
  531TIP3    H223009   1.660   3.085  11.517  0.3328  0.1774 -2.2281
  532TIP3   OH223010   3.018   0.019  13.634 -0.8929  0.3483  0.1071
  532TIP3    H123011   2.984  -0.053  13.688  1.3306 -0.5802  0.3423
  532TIP3    H223012   2.965   0.095  13.659 -0.3711 -0.2076  3.1188
  533TIP3   OH223013   4.665   1.357  11.698 -0.1648  0.3257  0.4086
  533TIP3    H123014   4.743   1.389  11.653  0.6469 -0.7467  1.0479
  533TIP3    H223015   4.592   1.402  11.654  0.3823 -2.4929 -3.6699
  534TIP3   OH223016   0.175   2.292  12.121  0.1192 -0.1309  0.2166
  534TIP3    H123017   0.256   2.293  12.069  0.4925 -0.6889  0.7751
  534TIP3    H223018   0.141   2.381  12.115 -0.3497 -0.4201 -1.7788
  535TIP3   OH223019   2.349   1.923   5.918 -0.7044 -0.3218  0.5214
  535TIP3    H123020   2.420   1.911   5.981 -0.5932  0.3985  0.5372
  535TIP3    H223021   2.334   1.836   5.881  0.6312 -0.3566  0.0427
  536TIP3   OH223022   1.883   2.647   4.041  0.1065  0.3171  0.5525
  536TIP3    H123023   1.855   2.592   3.969 -0.8782  1.4239  0.0730
  536TIP3    H223024   1.925   2.587   4.103  1.6454 -0.5339 -1.2566
  537TIP3   OH223025   5.680   4.822   5.497 -0.7686 -0.1103  0.3663
  537TIP3    H123026   5.769   4.852   5.484 -1.1727  0.7907 -0.3384
  537TIP3    H223027   5.679   4.786   5.586  0.4375 -0.6740  0.1585
  538TIP3   OH223028   2.666   2.884  11.035  0.0799  0.5791  0.1548
  538TIP3    H123029   2.686   2.882  10.941  0.3915  3.1876  0.1172
  538TIP3    H223030   2.723   2.953  11.070 -1.6584  1.1994  1.8523
  539TIP3   OH223031   2.112   5.764  16.675  0.3336  0.1507  0.2295
  539TIP3    H123032   2.188   5.710  16.696  0.3029  0.5567  1.4172
  539TIP3    H223033   2.150   5.844  16.638  0.4894  0.4009  0.9279
  540TIP3   OH223034   3.324   3.765  12.831 -0.4680  0.1425  0.0127
  540TIP3    H123035   3.277   3.773  12.914 -1.7066 -0.1839 -0.6368
  540TIP3    H223036   3.270   3.813  12.768  0.2512  0.0520 -0.6833
  541TIP3   OH223037   3.999   1.436  14.920  0.3065 -1.0056  0.2857
  541TIP3    H123038   3.959   1.353  14.949 -0.5155 -0.5261  0.5557
  541TIP3    H223039   3.927   1.499  14.922  0.4348 -0.7608 -2.0278
  542TIP3   OH223040   3.282   0.705   1.231  0.5742  0.3284 -0.2672
  542TIP3    H123041   3.339   0.649   1.283  3.0314  3.8743  1.0296
  542TIP3    H223042   3.223   0.746   1.295 -1.5689 -1.0978 -1.2611
  543TIP3   OH223043   6.698   3.073  12.735  0.0731  0.6556 -0.1805
  543TIP3    H123044   6.661   3.161  12.729 -0.2580  0.5228 -0.1193
  543TIP3    H223045   6.696   3.052  12.828 -2.1875 -0.3938 -0.4137
  544TIP3   OH223046   6.460   0.681   6.527  0.2627  0.6215 -0.3004
  544TIP3    H123047   6.473   0.635   6.610  1.2030  2.4767  0.6084
  544TIP3    H223048   6.366   0.674   6.510  0.2299 -0.7059  0.3499
  545TIP3   OH223049   4.401   5.532   4.566 -0.6518  0.1129  0.1730
  545TIP3    H123050   4.329   5.496   4.513 -0.4682 -1.3206  0.8766
  545TIP3    H223051   4.417   5.619   4.528 -1.3377 -0.3943 -1.3376
  546TIP3   OH223052   2.871   4.502   0.102  0.1001 -0.0261 -0.2842
  546TIP3    H123053   2.830   4.584   0.131 -1.0554  0.3879 -2.9253
  546TIP3    H223054   2.862   4.503   0.007  1.6528 -2.4187 -0.5041
  547TIP3   OH223055   3.719   6.272  14.172 -0.1945  0.1462 -0.8233
  547TIP3    H123056   3.643   6.271  14.231  0.3962  1.5335 -0.0095
  547TIP3    H223057   3.791   6.239  14.225  0.3614  1.4857 -0.7248
  548TIP3   OH223058   1.472   2.856   5.622  0.5538 -0.7538  0.6129
  548TIP3    H123059   1.489   2.927   5.560  0.2893  1.4185  2.9297
  548TIP3    H223060   1.558   2.816   5.637  0.6604 -1.1320 -0.9164
  549TIP3   OH223061   5.357   0.327   0.518  0.0587 -0.0694  0.0110
  549TIP3    H123062   5.274   0.300   0.478  0.6261  0.6108 -1.6536
  549TIP3    H223063   5.419   0.332   0.445  1.8920 -1.7238  1.3940
  550TIP3   OH223064   4.168   0.564   4.225 -0.5512 -0.1959  0.2708
  550TIP3    H123065   4.195   0.539   4.136  3.2449 -0.3937  1.4084
  550TIP3    H223066   4.188   0.657   4.231 -1.1578 -0.0982  0.8277
  551TIP3   OH223067   5.241   1.368  11.634 -0.4938 -0.2970 -0.4701
  551TIP3    H123068   5.299   1.439  11.607 -1.5642 -0.3425 -3.0941
  551TIP3    H223069   5.225   1.383  11.727  0.3357  2.1315 -0.6984
  552TIP3   OH223070   1.071   6.609  17.026  0.5201 -0.2885  0.3268
  552TIP3    H123071   1.104   6.522  17.051 -0.9351 -0.4414  1.8259
  552TIP3    H223072   1.072   6.609  16.931  0.3246 -2.0654  0.3045
  553TIP3   OH223073   0.634   1.832  16.769 -0.1805  0.4353  0.0916
  553TIP3    H123074   0.697   1.856  16.701  0.0637  1.1259  0.5563
  553TIP3    H223075   0.599   1.915  16.800 -0.0854  0.1423  1.0030
  554TIP3   OH223076   2.952   5.864  12.434 -0.2196  0.3178 -0.2362
  554TIP3    H123077   2.870   5.821  12.411  0.1815  0.4503 -1.9621
  554TIP3    H223078   3.006   5.857  12.355  0.7427  1.8622  0.2642
  555TIP3   OH223079   2.590   4.704  13.623  0.1290 -0.9665 -0.3705
  555TIP3    H123080   2.570   4.622  13.578  1.5575 -1.0356 -0.8955
  555TIP3    H223081   2.638   4.756  13.559 -0.2852  0.0710  0.1392
  556TIP3   OH223082   3.349   0.263  16.073 -0.2836 -0.4433  0.5633
  556TIP3    H123083   3.340   0.358  16.066 -1.5239 -0.5365  0.7076
  556TIP3    H223084   3.260   0.232  16.091  0.1406 -1.6164  0.6854
  557TIP3   OH223085   0.265   5.733   4.369  0.5850  0.1335  0.0784
  557TIP3    H123086   0.350   5.735   4.324  1.5050  0.2222  1.7392
  557TIP3    H223087   0.289   5.724   4.462 -1.2399  0.0789  0.5483
  558TIP3   OH223088   6.505   4.988   3.734 -0.2304  0.1611  0.1081
  558TIP3    H123089   6.514   5.071   3.689  0.8079  0.4133  0.7736
  558TIP3    H223090   6.554   4.998   3.815 -1.1632 -0.6613  0.8021
  559TIP3   OH223091   5.910   6.583  12.720 -0.0314 -0.7445  0.0690
  559TIP3    H123092   5.833   6.559  12.669  0.2857 -2.0396  0.1977
  559TIP3    H223093   5.876   6.637  12.791 -0.3340  2.2857 -2.2644
  560TIP3   OH223094   3.991   3.438  12.803 -0.0465  1.1140 -0.2263
  560TIP3    H123095   4.049   3.365  12.780 -1.3231  0.2018 -0.6089
  560TIP3    H223096   3.965   3.475  12.719 -0.1786  1.3794 -0.0663
  561TIP3   OH223097   3.774   4.135   2.847  0.5082 -0.8952 -0.0818
  561TIP3    H123098   3.852   4.191   2.849 -0.6531  0.7679  0.3885
  561TIP3    H223099   3.788   4.076   2.773  1.5152  0.4280 -0.9655
  562TIP3   OH223100   0.848   1.102  16.509 -0.2605 -0.1414 -0.7717
  562TIP3    H123101   0.821   1.149  16.430 -1.8321 -1.9031 -1.2968
  562TIP3    H223102   0.909   1.036  16.478  0.4441  0.2651 -0.2745
  563TIP3   OH223103   5.060   5.036   2.892  0.2785 -0.5064 -0.2096
  563TIP3    H123104   5.049   5.073   2.805  1.8665 -0.3566 -0.3648
  563TIP3    H223105   5.138   4.981   2.885  2.2615  1.8926  1.8611
  564TIP3   OH223106   6.068   4.409   0.237  0.1075  0.8997  0.3630
  564TIP3    H123107   6.097   4.371   0.320  0.4957 -0.9963 -0.6365
  564TIP3    H223108   5.976   4.384   0.230  1.0410 -2.1600 -1.5526
  565TIP3   OH223109   0.815   3.665  11.546  0.1420 -0.1250 -0.5704
  565TIP3    H123110   0.828   3.724  11.621  1.0391 -2.1714  0.9472
  565TIP3    H223111   0.720   3.653  11.541 -0.0667  1.6427 -1.0703
  566TIP3   OH223112   1.408   0.300   5.186 -0.3684  0.2848 -0.5009
  566TIP3    H123113   1.440   0.306   5.276 -0.9397  0.2578 -0.2908
  566TIP3    H223114   1.460   0.364   5.137  0.1362  0.0963 -0.2093
  567TIP3   OH223115   2.114   0.458  12.712  0.1336 -0.5445  0.1023
  567TIP3    H123116   2.178   0.458  12.784  0.5381 -2.5813 -0.2349
  567TIP3    H223117   2.157   0.507  12.642  0.0875  0.7156  0.9409
  568TIP3   OH223118   1.700   3.066   2.967  0.0396  0.5938 -0.1335
  568TIP3    H123119   1.709   3.137   2.904  2.1170  0.3938 -0.0746
  568TIP3    H223120   1.781   3.016   2.960  0.0177  0.1626  2.1772
  569TIP3   OH223121   0.806   1.013  14.944  0.2465 -0.3492 -0.3342
  569TIP3    H123122   0.784   0.966  15.024  2.3910 -0.2163  0.3536
  569TIP3    H223123   0.789   1.105  14.964 -2.1657 -0.5923 -1.0751
  570TIP3   OH223124   5.864   6.180  13.925  0.1021 -0.3878 -0.0094
  570TIP3    H123125   5.953   6.173  13.893 -0.0977  0.6295 -0.8191
  570TIP3    H223126   5.865   6.255  13.984 -0.0865 -0.7555  0.4712
  571TIP3   OH223127   5.051   4.911  12.044  1.2963 -0.8306 -0.5079
  571TIP3    H123128   5.068   4.981  11.981  0.9673 -0.5748 -0.3139
  571TIP3    H223129   4.971   4.870  12.013 -1.0018  1.6814  1.7893
  572TIP3   OH223130   4.492   0.950  15.640 -0.0120 -0.3397 -0.3260
  572TIP3    H123131   4.534   0.972  15.557 -1.3063 -2.3730 -1.5518
  572TIP3    H223132   4.501   1.029  15.693  2.5770  0.3061 -1.6702
  573TIP3   OH223133   2.911   6.050  14.960  0.3465  0.0178 -0.5430
  573TIP3    H123134   3.002   6.071  14.939  0.8930 -1.5107  0.2648
  573TIP3    H223135   2.899   6.080  15.050  0.4881 -1.1138 -0.1440
  574TIP3   OH223136   1.896   3.807  13.154  0.5748 -0.5991  0.1930
  574TIP3    H123137   1.987   3.792  13.182  1.3871  0.7575 -1.6436
  574TIP3    H223138   1.896   3.783  13.062 -0.0918  2.6651 -0.7113
  575TIP3   OH223139   0.165   6.083   0.467 -0.3700  0.2719  0.5067
  575TIP3    H123140   0.239   6.025   0.452 -0.9697 -0.4164  0.1651
  575TIP3    H223141   0.130   6.056   0.552 -0.9368 -0.2008  0.1337
  576TIP3   OH223142   1.466   4.733   0.961 -0.4384  0.1488 -0.1636
  576TIP3    H123143   1.408   4.774   1.025  0.6542  0.7928  0.4314
  576TIP3    H223144   1.516   4.669   1.012 -0.0871  0.1477 -0.5099
  577TIP3   OH223145   2.657   2.590  14.364 -0.5631 -0.3036  0.1335
  577TIP3    H123146   2.623   2.584  14.453 -1.6228 -2.0916 -0.3392
  577TIP3    H223147   2.752   2.588  14.373 -0.6703 -0.4057  1.2259
  578TIP3   OH223148   4.660   4.086  13.168 -0.4409  0.8577  0.1518
  578TIP3    H123149   4.568   4.087  13.142  0.0385 -0.9596 -1.6922
  578TIP3    H223150   4.672   4.001  13.210  1.0026  0.0084 -1.9272
  579TIP3   OH223151   0.787   4.703   1.993 -0.4521  0.2039  0.9014
  579TIP3    H123152   0.703   4.737   1.963 -0.1541  0.0930 -0.0857
  579TIP3    H223153   0.846   4.715   1.919  0.0561 -0.9839  1.0937
  580TIP3   OH223154   3.156   6.400  16.107  0.2694 -0.3951  0.4248
  580TIP3    H123155   3.073   6.405  16.059  1.0000  1.7568 -0.6692
  580TIP3    H223156   3.200   6.323  16.072 -0.4506 -0.4705 -0.3213
  581TIP3   OH223157   3.567   0.529   3.011  0.1400 -0.4120 -0.2755
  581TIP3    H123158   3.513   0.587   3.064 -0.5439 -0.9062 -0.4185
  581TIP3    H223159   3.548   0.441   3.044  2.0228 -0.4823  0.7007
  582TIP3   OH223160   3.728   3.329  11.543 -0.1547 -0.2126 -0.4933
  582TIP3    H123161   3.823   3.330  11.547 -0.1511 -0.1554 -0.5820
  582TIP3    H223162   3.700   3.314  11.633 -0.0577 -0.6889 -0.5452
  583TIP3   OH223163   1.849   6.673  11.219  0.0488  0.0146 -0.0127
  583TIP3    H123164   1.797   6.663  11.140 -0.8939 -1.2548  0.7533
  583TIP3    H223165   1.790   6.714  11.283  0.1104 -0.9706  0.6988
  584TIP3   OH223166   1.084   2.148  12.046  1.4124  0.2581 -0.0070
  584TIP3    H123167   1.076   2.207  11.971  2.3047 -0.3643 -0.5992
  584TIP3    H223168   1.085   2.060  12.007 -3.2649 -0.4146  1.0636
  585TIP3   OH223169   1.368   2.056   1.799 -0.6321  0.0010  0.1656
  585TIP3    H123170   1.289   2.092   1.759 -1.0609  0.0093  1.0087
  585TIP3    H223171   1.383   1.974   1.753 -2.4324 -1.1218  1.4993
  586TIP3   OH223172   6.600   5.954   2.041  0.0750 -0.1842 -0.3446
  586TIP3    H123173   6.637   5.984   1.958  0.5238 -1.8379 -0.7703
  586TIP3    H223174   6.633   5.864   2.051 -1.4187 -0.6420  0.7430
  587TIP3   OH223175   1.786   2.605   4.801 -0.4810 -0.4050  0.1166
  587TIP3    H123176   1.880   2.614   4.790 -0.2510 -1.1776  1.3118
  587TIP3    H223177   1.770   2.510   4.798 -1.7060 -0.1888 -3.6131
  588TIP3   OH223178   2.235   2.983  13.050 -0.6483 -0.6944  0.3767
  588TIP3    H123179   2.172   3.055  13.048 -0.7365 -0.8004 -0.5542
  588TIP3    H223180   2.227   2.947  13.139  0.3340  1.2812  1.3145
  589TIP3   OH223181   5.111   4.610  10.953 -0.1957 -0.4571  0.3621
  589TIP3    H123182   5.034   4.661  10.978  0.0303  0.8496 -1.4719
  589TIP3    H223183   5.167   4.613  11.030 -0.9589  0.5787  0.9008
  590TIP3   OH223184   6.464   6.613   2.428 -0.0653 -0.4182  0.2146
  590TIP3    H123185   6.387   6.585   2.378  0.2695  0.3301 -0.7372
  590TIP3    H223186   6.518   6.534   2.436 -0.3270 -0.6428 -0.2370
  591TIP3   OH223187   4.848   5.216  14.529 -0.1058  0.2184 -0.1288
  591TIP3    H123188   4.941   5.214  14.508 -0.2971 -1.1870 -0.9028
  591TIP3    H223189   4.832   5.306  14.558  0.6064  1.7303 -4.1045
  592TIP3   OH223190   1.999   4.003   1.914 -0.7968  0.4420 -0.1376
  592TIP3    H123191   1.921   4.039   1.957 -0.9106  2.0749 -1.6684
  592TIP3    H223192   1.965   3.942   1.849 -0.6938 -0.3825  0.5588
  593TIP3   OH223193   0.692   4.629  15.003  0.0956  0.0692  0.3465
  593TIP3    H123194   0.627   4.651  15.070 -0.6717 -0.3409 -0.2573
  593TIP3    H223195   0.748   4.706  14.998 -0.1654  0.3105  1.0845
  594TIP3   OH223196   2.381   5.780   2.027  0.1514 -0.1042 -0.2761
  594TIP3    H123197   2.309   5.840   2.049 -0.8743 -0.9520 -1.2013
  594TIP3    H223198   2.401   5.801   1.936  0.2828 -0.6635 -0.3743
  595TIP3   OH223199   3.156   1.007  12.290 -0.0121 -0.4907  0.1036
  595TIP3    H123200   3.210   1.056  12.228 -0.8252  0.2857  0.0055
  595TIP3    H223201   3.187   0.917  12.283 -0.5319 -0.5215 -1.9071
  596TIP3   OH223202   6.044   3.687   5.840  0.0391 -0.5895  0.2268
  596TIP3    H123203   6.028   3.696   5.934 -0.9718  0.2876 -0.0169
  596TIP3    H223204   6.115   3.749   5.822 -1.2693  0.8679  0.0257
  597TIP3   OH223205   6.084   3.543  16.250 -0.0860 -0.2692  0.0230
  597TIP3    H123206   6.123   3.500  16.174 -0.8724  0.3168 -0.7281
  597TIP3    H223207   6.149   3.533  16.319  1.7006  1.2503 -1.3679
  598TIP3   OH223208   4.498   0.537   2.354 -0.0810 -0.0399 -0.1435
  598TIP3    H123209   4.442   0.463   2.377  0.5362 -0.4669 -0.0034
  598TIP3    H223210   4.575   0.527   2.410 -0.5547  1.4196  0.7862
  599TIP3   OH223211   6.417   4.695   5.740 -0.3107  0.0443 -0.7559
  599TIP3    H123212   6.464   4.681   5.658  1.6368  0.3276  0.2797
  599TIP3    H223213   6.369   4.613   5.754 -0.2783 -0.1803 -1.9327
  600TIP3   OH223214   6.195   6.329  14.429  0.3406 -0.4150 -0.1998
  600TIP3    H123215   6.197   6.233  14.423  0.1837 -0.4650  0.4798
  600TIP3    H223216   6.114   6.348  14.476  1.6512 -0.0912  2.0079
  601TIP3   OH223217   4.671   0.045   0.751  0.4078  0.2235  0.3252
  601TIP3    H123218   4.679   0.008   0.839  0.0189  0.5863  0.5137
  601TIP3    H223219   4.617  -0.018   0.704  0.4353  0.1369  0.4088
  602TIP3   OH223220   5.374   0.954   1.630  0.4643 -0.1573 -0.5326
  602TIP3    H123221   5.419   0.973   1.713  0.8149 -0.5990 -0.6208
  602TIP3    H223222   5.397   1.027   1.573  0.1124  0.2183 -0.1983
  603TIP3   OH223223   5.805   5.098   0.144  0.2165 -0.5542  0.4373
  603TIP3    H123224   5.887   5.078   0.189  0.4323 -0.3308  0.1373
  603TIP3    H223225   5.742   5.113   0.215  0.8816  1.1590  0.6806
  604TIP3   OH223226   3.141   1.576   2.587  0.7189 -0.0555  0.2871
  604TIP3    H123227   3.139   1.652   2.529  0.6240 -0.3469 -0.0895
  604TIP3    H223228   3.117   1.611   2.673  0.0701  0.2335 -0.0071
  605TIP3   OH223229   1.096   3.386   3.421  0.0448  0.5106 -0.4148
  605TIP3    H123230   1.174   3.396   3.366  1.4220  1.2730  1.6173
  605TIP3    H223231   1.052   3.472   3.417  0.8598  0.9906  0.7079
  606TIP3   OH223232   5.902   1.686  13.726  0.5052 -0.4579 -0.4335
  606TIP3    H123233   5.884   1.736  13.805  2.7693  0.5354 -0.5142
  606TIP3    H223234   5.877   1.744  13.654  0.4775 -0.5439 -0.4946
  607TIP3   OH223235   4.732   2.715   0.040 -0.1318 -0.5286  0.0098
  607TIP3    H123236   4.744   2.769   0.118 -0.3864  1.4091 -1.2354
  607TIP3    H223237   4.820   2.683   0.020  0.1033 -0.2264  0.5350
  608TIP3   OH223238   4.248   4.213  11.554  0.0033  0.4470  0.2117
  608TIP3    H123239   4.318   4.152  11.528 -0.3827 -0.5097  1.3311
  608TIP3    H223240   4.259   4.221  11.649 -0.8938  0.9387  0.2717
  609TIP3   OH223241   4.837   5.334  10.726  0.4659  0.2096 -0.3002
  609TIP3    H123242   4.791   5.253  10.749  1.3745 -0.6674 -1.5231
  609TIP3    H223243   4.789   5.370  10.652 -0.8297  1.6025  1.1774
  610TIP3   OH223244   0.954   1.835   2.026  0.3918  0.4360  0.4787
  610TIP3    H123245   0.862   1.833   2.002 -0.3109  0.4722  3.0827
  610TIP3    H223246   0.983   1.744   2.015 -0.8466 -0.2904  2.8886
  611TIP3   OH223247   4.850   4.633  13.782  0.2432  0.4796 -0.0461
  611TIP3    H123248   4.894   4.597  13.859 -0.0340  0.1856 -0.0210
  611TIP3    H223249   4.908   4.702  13.751  0.9800 -0.2439 -0.3169
  612TIP3   OH223250   6.436   1.547  15.574  0.3063  0.0584 -0.7936
  612TIP3    H123251   6.383   1.547  15.494 -0.1052 -0.4330 -0.5245
  612TIP3    H223252   6.448   1.639  15.596 -1.7859  0.1639  0.0360
  613TIP3   OH223253   3.676   3.353   0.374  0.5897  0.3075  0.0877
  613TIP3    H123254   3.711   3.293   0.309  1.2925  1.3618 -0.5299
  613TIP3    H223255   3.613   3.302   0.423  1.0754 -0.8873 -0.5215
  614TIP3   OH223256   4.736   1.895  13.487  0.0511  0.2213 -0.0341
  614TIP3    H123257   4.662   1.953  13.507 -0.0452 -0.0222  0.3235
  614TIP3    H223258   4.728   1.878  13.393 -0.5567 -0.0942  0.0760
  615TIP3   OH223259   0.130   4.671   2.042 -0.2598  0.2373 -0.7961
  615TIP3    H123260   0.207   4.688   1.988  1.3038 -2.3426  0.5186
  615TIP3    H223261   0.058   4.667   1.979  1.2131 -0.6849 -2.4859
  616TIP3   OH223262   0.730   6.647   1.625  0.7663 -0.0505  0.0411
  616TIP3    H123263   0.716   6.628   1.718  3.1670  0.1395  0.4578
  616TIP3    H223264   0.811   6.602   1.602  0.1808 -0.1287 -1.9835
  617TIP3   OH223265   3.425   4.706   2.730 -0.7192  0.5089  0.1320
  617TIP3    H123266   3.418   4.639   2.662 -2.0050 -0.4461  1.1805
  617TIP3    H223267   3.519   4.713   2.747 -0.6409 -1.7869  0.7528
  618TIP3   OH223268   2.184   4.520   1.028 -0.6232  0.1840  0.3575
  618TIP3    H123269   2.135   4.523   0.945  0.3491  1.8466 -0.1806
  618TIP3    H223270   2.189   4.427   1.049 -2.5850 -0.1359 -0.4270
  619TIP3   OH223271   2.422   3.850   1.972  0.1467  0.2135  0.0387
  619TIP3    H123272   2.507   3.881   1.941  0.6235 -1.6916 -0.6392
  619TIP3    H223273   2.443   3.787   2.040 -0.6824 -1.0381 -0.8477
  620TIP3   OH223274   2.257   3.471   2.140 -0.3020  0.5920  0.6088
  620TIP3    H123275   2.266   3.379   2.117 -1.4764  0.8113 -0.7687
  620TIP3    H223276   2.280   3.474   2.233  2.2138 -0.6696  0.0824
  621TIP3   OH223277   1.432   4.083  11.114 -0.6808  0.1220  0.2590
  621TIP3    H123278   1.517   4.044  11.097 -0.8946  0.2725 -1.2196
  621TIP3    H223279   1.375   4.049  11.045 -1.5386  0.9082  0.5553
  622TIP3   OH223280   0.811   4.469   0.103  0.3922  0.4283 -0.4565
  622TIP3    H123281   0.744   4.505   0.160 -0.5941 -0.4157 -1.0652
  622TIP3    H223282   0.768   4.457   0.019 -0.4056 -5.2156  0.5163
  623TIP3   OH223283   2.095   1.804  10.880 -0.4224  0.3068  0.0516
  623TIP3    H123284   2.144   1.882  10.851 -0.5112  0.6085  0.7179
  623TIP3    H223285   2.156   1.732  10.867 -0.4125  0.4494 -0.7820
  624TIP3   OH223286   4.345   1.231   5.719 -0.2258  0.4321 -0.6268
  624TIP3    H123287   4.296   1.148   5.720  0.1051  0.2136 -1.5243
  624TIP3    H223288   4.291   1.290   5.666 -1.3065  1.3468  1.4288
  625TIP3   OH223289   2.644   5.680  13.543  0.0564  0.1934  0.3432
  625TIP3    H123290   2.557   5.691  13.504 -0.1031 -0.3617  0.5491
  625TIP3    H223291   2.665   5.588  13.529  0.4813  0.2578  0.5702
  626TIP3   OH223292   3.634   4.301   4.207  0.2781 -0.1180 -0.1807
  626TIP3    H123293   3.626   4.219   4.159 -0.4974  0.5708 -1.2702
  626TIP3    H223294   3.693   4.354   4.153 -0.4508  0.5929 -0.2891
  627TIP3   OH223295   2.008   0.086  11.067  0.6524  0.6216 -0.7127
  627TIP3    H123296   1.965   0.022  11.123  0.0973 -0.0671 -1.8955
  627TIP3    H223297   2.094   0.049  11.049  1.3318  1.4561  0.7157
  628TIP3   OH223298   4.440   5.050   2.141  0.1551  0.6312 -0.0715
  628TIP3    H123299   4.369   5.060   2.078 -0.4253  0.4857  0.5500
  628TIP3    H223300   4.458   4.956   2.142 -0.0414  0.5982  0.2071
  629TIP3   OH223301   3.883   5.071  13.509  0.3870  0.1843 -0.2422
  629TIP3    H123302   3.862   5.126  13.585  0.3796 -0.4123  0.1910
  629TIP3    H223303   3.811   5.086  13.448  0.5915  0.9643 -0.2919
  630TIP3   OH223304   4.305   1.693   4.740  0.7019  0.3075 -0.4323
  630TIP3    H123305   4.301   1.615   4.795  1.0752  2.0346  2.0986
  630TIP3    H223306   4.214   1.724   4.735  0.9921  1.4362  1.1209
  631TIP3   OH223307   4.004   2.575  10.554  0.5913  0.7278 -0.4949
  631TIP3    H123308   4.077   2.635  10.568  0.3954  0.9049 -0.2415
  631TIP3    H223309   3.936   2.604  10.615  0.6839 -0.0678 -0.0031
  632TIP3   OH223310   4.723   0.885   1.932 -0.0068 -0.5729 -0.4323
  632TIP3    H123311   4.712   0.851   1.843  0.2117  0.2305 -0.7674
  632TIP3    H223312   4.673   0.824   1.986 -2.0341  0.2055 -1.3668
  633TIP3   OH223313   1.393   0.326   2.157 -0.1389  0.2030  0.6801
  633TIP3    H123314   1.331   0.272   2.207  0.2032 -0.3440  0.5068
  633TIP3    H223315   1.364   0.318   2.066  0.2151 -0.0894  0.5930
  634TIP3   OH223316   4.705   0.627  12.367 -0.1678  0.4573 -0.0006
  634TIP3    H123317   4.657   0.679  12.432 -0.1225 -0.4324  0.7589
  634TIP3    H223318   4.784   0.678  12.350  0.0440  0.4854  0.9974
  635TIP3   OH223319   0.165   1.126   4.964  0.2631 -0.2478  0.4919
  635TIP3    H123320   0.119   1.109   5.046 -1.9307  1.2123 -0.4131
  635TIP3    H223321   0.122   1.070   4.900 -0.4528  1.2818 -0.4019
  636TIP3   OH223322   2.871   4.949  16.728  0.3325 -0.6110  0.1373
  636TIP3    H123323   2.785   4.911  16.713  0.3859 -0.6753 -0.0086
  636TIP3    H223324   2.907   4.961  16.640  0.1868  0.0710  0.1687
  637TIP3   OH223325   2.079   6.321   5.451  0.5947 -0.4756  0.5696
  637TIP3    H123326   2.161   6.359   5.483  0.9570  3.0519 -3.9300
  637TIP3    H223327   2.011   6.383   5.477  0.3897  0.3710 -1.8666
  638TIP3   OH223328   2.118   0.549  15.333 -0.1468  0.4057  0.4280
  638TIP3    H123329   2.151   0.484  15.396  0.4253  0.3540  0.0812
  638TIP3    H223330   2.042   0.507  15.294 -0.2388  0.2541  0.7603
  639TIP3   OH223331   2.985   5.277   0.242  0.8204  0.0303  0.7410
  639TIP3    H123332   3.000   5.215   0.170 -1.4518 -1.0976  1.1798
  639TIP3    H223333   3.043   5.350   0.223  0.2461 -0.2068 -2.2919
  640TIP3   OH223334   3.041   3.906   2.878  0.4463  0.0505  0.0151
  640TIP3    H123335   3.044   3.812   2.861  0.7927 -0.0028  0.3530
  640TIP3    H223336   2.948   3.928   2.876  0.1619 -0.7329  2.2306
  641TIP3   OH223337   2.844   6.553  12.318  0.2542  0.0938 -0.1232
  641TIP3    H123338   2.910   6.589  12.258  1.1208  0.0136  0.7752
  641TIP3    H223339   2.784   6.506  12.261  0.5844  0.7541 -1.0361
  642TIP3   OH223340   1.837   6.294  16.538 -0.1695 -0.2003  0.2649
  642TIP3    H123341   1.760   6.328  16.492 -0.2612 -1.2023 -0.3476
  642TIP3    H223342   1.802   6.253  16.616 -0.1509  0.2836  0.5312
  643TIP3   OH223343   5.088   5.861   2.042 -0.3288  0.0241  0.3796
  643TIP3    H123344   5.050   5.936   1.997  2.5530  1.7326  0.7129
  643TIP3    H223345   5.070   5.876   2.135  1.5251  1.0937  0.5861
  644TIP3   OH223346   5.832   2.114   2.653  0.2569 -0.2565 -0.1359
  644TIP3    H123347   5.776   2.125   2.576 -1.8074 -0.4342  1.3139
  644TIP3    H223348   5.796   2.037   2.697  0.7537  0.4728  1.5722
  645TIP3   OH223349   3.809   4.854  11.276 -0.6553 -0.2292  0.0888
  645TIP3    H123350   3.800   4.782  11.214 -0.3557 -2.1874  2.2732
  645TIP3    H223351   3.771   4.930  11.230 -0.4277 -1.5928 -2.4641
  646TIP3   OH223352   5.002   4.033  15.102 -0.0324  0.6788 -0.3672
  646TIP3    H123353   5.094   4.041  15.074 -0.0852 -0.8561 -1.0485
  646TIP3    H223354   4.971   3.953  15.058 -1.8841  1.5431 -0.6548
  647TIP3   OH223355   4.980   3.675  16.179  0.5511  0.6814  0.0120
  647TIP3    H123356   4.976   3.759  16.225 -1.5313 -0.1016  1.3769
  647TIP3    H223357   5.073   3.662  16.160  0.9114  3.2254 -0.1326
  648TIP3   OH223358   0.413   0.569   4.136 -0.2521 -0.1832  0.2057
  648TIP3    H123359   0.416   0.581   4.230 -0.9626 -1.0288  0.3474
  648TIP3    H223360   0.349   0.633   4.105 -0.4437 -0.2980  0.3672
  649TIP3   OH223361   2.901   3.200   4.646  0.4688  1.0355  0.0509
  649TIP3    H123362   2.901   3.187   4.552  0.9025  1.6864 -0.0477
  649TIP3    H223363   2.815   3.240   4.665  1.4619  3.5516 -0.4811
  650TIP3   OH223364   5.987   6.041  15.377  0.0959  0.1801 -0.0047
  650TIP3    H123365   5.938   6.074  15.452  0.3163 -1.3574  0.8268
  650TIP3    H223366   5.935   6.069  15.301 -1.1953  0.0102  0.7945
  651TIP3   OH223367   5.442   4.740  12.629 -0.2356  0.1862 -0.5664
  651TIP3    H123368   5.464   4.714  12.718 -0.1615  0.4135 -0.5197
  651TIP3    H223369   5.527   4.754  12.587 -0.2117 -1.6946 -1.1994
  652TIP3   OH223370   3.713   5.453   0.221  0.5953 -0.0649 -0.5388
  652TIP3    H123371   3.639   5.511   0.238  0.5085 -0.3849  0.2050
  652TIP3    H223372   3.755   5.490   0.143  0.4001  0.8520 -0.2151
  653TIP3   OH223373   3.771   3.054  16.303 -0.5486 -0.1769  0.1297
  653TIP3    H123374   3.826   3.045  16.381  2.7184 -2.7281 -2.2961
  653TIP3    H223375   3.709   2.980  16.309 -0.0320 -0.6140  0.1298
  654TIP3   OH223376   4.781   4.673  15.773  0.0332 -0.3181  0.0352
  654TIP3    H123377   4.751   4.643  15.687  2.6571 -0.2571 -0.9474
  654TIP3    H223378   4.825   4.597  15.811  1.6980  0.5785 -0.0508
  655TIP3   OH223379   1.905   0.405   5.280  0.1817 -0.4053 -0.0055
  655TIP3    H123380   1.964   0.336   5.250  0.8799 -1.1750  3.0059
  655TIP3    H223381   1.962   0.472   5.317 -0.6516  0.5205 -0.3727
  656TIP3   OH223382   0.616   5.440  13.638 -0.1258 -0.0521  0.0566
  656TIP3    H123383   0.586   5.457  13.549  1.6773 -1.6612 -0.8870
  656TIP3    H223384   0.536   5.433  13.689 -1.1458  2.4832 -1.1110
  657TIP3   OH223385   1.006   1.897  17.072 -0.1569  0.3670  0.0381
  657TIP3    H123386   1.010   1.992  17.066 -0.7004  0.4292  0.6637
  657TIP3    H223387   0.912   1.876  17.073 -0.0518 -0.1076  0.8461
  658TIP3   OH223388   2.455   5.550   4.656  0.0216 -0.0354  0.0123
  658TIP3    H123389   2.550   5.538   4.662  0.2485  1.3827 -0.5665
  658TIP3    H223390   2.419   5.488   4.720  1.2911 -1.1813 -0.3731
  659TIP3   OH223391   4.149   2.474  13.131 -0.3617  0.3056 -0.4489
  659TIP3    H123392   4.127   2.508  13.218 -1.2292  0.5383 -0.7490
  659TIP3    H223393   4.160   2.552  13.077 -0.2846  0.1533 -0.6516
  660TIP3   OH223394   1.284   0.648   3.676  0.6361  0.0553  0.0098
  660TIP3    H123395   1.356   0.608   3.724 -0.1766 -3.4828 -1.5115
  660TIP3    H223396   1.208   0.594   3.698 -0.4316  0.4808 -2.4507
  661TIP3   OH223397   2.188   3.968  13.957  0.3875  0.3089  0.0177
  661TIP3    H123398   2.264   3.924  13.996  1.8116  2.8110  0.1625
  661TIP3    H223399   2.126   3.897  13.939  0.6658 -1.2420  4.5412
  662TIP3   OH223400   0.406   2.358  11.386 -0.3694 -0.0737  0.3718
  662TIP3    H123401   0.375   2.349  11.476 -0.5580 -1.3666  0.1884
  662TIP3    H223402   0.354   2.430  11.349 -1.3682 -0.5559  0.8345
  663TIP3   OH223403   3.606   5.605  11.427 -0.0188 -0.1787  0.1991
  663TIP3    H123404   3.543   5.581  11.359 -0.9945 -1.1343  1.4123
  663TIP3    H223405   3.587   5.697  11.445  0.8322  0.3389 -1.4171
  664TIP3   OH223406   3.808   5.012   6.838 -0.4458 -0.5831 -0.5105
  664TIP3    H123407   3.862   5.077   6.793 -1.7184 -0.4134 -1.8042
  664TIP3    H223408   3.830   4.929   6.795  0.5009 -0.8960  0.5345
  665TIP3   OH223409   3.700   6.665  14.753 -0.5310  0.1602  0.1469
  665TIP3    H123410   3.661   6.746  14.784 -1.3871  0.5776 -1.8883
  665TIP3    H223411   3.626   6.613  14.722  0.1919 -0.5562 -0.4182
  666TIP3   OH223412   3.710   2.210   5.730  0.1758  0.4139 -0.2945
  666TIP3    H123413   3.662   2.172   5.804 -1.7367  2.1934 -0.5518
  666TIP3    H223414   3.688   2.155   5.655 -1.8218  1.4184 -0.4792
  667TIP3   OH223415   2.813   4.902  14.761  0.1509 -0.0367 -0.4221
  667TIP3    H123416   2.801   4.826  14.818 -0.9873  0.2066 -0.3247
  667TIP3    H223417   2.819   4.865  14.673 -1.7306 -0.1611 -0.5216
  668TIP3   OH223418   0.330   1.529  15.759  0.0098  0.1795  0.7054
  668TIP3    H123419   0.245   1.564  15.784  0.3535  1.0451  0.6812
  668TIP3    H223420   0.377   1.603  15.721  0.8377 -0.2430  0.8754
  669TIP3   OH223421   2.204   4.361   3.095  0.7409 -0.3532  0.7240
  669TIP3    H123422   2.143   4.374   3.168  1.1258  0.7520  0.8548
  669TIP3    H223423   2.187   4.434   3.036 -1.3585 -2.6190 -1.5895
  670TIP3   OH223424   2.166   0.996  12.300  0.0093 -0.2403 -0.5033
  670TIP3    H123425   2.144   0.999  12.207 -2.1511 -1.1295 -0.0773
  670TIP3    H223426   2.086   1.026  12.344  0.4644 -1.3298  1.1106
  671TIP3   OH223427   4.612   6.265  13.851 -0.0661 -0.9967 -0.3974
  671TIP3    H123428   4.518   6.265  13.868  0.1801 -2.2774  1.0967
  671TIP3    H223429   4.625   6.197  13.785 -0.2870 -0.1784 -1.2984
  672TIP3   OH223430   5.378   6.346  11.913 -0.1738 -0.3683  0.3754
  672TIP3    H123431   5.447   6.337  11.979  0.4824 -3.7164 -0.6197
  672TIP3    H223432   5.299   6.313  11.955 -0.7761  1.6748  0.8931
  673TIP3   OH223433   5.079   1.849  11.882 -0.3975 -0.6720 -0.1567
  673TIP3    H123434   5.014   1.834  11.950  0.5802 -0.0515  0.9380
  673TIP3    H223435   5.150   1.895  11.927  0.1482 -0.0332 -1.6571
  674TIP3   OH223436   3.101   6.007   3.808 -0.0522 -0.2601 -0.1902
  674TIP3    H123437   3.165   6.032   3.740  0.2717 -2.6693 -0.8329
  674TIP3    H223438   3.018   5.999   3.761 -0.4119  0.8388  0.2509
  675TIP3   OH223439   4.810   5.767   1.121  0.4428  1.0891  0.2840
  675TIP3    H123440   4.900   5.775   1.152 -0.2864  3.1774  1.9675
  675TIP3    H223441   4.776   5.857   1.123 -1.1771  0.5593 -1.8902
  676TIP3   OH223442   3.331   5.137  14.960 -0.9715 -0.4025  0.0469
  676TIP3    H123443   3.332   5.130  14.865  0.2513  0.6293 -0.0198
  676TIP3    H223444   3.405   5.084  14.989 -1.0584 -0.3262  0.4146
  677TIP3   OH223445   2.982   3.612   0.203  0.0739 -0.1991 -0.2958
  677TIP3    H123446   3.026   3.656   0.276 -0.0081  0.6905 -0.7846
  677TIP3    H223447   2.905   3.571   0.243  0.8976 -1.0758  0.4137
  678TIP3   OH223448   5.022   1.907   4.661  0.3754 -0.2127  0.1618
  678TIP3    H123449   5.046   1.937   4.749  1.1280 -0.3911  0.0150
  678TIP3    H223450   4.928   1.926   4.655  0.3130 -0.2194  1.0097
  679TIP3   OH223451   5.310   4.807  15.117 -0.4149  0.7859  0.1992
  679TIP3    H123452   5.368   4.795  15.042 -0.1183  2.1279  0.1973
  679TIP3    H223453   5.368   4.835  15.188 -0.8622  0.7502  0.5842
  680TIP3   OH223454   1.935   1.764   2.896 -0.1049  0.2707  0.1527
  680TIP3    H123455   1.988   1.816   2.956  0.9658 -1.1066  0.4097
  680TIP3    H223456   1.949   1.674   2.923 -2.7703 -0.1384  0.3752
  681TIP3   OH223457   5.942   5.286  12.339  0.0490 -0.6013  0.0620
  681TIP3    H123458   5.954   5.198  12.302  0.6192 -0.5019  0.0013
  681TIP3    H223459   6.014   5.337  12.301 -0.3581 -0.0802  0.0002
  682TIP3   OH223460   4.526   3.919  12.557 -0.0059  0.4214  0.0805
  682TIP3    H123461   4.438   3.930  12.593 -0.3632  0.2245 -0.7102
  682TIP3    H223462   4.583   3.973  12.612 -0.3649 -0.7348  1.6176
  683TIP3   OH223463   5.733   3.129   5.989 -0.2921 -0.0497 -0.3193
  683TIP3    H123464   5.824   3.134   5.960 -0.6182 -0.9666 -1.5682
  683TIP3    H223465   5.694   3.060   5.934 -1.7874  0.4844  0.0348
  684TIP3   OH223466   4.513   4.248   5.129  0.2006  0.2426  0.0991
  684TIP3    H123467   4.486   4.286   5.045 -0.4824 -1.4894 -0.4847
  684TIP3    H223468   4.473   4.161   5.130 -0.2232  0.4407  2.4669
  685TIP3   OH223469   0.172   0.474   5.634  0.0715 -0.0453 -0.2098
  685TIP3    H123470   0.110   0.411   5.671  0.6772  0.3708  1.5793
  685TIP3    H223471   0.219   0.508   5.710  0.9278  1.3094 -1.3251
  686TIP3   OH223472   2.699   4.903  15.635  0.1610 -0.2684  0.0301
  686TIP3    H123473   2.616   4.883  15.590  0.1373  1.4803 -0.7094
  686TIP3    H223474   2.681   4.984  15.682  1.1793 -0.3930  0.6329
  687TIP3   OH223475   5.112   6.547  11.442 -0.1751 -0.1238 -0.0915
  687TIP3    H123476   5.080   6.465  11.479  1.3493 -0.3998  0.6253
  687TIP3    H223477   5.174   6.580  11.507 -1.7893  2.2870  0.2822
  688TIP3   OH223478   6.354   1.092  16.477  0.0205  0.5476 -0.1607
  688TIP3    H123479   6.400   1.074  16.395  0.7279  0.1595  0.3179
  688TIP3    H223480   6.354   1.008  16.523 -0.7162  0.6703  0.0720
  689TIP3   OH223481   0.602   4.802  13.152 -0.0881  1.1229  0.3310
  689TIP3    H123482   0.692   4.822  13.125 -0.1810  1.2728  0.1255
  689TIP3    H223483   0.553   4.801  13.070 -0.2088  0.6946  0.4106
  690TIP3   OH223484   0.426   1.833   6.501 -0.1849  0.6157  0.1615
  690TIP3    H123485   0.495   1.892   6.531 -1.2224  1.9923 -0.1388
  690TIP3    H223486   0.358   1.891   6.467 -1.0840 -0.7668 -0.4198
  691TIP3   OH223487   1.269   4.572   4.206  0.0166  0.5639 -0.5467
  691TIP3    H123488   1.201   4.623   4.250 -2.0704 -0.8783 -2.0681
  691TIP3    H223489   1.342   4.572   4.269 -1.7843  1.1225  1.6216
  692TIP3   OH223490   0.487   0.905  12.641 -0.1655  0.0159  0.6279
  692TIP3    H123491   0.424   0.966  12.601  1.0607  1.5580  0.9772
  692TIP3    H223492   0.452   0.818  12.622  0.1563  0.6867 -3.4047
  693TIP3   OH223493   0.318   4.416  15.692 -0.4489  0.3646  0.5949
  693TIP3    H123494   0.391   4.407  15.631  0.4577  2.6658  1.3046
  693TIP3    H223495   0.268   4.490  15.658 -0.1772  1.3921  2.4092
  694TIP3   OH223496   0.626   5.545  15.713  0.2072  0.3757 -0.2637
  694TIP3    H123497   0.708   5.551  15.761  0.5532 -0.0265 -0.8042
  694TIP3    H223498   0.563   5.595  15.766  0.5280 -0.2651  0.7204
  695TIP3   OH223499   2.749   2.242   5.240  0.3430  0.4684 -1.0124
  695TIP3    H123500   2.843   2.238   5.257 -0.2651  0.9707  2.9083
  695TIP3    H223501   2.728   2.335   5.243 -0.9638  0.1369  2.8494
  696TIP3   OH223502   1.297   5.957  14.915  0.0255 -0.1642 -0.1852
  696TIP3    H123503   1.316   5.864  14.904 -1.0009 -0.7030  2.3040
  696TIP3    H223504   1.373   5.992  14.962 -0.4997 -0.1843  0.6881
  697TIP3   OH223505   2.270   4.205  11.235 -0.4613 -0.8901  0.4027
  697TIP3    H123506   2.195   4.148  11.222 -0.2116 -1.4503  1.3901
  697TIP3    H223507   2.250   4.254  11.315  0.0319 -0.7322  0.4334
  698TIP3   OH223508   3.985   0.658   3.935 -0.3134 -0.1259 -0.1015
  698TIP3    H123509   3.969   0.631   4.025  2.0661 -1.8882 -0.1562
  698TIP3    H223510   3.978   0.578   3.884 -2.6366  1.0092 -1.6905
  699TIP3   OH223511   0.203   2.458   3.737 -0.6755 -0.0766 -0.0675
  699TIP3    H123512   0.265   2.405   3.687  0.7153 -0.2675  1.8082
  699TIP3    H223513   0.208   2.544   3.695 -0.3599 -0.5156 -0.9559
  700TIP3   OH223514   3.096   2.368   2.549 -0.1545  0.3065 -0.4443
  700TIP3    H123515   3.117   2.335   2.462 -0.8788 -0.0946 -0.4665
  700TIP3    H223516   3.056   2.294   2.594  0.5061  0.4184  0.3357
  701TIP3   OH223517   3.840   1.844   6.164  0.1791  0.0741  0.0075
  701TIP3    H123518   3.792   1.925   6.145 -0.5776 -0.1478  0.9390
  701TIP3    H223519   3.924   1.874   6.200  0.0508  0.4442  0.0052
  702TIP3   OH223520   0.621   2.688  12.427 -0.3390  0.0102 -0.1640
  702TIP3    H123521   0.539   2.736  12.415 -0.3000 -0.3878 -2.2605
  702TIP3    H223522   0.666   2.695  12.343  1.1929 -0.8713  0.5475
  703TIP3   OH223523   2.993   5.687  17.088 -0.2441 -0.0099 -0.1879
  703TIP3    H123524   2.989   5.632  17.010  1.5346 -0.3166 -0.0866
  703TIP3    H223525   3.075   5.735  17.079  0.0976 -0.2083  1.5962
  704TIP3   OH223526   0.212   1.316   0.678  0.3586  0.1921  0.3684
  704TIP3    H123527   0.253   1.357   0.603 -0.2904  1.5501  0.7492
  704TIP3    H223528   0.220   1.222   0.662 -0.2158  0.4706 -1.6321
  705TIP3   OH223529   5.659   1.617   5.422  0.0516  0.1487 -0.5378
  705TIP3    H123530   5.688   1.530   5.449  0.8353  0.3057 -0.8547
  705TIP3    H223531   5.608   1.649   5.496  0.6687 -0.1473  0.0184
  706TIP3   OH223532   3.566   4.312  15.853  0.2517  0.2604 -0.4525
  706TIP3    H123533   3.571   4.224  15.816 -1.6650 -0.0916  0.1086
  706TIP3    H223534   3.508   4.360  15.794 -0.6696  0.4518  0.6053
  707TIP3   OH223535   3.837   5.417   3.797  0.0434 -0.5560  0.0770
  707TIP3    H123536   3.885   5.466   3.864  2.0582 -2.1269 -0.1504
  707TIP3    H223537   3.841   5.474   3.719 -0.8701  0.5365  0.8166
  708TIP3   OH223538   6.240   0.159  11.811  0.0746 -0.2680  0.3922
  708TIP3    H123539   6.174   0.218  11.776 -0.7514 -1.4911 -0.1300
  708TIP3    H223540   6.285   0.124  11.734  0.8083 -0.0390  0.7105
  709TIP3   OH223541   1.489   3.990   5.476 -1.3255 -0.1170 -0.0345
  709TIP3    H123542   1.514   4.081   5.465 -0.2412 -0.2501  1.3214
  709TIP3    H223543   1.475   3.979   5.570 -1.0192 -1.4643 -0.1314
  710TIP3   OH223544   0.499   0.814  14.145 -0.0840 -0.1133 -0.5277
  710TIP3    H123545   0.561   0.833  14.215 -2.2248 -0.4690  1.5449
  710TIP3    H223546   0.463   0.900  14.122 -2.4925 -0.3972  1.8784
  711TIP3   OH223547   3.835   1.378   1.178 -0.2867  0.1340 -0.1235
  711TIP3    H123548   3.811   1.411   1.092 -1.5481  0.7930  0.4524
  711TIP3    H223549   3.918   1.333   1.165  0.0178  1.0598 -1.4915
  712TIP3   OH223550   6.018   5.398  13.662  0.5422 -0.0492 -0.3531
  712TIP3    H123551   6.058   5.313  13.681 -0.0584 -0.0763  0.8155
  712TIP3    H223552   6.032   5.411  13.568  1.5259 -0.9746 -0.3376
  713TIP3   OH223553   2.951   1.199   4.646 -0.6277 -0.3364  0.1330
  713TIP3    H123554   2.921   1.119   4.603  0.4512 -0.9212  0.4429
  713TIP3    H223555   3.046   1.189   4.649 -0.4288  1.2938 -0.4818
  714TIP3   OH223556   4.791   4.172   5.119  1.1433  0.1289 -0.4649
  714TIP3    H123557   4.837   4.191   5.201  0.6187  0.5030 -0.2541
  714TIP3    H223558   4.701   4.200   5.135  0.8286 -0.6692 -0.8538
  715TIP3   OH223559   1.868   3.588   5.032 -0.3036  0.1575 -0.4065
  715TIP3    H123560   1.917   3.635   4.965 -0.4258  0.9061  0.0208
  715TIP3    H223561   1.818   3.656   5.077  1.8429  0.0871  2.2333
  716TIP3   OH223562   3.465   4.811   0.815 -0.3679 -0.0369  0.1783
  716TIP3    H123563   3.469   4.723   0.777 -2.8985  0.7782 -2.0810
  716TIP3    H223564   3.401   4.858   0.761  1.5135  3.4525  0.8591
  717TIP3   OH223565   4.929   3.938  13.489  0.3374 -0.5096 -0.1041
  717TIP3    H123566   4.999   3.886  13.450 -0.2100 -1.3034 -0.0523
  717TIP3    H223567   4.892   3.987  13.416  1.6326  0.7157  0.0583
  718TIP3   OH223568   2.478   3.628   5.925  0.3753 -0.1223 -0.2231
  718TIP3    H123569   2.439   3.620   6.012  2.4726 -1.3575  0.6352
  718TIP3    H223570   2.502   3.720   5.918  0.4094 -0.0630  0.6142
  719TIP3   OH223571   3.157   5.215   5.181 -0.5884  0.4761 -0.5289
  719TIP3    H123572   3.236   5.178   5.143 -0.8423  0.3403 -0.9322
  719TIP3    H223573   3.139   5.293   5.128 -0.3995  0.8308 -0.0724
  720TIP3   OH223574   4.220   6.569   1.268 -0.5727  0.1484 -0.5037
  720TIP3    H123575   4.214   6.648   1.214 -0.1643  0.4073 -0.1844
  720TIP3    H223576   4.273   6.597   1.344 -2.0744  0.1005  0.5794
  721TIP3   OH223577   4.359   5.438   5.514 -0.2388 -0.0618 -0.1643
  721TIP3    H123578   4.409   5.482   5.445 -1.7679 -0.1631 -1.3636
  721TIP3    H223579   4.268   5.447   5.487 -0.7939 -1.0186  1.3215
  722TIP3   OH223580   0.289   3.629  13.899 -0.0089 -0.3025  0.3603
  722TIP3    H123581   0.359   3.564  13.901  1.5199  1.2948  0.2483
  722TIP3    H223582   0.211   3.579  13.875  0.8907 -2.2788  1.4170
  723TIP3   OH223583   2.626   3.912  11.353 -0.0738  0.0363 -0.2082
  723TIP3    H123584   2.579   3.940  11.275  0.3491 -1.0218 -0.8545
  723TIP3    H223585   2.683   3.842  11.323  0.1958 -0.2911  1.0268
  724TIP3   OH223586   5.889   3.764   1.174 -0.2489  0.3747 -0.0838
  724TIP3    H123587   5.955   3.763   1.243 -1.6926 -0.8752  1.3084
  724TIP3    H223588   5.934   3.801   1.098  2.1766 -0.8630  0.7055
  725TIP3   OH223589   2.273   3.810   1.226 -0.6317  0.4121  0.3521
  725TIP3    H123590   2.343   3.804   1.291  1.5560  0.6823 -1.9116
  725TIP3    H223591   2.210   3.743   1.253  1.0775 -0.6740  1.7651
  726TIP3   OH223592   6.003   3.315   4.303 -0.1785 -0.2872 -0.4404
  726TIP3    H123593   5.915   3.343   4.327 -0.3009 -0.0344 -1.1565
  726TIP3    H223594   6.040   3.390   4.256  1.4151  0.6226  2.2031
  727TIP3   OH223595   1.341   2.462  15.844  0.1675 -0.6403  0.4797
  727TIP3    H123596   1.281   2.441  15.915  0.6784 -2.1020  0.4862
  727TIP3    H223597   1.300   2.536  15.799 -2.1417 -2.2231 -0.1012
  728TIP3   OH223598   1.841   6.763  12.133 -0.3591 -0.2915  0.1771
  728TIP3    H123599   1.784   6.695  12.097  1.7808 -1.4255 -1.1402
  728TIP3    H223600   1.794   6.844  12.117 -2.2222 -1.3047  0.3372
  729TIP3   OH223601   1.760   4.662   3.222  0.3015  0.5113 -0.4616
  729TIP3    H123602   1.845   4.662   3.178  0.1724  0.3537 -0.7116
  729TIP3    H223603   1.700   4.623   3.158  0.3321 -0.7704  0.2818
  730TIP3   OH223604   0.075   3.222   0.888  0.1559 -0.1938  0.3495
  730TIP3    H123605  -0.017   3.215   0.859 -0.0016  1.3139  0.4596
  730TIP3    H223606   0.118   3.148   0.845 -0.6519  0.3887 -1.5606
  731TIP3   OH223607   4.918   0.401  11.696  0.4561 -0.1479  0.7201
  731TIP3    H123608   4.914   0.306  11.713  1.6640 -0.9526 -2.9574
  731TIP3    H223609   5.010   0.423  11.708  1.2064 -0.5901 -3.3492
  732TIP3   OH223610   2.725   4.956   4.033  0.3922  0.5961  0.0426
  732TIP3    H123611   2.773   4.876   4.012 -0.6435  0.1933 -0.8031
  732TIP3    H223612   2.642   4.947   3.987 -0.3064  1.5086  1.1049
  733TIP3   OH223613   6.448   5.981  15.680  0.0973  0.0382  0.2392
  733TIP3    H123614   6.501   6.001  15.758  1.1246 -0.7464 -0.2568
  733TIP3    H223615   6.405   6.064  15.659 -1.7310 -0.2045  2.7893
  734TIP3   OH223616   4.144   3.217   3.729  0.5093  0.2534 -0.4408
  734TIP3    H123617   4.107   3.161   3.798 -2.2374 -0.0875 -2.1135
  734TIP3    H223618   4.160   3.301   3.772 -0.1263 -0.2684  0.8558
  735TIP3   OH223619   6.120   0.905  14.389  0.2009  0.3141  0.2147
  735TIP3    H123620   6.091   0.886  14.478  1.4010  1.6690  0.8960
  735TIP3    H223621   6.189   0.970  14.399  1.7575 -1.0062 -1.5725
  736TIP3   OH223622   2.685   3.742   5.313  0.1645 -0.1886 -0.0833
  736TIP3    H123623   2.605   3.754   5.364 -0.0373 -1.5797 -0.0433
  736TIP3    H223624   2.700   3.826   5.271 -2.6035 -0.5896 -1.9416
  737TIP3   OH223625   1.610   0.580  12.070  0.0985 -0.4589  0.1247
  737TIP3    H123626   1.593   0.651  12.007  0.7381  0.2518  0.7434
  737TIP3    H223627   1.599   0.500  12.019  0.0804  0.0991 -0.7665
  738TIP3   OH223628   3.683   6.211  12.017 -0.3028  0.7380  0.0260
  738TIP3    H123629   3.685   6.205  11.921 -0.9257  0.7538  0.0136
  738TIP3    H223630   3.634   6.134  12.045 -0.1783  0.7710  0.3313
  739TIP3   OH223631   4.687   4.511   1.218  0.3157  0.2567 -0.2134
  739TIP3    H123632   4.614   4.513   1.280  0.7202 -0.4402  0.2958
  739TIP3    H223633   4.672   4.433   1.165  0.3162  0.4975 -0.5679
  740TIP3   OH223634   3.175   4.025  15.191  0.4202 -0.2114 -0.2411
  740TIP3    H123635   3.170   4.117  15.215  2.5956 -0.0348 -0.3609
  740TIP3    H223636   3.199   4.026  15.098  0.3625 -0.8831 -0.2630
  741TIP3   OH223637   0.200   4.732   5.294  0.1427 -0.2044 -0.1382
  741TIP3    H123638   0.135   4.664   5.312 -0.2004 -0.0530 -0.7750
  741TIP3    H223639   0.156   4.790   5.232  1.3138 -0.7517 -1.4912
  742TIP3   OH223640   1.774   4.398  16.183 -0.0174  0.4211  0.9104
  742TIP3    H123641   1.785   4.307  16.154  0.9747  1.4510 -2.1464
  742TIP3    H223642   1.860   4.437  16.171 -0.4932  1.8498  2.0387
  743TIP3   OH223643   1.808   1.050   6.296  0.1253  0.2049  0.0570
  743TIP3    H123644   1.768   1.135   6.314  2.0403  1.7516 -2.5570
  743TIP3    H223645   1.892   1.054   6.342  1.0392  0.5315 -1.5895
  744TIP3   OH223646   1.460   4.679   5.993  0.6347  0.4099 -0.5877
  744TIP3    H123647   1.457   4.584   5.987  0.5988  0.4649 -1.6355
  744TIP3    H223648   1.386   4.709   5.940  1.3897  1.0470 -1.2924
  745TIP3   OH223649   3.483   0.792  14.890 -0.0039  0.5141  0.4638
  745TIP3    H123650   3.461   0.830  14.805 -0.5119  1.6346  1.0763
  745TIP3    H223651   3.570   0.755  14.878  0.1363  1.1114 -0.4117
  746TIP3   OH223652   4.890   1.303   2.031 -0.4955  0.1858  0.4722
  746TIP3    H123653   4.842   1.273   2.108 -0.0943 -0.9325  0.2926
  746TIP3    H223654   4.899   1.225   1.976 -1.0772  1.0285 -0.8679
  747TIP3   OH223655   3.683   1.061  12.614  0.3743 -0.0024 -0.2513
  747TIP3    H123656   3.687   1.129  12.547  2.6810 -0.1208 -0.2625
  747TIP3    H223657   3.662   0.981  12.566  1.1552  0.0666 -0.7008
  748TIP3   OH223658   0.216   3.863   1.757  0.0248 -0.0822 -0.1739
  748TIP3    H123659   0.185   3.850   1.846 -0.0466 -1.6573 -0.4178
  748TIP3    H223660   0.304   3.825   1.757  0.1621  0.2253 -0.6962
  749TIP3   OH223661   2.687   3.228  16.759  0.7310 -0.1807 -0.5987
  749TIP3    H123662   2.710   3.261  16.846  1.1708  0.0924 -0.8123
  749TIP3    H223663   2.626   3.292  16.724  1.3633  0.2687 -0.9016
  750TIP3   OH223664   0.871   4.583  12.269  0.2702 -0.4430  0.2350
  750TIP3    H123665   0.791   4.609  12.222  1.0830  0.9290 -0.4335
  750TIP3    H223666   0.904   4.665  12.306  1.3027 -1.0308  0.6173
  751TIP3   OH223667   2.639   0.268   5.554  0.1529 -0.1655 -0.3410
  751TIP3    H123668   2.644   0.325   5.477 -2.5405 -1.8480 -1.8518
  751TIP3    H223669   2.644   0.179   5.518 -0.5286 -0.9660  1.4874
  752TIP3   OH223670   0.668   3.723  13.760 -0.0029 -0.4853  0.3008
  752TIP3    H123671   0.630   3.746  13.845  0.2282 -0.2411  0.3391
  752TIP3    H223672   0.694   3.632  13.770 -1.0677 -0.8238  0.0940
  753TIP3   OH223673   0.319   0.060  15.714 -0.2204 -0.3978  0.5274
  753TIP3    H123674   0.275   0.003  15.651 -0.3197 -1.9484  1.9645
  753TIP3    H223675   0.400   0.086  15.670 -0.0705 -1.8420 -0.0933
  754TIP3   OH223676   0.639   5.416  16.085 -0.3410 -0.0861 -0.3256
  754TIP3    H123677   0.558   5.405  16.035  0.0693 -1.4781 -0.7215
  754TIP3    H223678   0.693   5.341  16.060  0.3125 -0.2092  1.3694
  755TIP3   OH223679   5.799   5.693  14.929 -0.1038 -0.5117 -0.0833
  755TIP3    H123680   5.889   5.692  14.960 -0.5690 -0.8350  1.3042
  755TIP3    H223681   5.775   5.601  14.922 -0.1569 -0.4327 -0.9672
  756TIP3   OH223682   5.535   0.755  17.076  0.2054  0.1929 -0.0456
  756TIP3    H123683   5.481   0.759  17.155  0.1802  2.0047 -0.1355
  756TIP3    H223684   5.476   0.725  17.008 -1.0854  3.4223 -0.4316
  757TIP3   OH223685   6.279   1.567   2.676 -0.0741  0.2199 -0.6647
  757TIP3    H123686   6.328   1.617   2.742 -0.8523 -0.1541  0.2117
  757TIP3    H223687   6.243   1.493   2.725 -0.7619  0.0052 -1.4962
  758TIP3   OH223688   1.370   0.176   6.300  0.0128 -0.2461 -0.0274
  758TIP3    H123689   1.453   0.163   6.345 -0.4475  0.1625  0.9504
  758TIP3    H223690   1.346   0.089   6.269  0.5420 -0.4542  0.1418
  759TIP3   OH223691   3.154   5.631   5.832 -0.6609  0.4197  0.1702
  759TIP3    H123692   3.071   5.674   5.810 -0.3107  1.6789  1.2097
  759TIP3    H223693   3.209   5.702   5.865  0.9066 -0.3775 -0.7097
  760TIP3   OH223694   6.573   0.140  15.517 -0.0356  0.2511 -0.1793
  760TIP3    H123695   6.624   0.059  15.513 -1.4303 -0.5600 -2.6073
  760TIP3    H223696   6.482   0.112  15.511 -0.5643  1.9549 -0.5106
  761TIP3   OH223697   4.766   4.361  12.473 -0.2470 -0.5668 -0.7968
  761TIP3    H123698   4.858   4.386  12.482  0.0375 -1.1308 -2.1252
  761TIP3    H223699   4.765   4.292  12.408 -1.4384 -1.7280  0.4176
  762TIP3   OH223700   2.417   2.005  13.250  0.6502  0.4322 -0.5644
  762TIP3    H123701   2.504   2.040  13.233  0.5088  0.2176 -1.7180
  762TIP3    H223702   2.380   1.987  13.164  0.3630 -1.7001 -0.0146
  763TIP3   OH223703   3.399   0.168  12.898 -0.1770 -0.3892  0.2700
  763TIP3    H123704   3.386   0.113  12.975  1.0091 -0.1419  0.6481
  763TIP3    H223705   3.474   0.129  12.852 -1.7858 -1.4317 -1.5688
  764TIP3   OH223706   5.369   4.231  14.437 -0.1377  0.9963  0.4339
  764TIP3    H123707   5.285   4.276  14.426 -1.0036 -0.9672 -1.2274
  764TIP3    H223708   5.345   4.142  14.466  1.3534  0.3944 -0.1270
  765TIP3   OH223709   3.725   6.451  11.240  0.0268  0.0866 -0.3139
  765TIP3    H123710   3.806   6.493  11.210 -0.3420  0.1461 -1.2203
  765TIP3    H223711   3.668   6.524  11.266 -0.5991  0.1588 -1.8506
  766TIP3   OH223712   4.792   5.133  11.364 -0.2178  0.3496  0.0238
  766TIP3    H123713   4.839   5.100  11.288 -1.1787 -1.9370  0.3811
  766TIP3    H223714   4.852   5.119  11.437 -1.0456 -1.6261  0.3324
  767TIP3   OH223715   5.318   1.124  13.689 -0.0784  0.1567  0.1619
  767TIP3    H123716   5.282   1.095  13.773  0.2309 -1.4099 -0.2250
  767TIP3    H223717   5.402   1.165  13.711  0.1679 -0.5670  0.5964
  768TIP3   OH223718   0.514   6.371   5.685  0.2307 -0.1447  0.1179
  768TIP3    H123719   0.489   6.296   5.739 -0.6857  1.0430  1.3716
  768TIP3    H223720   0.461   6.364   5.607  1.9326 -2.1731 -0.9093
  769TIP3   OH223721   4.252   5.682  11.003  0.5432 -0.1134  0.3654
  769TIP3    H123722   4.235   5.760  11.056  0.7563 -0.8682  1.5604
  769TIP3    H223723   4.263   5.611  11.067 -1.6903 -1.5276 -0.7702
  770TIP3   OH223724   1.773   1.448   1.420  0.0423  0.0289  0.5453
  770TIP3    H123725   1.792   1.506   1.346  1.2951 -2.4744 -1.1449
  770TIP3    H223726   1.795   1.501   1.497  1.3785  1.7312 -0.9404
  771TIP3   OH223727   3.263   2.626  13.584 -0.3532  0.1077  0.1459
  771TIP3    H123728   3.167   2.626  13.580 -0.2975  0.3018 -1.1777
  771TIP3    H223729   3.283   2.569  13.658 -1.4624 -1.3159 -0.6275
  772TIP3   OH223730   5.002   5.059   5.942  0.7236 -0.2642  0.2815
  772TIP3    H123731   4.956   4.976   5.956 -1.6611  0.9269 -0.0977
  772TIP3    H223732   4.941   5.111   5.889  2.5606  1.3980 -0.2675
  773TIP3   OH223733   6.151   5.447  12.231  0.6795  0.1375  0.6780
  773TIP3    H123734   6.136   5.384  12.160  1.3486  0.1546  0.5242
  773TIP3    H223735   6.230   5.495  12.205  0.3534  0.8285  0.9451
  774TIP3   OH223736   4.912   0.655  13.583  0.7443  0.0593 -0.1068
  774TIP3    H123737   5.001   0.646  13.549  0.4965  2.8241 -1.6186
  774TIP3    H223738   4.897   0.749  13.589 -2.5617 -0.2997 -1.2146
  775TIP3   OH223739   2.116   2.078  16.474  0.3409 -0.8801 -0.2563
  775TIP3    H123740   2.023   2.074  16.448  0.3622  2.7697 -1.1818
  775TIP3    H223741   2.114   2.118  16.561  0.9826 -1.5864  0.0726
  776TIP3   OH223742   4.047   3.878   6.702  0.2819  0.0183 -0.5422
  776TIP3    H123743   4.112   3.948   6.708  1.3694 -0.9941 -0.5188
  776TIP3    H223744   4.090   3.809   6.652 -0.7743 -0.6603 -0.5266
  777TIP3   OH223745   0.747   2.419  12.120 -0.1131  0.4764  0.3770
  777TIP3    H123746   0.667   2.421  12.068 -0.9791  0.3953  1.6819
  777TIP3    H223747   0.790   2.502  12.102  0.4607 -0.2693 -1.7853
  778TIP3   OH223748   0.772   1.776   5.406  0.7260  0.0915  0.1887
  778TIP3    H123749   0.758   1.692   5.450 -0.3053 -0.0164 -0.3348
  778TIP3    H223750   0.691   1.824   5.421  1.3235  1.0115  0.5138
  779TIP3   OH223751   2.931   5.249  16.633  0.5417  0.2492 -0.4753
  779TIP3    H123752   2.954   5.339  16.609  0.0416  0.1114 -1.4732
  779TIP3    H223753   2.960   5.196  16.558 -0.2497 -0.2858 -0.4040
  780TIP3   OH223754   1.840   3.974   3.611 -0.0936  0.1965  0.5744
  780TIP3    H123755   1.752   4.012   3.619  0.0820  0.3512  1.8934
  780TIP3    H223756   1.883   4.027   3.545 -1.1823 -0.2335 -0.4941
  781TIP3   OH223757   6.029   4.037  16.257  0.6483 -0.5643  0.3122
  781TIP3    H123758   6.086   4.015  16.184 -0.7542 -1.5752 -0.5075
  781TIP3    H223759   5.987   3.953  16.281  0.7619 -0.1686  1.9798
  782TIP3   OH223760   2.566   2.951  12.668 -0.8085  0.3898 -0.1894
  782TIP3    H123761   2.493   2.910  12.716  0.0063 -0.3136  0.4632
  782TIP3    H223762   2.550   3.045  12.677 -2.0424  0.2428 -0.6736
  783TIP3   OH223763   6.491   3.246  14.410 -0.2210 -0.0286  0.5552
  783TIP3    H123764   6.442   3.328  14.407  0.6911  0.6335  3.1846
  783TIP3    H223765   6.426   3.180  14.435 -0.5915  0.1476  0.0740
  784TIP3   OH223766   3.313   0.315   2.533  0.0259  0.0981 -0.0038
  784TIP3    H123767   3.358   0.364   2.601 -0.0762  1.2662 -0.7730
  784TIP3    H223768   3.350   0.226   2.539  0.8813  0.5049  0.7680
  785TIP3   OH223769   4.268   5.051   1.919  0.1460 -0.5121 -0.2059
  785TIP3    H123770   4.233   5.114   1.856 -0.4456  0.0673  0.6802
  785TIP3    H223771   4.191   5.018   1.965  0.5771 -0.8736  0.2676
  786TIP3   OH223772   6.302   2.644  14.085  0.4232 -0.0970  0.0552
  786TIP3    H123773   6.328   2.665  13.995  2.1580  0.4432  0.6644
  786TIP3    H223774   6.302   2.728  14.130 -1.1026 -0.2736  0.4129
  787TIP3   OH223775   5.902   0.831   1.917 -0.1640  0.3053  0.3503
  787TIP3    H123776   5.830   0.893   1.926  0.1951  0.9864 -1.4644
  787TIP3    H223777   5.961   0.852   1.990 -0.9069  0.9182  0.7820
  788TIP3   OH223778   2.949   4.235  11.864  0.7216  0.1399  0.1448
  788TIP3    H123779   2.932   4.329  11.860 -0.0936  0.0040  0.3600
  788TIP3    H223780   2.894   4.198  11.794  1.2221 -0.1476 -0.0956
  789TIP3   OH223781   0.730   1.533   5.504  0.4350  0.4954 -0.3235
  789TIP3    H123782   0.811   1.484   5.517  0.6439  1.0099  0.2994
  789TIP3    H223783   0.669   1.496   5.569 -0.1352 -0.5602 -1.4334
  790TIP3   OH223784   1.739   3.204   4.122 -0.2610  0.0015 -0.6046
  790TIP3    H123785   1.801   3.178   4.190 -0.5718 -1.3056 -0.8228
  790TIP3    H223786   1.661   3.231   4.171  0.0874  0.6153 -0.3785
  791TIP3   OH223787   4.003   6.577   1.521  0.2820 -0.0249  0.2848
  791TIP3    H123788   3.913   6.551   1.499  0.7033 -1.2309 -0.0250
  791TIP3    H223789   4.002   6.673   1.512 -0.7700 -0.0904 -0.4742
  792TIP3   OH223790   1.498   2.608  17.062  0.3632 -0.1527 -0.3489
  792TIP3    H123791   1.405   2.614  17.087  0.7279  2.2451  0.5674
  792TIP3    H223792   1.545   2.603  17.145  1.2164  1.6742 -0.6950
  793TIP3   OH223793   5.610   1.247   4.789 -0.5153  0.6957  0.4309
  793TIP3    H123794   5.646   1.161   4.811  1.6522  1.6172  0.6241
  793TIP3    H223795   5.521   1.245   4.823 -0.3200 -1.2920  0.8959
  794TIP3   OH223796   5.869   5.925  14.827  0.3809 -0.0230  0.4320
  794TIP3    H123797   5.829   5.850  14.872  1.1456 -0.2138  0.8024
  794TIP3    H223798   5.953   5.937  14.871  0.9511  0.0605 -0.6617
  795TIP3   OH223799   2.412   3.776  14.435  0.2218  0.0315  0.3825
  795TIP3    H123800   2.434   3.860  14.395 -0.0056  0.6012  1.4410
  795TIP3    H223801   2.424   3.790  14.528  0.1832 -1.1178  0.5642
  796TIP3   OH223802   2.238   5.548  12.426 -0.1265 -0.0371  0.3826
  796TIP3    H123803   2.214   5.641  12.422  1.1897  0.2995 -0.2576
  796TIP3    H223804   2.184   5.512  12.495 -0.9322  1.1328  0.3816
  797TIP3   OH223805   1.336   3.235  13.321 -0.3008 -0.4462  0.0840
  797TIP3    H123806   1.378   3.312  13.283 -2.9547  0.4529 -1.1579
  797TIP3    H223807   1.396   3.163  13.301  1.6670  1.1063  0.2833
  798TIP3   OH223808   4.669   3.056  12.493 -0.4787 -0.4147  0.1866
  798TIP3    H123809   4.654   3.119  12.563  0.7400  0.0729  0.0159
  798TIP3    H223810   4.705   2.979  12.537  1.0498  0.1892  0.0003
  799TIP3   OH223811   5.054   3.505   4.800 -0.1492 -0.0451 -0.2464
  799TIP3    H123812   5.016   3.554   4.873 -2.5228 -1.6442 -0.3329
  799TIP3    H223813   4.993   3.519   4.727 -0.0331 -1.7973 -0.7104
  800TIP3   OH223814   4.199   6.548  13.833 -0.3306  0.0587 -0.7622
  800TIP3    H123815   4.128   6.485  13.820 -1.1699  1.1935 -1.7810
  800TIP3    H223816   4.194   6.571  13.925 -0.0209 -1.3621 -0.3804
  801TIP3   OH223817   6.200   1.845   0.063  0.4169 -0.1366 -0.2787
  801TIP3    H123818   6.152   1.806  -0.010  1.0880  0.6282 -1.1480
  801TIP3    H223819   6.200   1.939   0.044  1.2257 -0.0096  0.3236
  802TIP3   OH223820   3.752   0.891  15.898 -0.1018 -0.7120  0.8672
  802TIP3    H123821   3.693   0.956  15.860 -0.1016 -0.7155  0.8597
  802TIP3    H223822   3.831   0.897  15.844  0.1634 -0.2141  1.3072
  803TIP3   OH223823   6.028   5.577   3.326 -0.3815  0.8946  0.8417
  803TIP3    H123824   6.041   5.624   3.244  2.5404  0.2141  0.8480
  803TIP3    H223825   5.938   5.545   3.322  0.0107  0.0674 -2.5370
  804TIP3   OH223826   4.803   1.382   5.834 -0.1726  0.3192 -0.2232
  804TIP3    H123827   4.850   1.351   5.912 -3.4222  4.1176  3.4974
  804TIP3    H223828   4.868   1.433   5.786  1.6072 -1.1381  0.5933
  805TIP3   OH223829   2.669   1.140   5.636 -0.0721  0.6294  0.1867
  805TIP3    H123830   2.673   1.103   5.547 -3.4775  0.1235  0.1933
  805TIP3    H223831   2.696   1.231   5.624  1.2218  0.1117 -1.0639
  806TIP3   OH223832   1.078   0.911   4.647  0.2871  0.1827  0.1523
  806TIP3    H123833   1.110   1.000   4.664 -0.3867  0.2354  1.2007
  806TIP3    H223834   1.132   0.880   4.575  0.7505  1.3274 -0.0109
  807TIP3   OH223835   3.595   6.675   0.274  0.3038 -0.1875  0.5530
  807TIP3    H123836   3.515   6.623   0.277  0.0419  0.2543  1.7727
  807TIP3    H223837   3.639   6.649   0.194 -0.8147 -0.8151  0.1447
  808TIP3   OH223838   3.507   0.126  16.944  0.3081 -0.7816  0.1228
  808TIP3    H123839   3.458   0.044  16.953  0.6884 -1.2124 -1.6876
  808TIP3    H223840   3.591   0.108  16.986  0.1766 -1.1210  0.2466
  809TIP3   OH223841   5.735   1.151   2.644  0.2094  0.6893 -0.3440
  809TIP3    H123842   5.829   1.159   2.627  0.5642 -1.1069  0.5959
  809TIP3    H223843   5.701   1.097   2.572  0.3491 -0.6352  0.5612
  810TIP3   OH223844   2.922   0.205   4.994 -0.4332 -0.2451  0.5415
  810TIP3    H123845   2.982   0.155   5.049  0.8574  0.2637 -0.3724
  810TIP3    H223846   2.922   0.159   4.910 -0.4745  0.3723  0.1956
  811TIP3   OH223847   2.442   5.393   3.286  0.3712  0.3362 -0.3626
  811TIP3    H123848   2.391   5.417   3.209 -0.4007  2.1033  0.6650
  811TIP3    H223849   2.384   5.409   3.360  0.9418 -1.7795  0.5899
  812TIP3   OH223850   5.675   6.280   1.125  0.2153 -0.3569  0.5089
  812TIP3    H123851   5.587   6.317   1.112  0.1310 -0.6494  0.2442
  812TIP3    H223852   5.676   6.200   1.072  1.2512  0.6082 -0.9974
  813TIP3   OH223853   3.866   3.381   6.829 -0.4459  0.6451 -0.0154
  813TIP3    H123854   3.889   3.331   6.751  1.0208  0.5016  0.4862
  813TIP3    H223855   3.782   3.422   6.808 -0.4082  0.0366 -1.3915
  814TIP3   OH223856   3.744   6.381   3.031 -0.0712  0.0450 -0.1414
  814TIP3    H123857   3.754   6.418   2.944 -2.7230  1.6028  0.1420
  814TIP3    H223858   3.778   6.448   3.090 -0.7086  0.1342  0.1354
  815TIP3   OH223859   4.034   0.251  15.867 -0.0395  0.7265 -0.7070
  815TIP3    H123860   3.966   0.227  15.804  0.6894 -0.4101 -1.0935
  815TIP3    H223861   4.080   0.324  15.826  0.0997  0.3328 -1.2556
  816TIP3   OH223862   2.348   0.026   5.645  0.3656 -0.2128 -0.5359
  816TIP3    H123863   2.280   0.022   5.578 -0.6904  0.6936  0.4643
  816TIP3    H223864   2.427  -0.005   5.601 -0.4551 -0.2458 -2.0113
  817TIP3   OH223865   1.069   3.189  15.194 -0.1769 -0.2129 -0.0148
  817TIP3    H123866   1.147   3.220  15.239 -0.2454 -0.3005  0.1675
  817TIP3    H223867   1.052   3.103  15.231  1.6047 -1.6836 -2.4640
  818TIP3   OH223868   2.681   1.672   6.518  0.2916 -0.1312  0.2936
  818TIP3    H123869   2.736   1.610   6.567  0.3279 -0.8103 -0.5911
  818TIP3    H223870   2.690   1.645   6.427  0.9840  1.7126 -0.2124
  819TIP3   OH223871   6.198   3.458  12.788 -0.0373 -0.4633  0.7473
  819TIP3    H123872   6.256   3.501  12.851  3.9173 -0.9695 -2.3858
  819TIP3    H223873   6.163   3.530  12.736  0.3664 -0.4144  0.5424
  820TIP3   OH223874   6.232   3.033   1.576 -0.7186 -0.4998  1.0594
  820TIP3    H123875   6.147   3.023   1.619 -1.5745  0.7683 -0.3103
  820TIP3    H223876   6.220   2.994   1.490 -0.4899  1.3388  0.1752
  821TIP3   OH223877   4.880   2.915   0.429 -0.6354  0.0653 -0.0201
  821TIP3    H123878   4.785   2.929   0.432 -1.3646 -4.3820 -0.0565
  821TIP3    H223879   4.910   2.941   0.516 -1.8756  1.4506  0.0240
  822TIP3   OH223880   2.630   6.181  15.099 -0.1310 -0.2828  0.4298
  822TIP3    H123881   2.705   6.171  15.157  0.1241 -0.9742 -0.0131
  822TIP3    H223882   2.580   6.100  15.110 -1.1664  0.4418  1.2107
  823TIP3   OH223883   5.602   5.624   2.797 -0.2274 -0.6072 -0.0497
  823TIP3    H123884   5.584   5.678   2.874  3.4896  0.2494  0.3120
  823TIP3    H223885   5.516   5.609   2.758 -1.9707  0.7198  3.0536
  824TIP3   OH223886   6.582   1.518  13.773 -0.0437 -0.0412 -0.1630
  824TIP3    H123887   6.564   1.475  13.689  1.9130 -0.2928 -0.5003
  824TIP3    H223888   6.583   1.611  13.753  1.6602 -0.1576 -0.7106
  825TIP3   OH223889   2.904   6.192   0.018  0.0766 -0.5542 -0.7172
  825TIP3    H123890   2.835   6.127   0.005  0.1988 -0.8878  0.2096
  825TIP3    H223891   2.978   6.141   0.051 -0.2925  0.2387  1.4161
  826TIP3   OH223892   1.010   3.789   4.380  0.6115 -0.4444  0.3578
  826TIP3    H123893   1.018   3.799   4.475 -0.2787  0.2022  0.3696
  826TIP3    H223894   1.026   3.696   4.364  0.0881 -0.6836  1.2094
  827TIP3   OH223895   0.375   4.652   0.832  0.0567 -0.2058  0.2354
  827TIP3    H123896   0.409   4.563   0.820  0.8201  0.1952 -0.6523
  827TIP3    H223897   0.404   4.699   0.753  0.0476  0.9406  0.9142
  828TIP3   OH223898   6.235   1.561  12.484 -0.1875 -0.2382 -0.2427
  828TIP3    H123899   6.285   1.619  12.542 -0.7272  0.3182 -0.3326
  828TIP3    H223900   6.163   1.615  12.452  0.2621 -0.4636 -1.6614
  829TIP3   OH223901   6.181   4.196   5.421  0.2689 -0.0737  0.2660
  829TIP3    H123902   6.149   4.157   5.340  2.5160 -2.5986  0.4973
  829TIP3    H223903   6.103   4.233   5.463 -1.2338 -0.5040 -2.0803
  830TIP3   OH223904   5.938   5.821  11.535 -0.1844  0.0030 -0.0832
  830TIP3    H123905   5.893   5.799  11.454  0.8667  0.6436 -0.8578
  830TIP3    H223906   6.029   5.834  11.509  0.1486  0.2979  1.1829
  831TIP3   OH223907   5.097   1.100  15.736 -0.4555 -0.3053  0.7403
  831TIP3    H123908   5.123   1.022  15.784 -0.7934 -0.3319  0.8790
  831TIP3    H223909   5.018   1.074  15.688 -0.1532 -0.2641  0.2101
  832TIP3   OH223910   5.600   5.360  11.387 -0.0915  0.6223 -0.0550
  832TIP3    H123911   5.640   5.361  11.473 -1.1510  2.6870  0.4605
  832TIP3    H223912   5.517   5.408  11.398 -0.9071 -0.2817 -1.8982
  833TIP3   OH223913   0.649   4.237  12.400 -0.1751 -0.2444  0.1053
  833TIP3    H123914   0.681   4.245  12.310  1.4350  0.4800  0.7212
  833TIP3    H223915   0.585   4.308  12.409 -0.5497 -0.4914 -0.5382
  834TIP3   OH223916   1.781   3.899  14.163 -0.0202 -0.4203 -0.1059
  834TIP3    H123917   1.731   3.920  14.242  0.6068 -1.5428  0.5989
  834TIP3    H223918   1.860   3.952  14.170 -0.7102  0.7285 -0.8112
  835TIP3   OH223919   6.385   0.253  13.387  0.2364 -0.1460  0.2194
  835TIP3    H123920   6.463   0.221  13.433  0.2502 -0.8427 -0.2943
  835TIP3    H223921   6.312   0.212  13.432  0.2563 -0.9323 -0.4661
  836TIP3   OH223922   5.913   0.253  14.432  0.7919  0.1606 -0.5158
  836TIP3    H123923   5.875   0.242  14.345 -1.1202  1.3372  0.1301
  836TIP3    H223924   5.870   0.187  14.486 -1.7844  2.6542  0.6255
  837TIP3   OH223925   2.989   4.180   5.008 -0.1588 -0.1307 -0.3067
  837TIP3    H123926   3.002   4.086   5.005 -1.0834 -0.2197 -1.6753
  837TIP3    H223927   2.920   4.193   5.073  0.3681 -0.3403  0.3036
  838TIP3   OH223928   2.913   6.336  11.837  0.7627 -0.0436  0.0758
  838TIP3    H123929   2.953   6.408  11.789  0.7620  0.5061  0.8886
  838TIP3    H223930   2.931   6.259  11.785 -1.9293  0.9427 -2.4628
  839TIP3   OH223931   3.799   1.494  16.203 -0.5694  0.1369  0.1703
  839TIP3    H123932   3.768   1.584  16.208 -1.8116 -0.2692 -0.0122
  839TIP3    H223933   3.813   1.478  16.109  0.5216  0.4181  0.2773
  840TIP3   OH223934   3.073   3.261  11.081  0.4677 -0.0347 -0.2317
  840TIP3    H123935   3.145   3.295  11.029  0.6123  0.8463  0.5407
  840TIP3    H223936   3.115   3.220  11.156  0.1046  2.5006  1.4128
  841TIP3   OH223937   0.512   4.856   2.245 -0.9179 -0.2461 -0.6050
  841TIP3    H123938   0.497   4.831   2.336  2.2616 -2.1212 -0.5328
  841TIP3    H223939   0.485   4.780   2.194  0.6831 -0.5605 -0.9856
  842TIP3   OH223940   6.490   6.416   5.412  0.2424  0.4797  0.0440
  842TIP3    H123941   6.454   6.499   5.442  1.0627  0.3870  1.2879
  842TIP3    H223942   6.480   6.356   5.486 -0.6324 -0.6293 -0.9459
  843TIP3   OH223943   0.211   0.691  12.173  0.2802 -0.5858 -0.4054
  843TIP3    H123944   0.269   0.753  12.216 -1.8043  2.2103 -1.5038
  843TIP3    H223945   0.143   0.671  12.238 -0.2496 -0.0072 -0.7716
  844TIP3   OH223946   4.203   0.597  16.101  0.1456  0.0557  0.1693
  844TIP3    H123947   4.117   0.578  16.063 -0.5822  2.8660  0.3248
  844TIP3    H223948   4.229   0.680  16.061  2.7963 -0.7300  0.1689
  845TIP3   OH223949   2.145   5.834   5.371 -0.7696  0.2907 -0.1337
  845TIP3    H123950   2.144   5.894   5.297 -1.0824  0.3210 -0.1032
  845TIP3    H223951   2.176   5.887   5.445  0.1261  0.1077 -0.3758
  846TIP3   OH223952   5.911   4.045   4.902 -0.4984  0.4442 -0.2851
  846TIP3    H123953   5.870   4.131   4.890 -0.5397  0.2287 -1.7750
  846TIP3    H223954   5.930   4.015   4.813 -1.4247 -1.5470  0.1629
  847TIP3   OH223955   5.351   1.622  15.322  0.1598 -0.1447 -0.5264
  847TIP3    H123956   5.271   1.580  15.291 -0.3492  1.3039 -1.2283
  847TIP3    H223957   5.331   1.647  15.413  0.2897 -0.9592 -0.2711
  848TIP3   OH223958   5.442   2.006  13.858  0.2817  0.6479 -0.8882
  848TIP3    H123959   5.355   2.038  13.831 -0.1474  0.5195  0.3344
  848TIP3    H223960   5.502   2.077  13.833 -0.5857  2.1618  1.2331
  849TIP3   OH223961   0.138   0.851   1.790 -0.3612 -0.5594  0.2484
  849TIP3    H123962   0.181   0.902   1.859  1.0046  0.6915 -1.4925
  849TIP3    H223963   0.161   0.760   1.810  0.7165 -0.1417  0.9577
  850TIP3   OH223964   1.120   5.487  13.501  0.0662  0.0469 -0.0190
  850TIP3    H123965   1.069   5.547  13.446 -1.0836  0.1310  1.1192
  850TIP3    H223966   1.211   5.506  13.479 -0.3023  1.8114 -0.0918
  851TIP3   OH223967   0.287   6.038  14.529  0.1782  0.0021  0.1909
  851TIP3    H123968   0.278   6.116  14.475  2.8162  0.1707 -0.0947
  851TIP3    H223969   0.362   5.992  14.491 -0.1327 -1.6775  1.5626
  852TIP3   OH223970   4.137   3.334  15.131  0.1096  0.2747 -0.3430
  852TIP3    H123971   4.143   3.429  15.145  3.5884  0.3073 -1.5069
  852TIP3    H223972   4.207   3.298  15.186 -0.8384 -1.5961 -0.3243
  853TIP3   OH223973   4.381   4.755  12.192  0.1482 -0.1122  0.5364
  853TIP3    H123974   4.301   4.787  12.235  0.1562 -0.3894  0.7600
  853TIP3    H223975   4.359   4.666  12.163  0.3904 -0.2069  0.6413
  854TIP3   OH223976   4.620   1.698   0.313  0.4210 -0.5222  0.3979
  854TIP3    H123977   4.574   1.780   0.295  0.1052 -0.9425 -0.6954
  854TIP3    H223978   4.662   1.674   0.230 -1.4506 -2.7107  0.0280
  855TIP3   OH223979   3.017   0.530   1.445  0.4472  0.3381  0.0191
  855TIP3    H123980   3.111   0.512   1.440  0.3726  0.5828 -2.9414
  855TIP3    H223981   2.979   0.450   1.482  1.5698 -0.5707 -0.7756
  856TIP3   OH223982   5.815   2.659  15.168 -0.1206  0.2013 -0.1004
  856TIP3    H123983   5.754   2.606  15.219  1.1350 -1.9686 -0.7913
  856TIP3    H223984   5.785   2.650  15.078  1.8826 -1.9121 -0.6109
  857TIP3   OH223985   3.028   0.464  12.752  0.3491  0.1529 -0.0454
  857TIP3    H123986   3.018   0.466  12.847  2.7201  1.5116  0.2106
  857TIP3    H223987   3.056   0.553  12.729 -1.8521  0.3166 -2.2245
  858TIP3   OH223988   1.412   5.669   3.763 -0.1286  0.2482 -0.0144
  858TIP3    H123989   1.436   5.581   3.735 -2.5678 -0.8699  1.2587
  858TIP3    H223990   1.485   5.698   3.817 -0.5849 -2.1762  1.9770
  859TIP3   OH223991   0.021   2.474   2.189 -0.0152 -0.9510 -0.0727
  859TIP3    H123992  -0.045   2.541   2.168  2.1609  0.6458 -2.0261
  859TIP3    H223993   0.048   2.495   2.278 -1.1357 -0.7893  0.2464
  860TIP3   OH223994   5.760   0.120  11.407 -0.5305 -0.4098 -0.0170
  860TIP3    H123995   5.805   0.050  11.361  0.3420 -0.2322  0.5495
  860TIP3    H223996   5.697   0.075  11.464  0.7315 -0.7983  1.0988
  861TIP3   OH223997   1.789   5.452  15.182 -0.7157 -0.2327 -0.2232
  861TIP3    H123998   1.845   5.434  15.107  1.2105  0.9269  0.8874
  861TIP3    H223999   1.795   5.373  15.236  1.4995  0.6454  0.8658
  862TIP3   OH224000   5.704   3.695   0.840 -0.8504 -0.6422 -0.6803
  862TIP3    H124001   5.799   3.681   0.841 -0.8743 -0.7989 -0.5535
  862TIP3    H224002   5.675   3.676   0.929 -0.9277 -0.0482 -0.5767
  863TIP3   OH224003   0.305   1.978   5.235  0.2237 -1.2995 -0.7197
  863TIP3    H124004   0.282   2.001   5.145  0.3097 -2.9541 -1.1715
  863TIP3    H224005   0.391   2.019   5.249 -1.1026  1.5065 -0.3585
  864TIP3   OH224006   2.521   4.287  16.810  0.3876  0.6138 -0.7389
  864TIP3    H124007   2.599   4.231  16.805 -0.0259 -0.0927  0.4603
  864TIP3    H224008   2.510   4.320  16.721  2.2724  1.0205 -0.8502
  865TIP3   OH224009   4.279   2.774   6.071 -0.0462  0.1682 -0.2136
  865TIP3    H124010   4.342   2.802   6.137 -1.0513  1.3011  0.2585
  865TIP3    H224011   4.208   2.837   6.076 -1.5046 -1.4400 -0.3496
  866TIP3   OH224012   4.777   4.572  12.018 -0.2644  0.2919 -0.0528
  866TIP3    H124013   4.734   4.597  12.099 -0.9185  0.1682 -0.3614
  866TIP3    H224014   4.706   4.549  11.958  0.2742 -1.6467  0.0033
  867TIP3   OH224015   5.167   5.033  11.829 -0.0233  0.0757 -0.7362
  867TIP3    H124016   5.254   4.998  11.845 -0.4280 -0.1040  1.2475
  867TIP3    H224017   5.182   5.113  11.778  1.4338  1.0185  1.1160
  868TIP3   OH224018   1.682   1.723   3.375 -0.3732  0.0588  0.6929
  868TIP3    H124019   1.747   1.790   3.355 -1.7062  0.7904 -1.3500
  868TIP3    H224020   1.696   1.703   3.467  0.7408  2.3764  1.0675
  869TIP3   OH224021   0.200   5.413   2.166  0.0855 -0.1692 -0.3006
  869TIP3    H124022   0.215   5.474   2.093 -0.4791 -1.0588 -1.1704
  869TIP3    H224023   0.105   5.404   2.171  0.1343 -0.2996  0.3949
  870TIP3   OH224024   6.086   3.189   1.099  0.4607 -0.7023 -0.3213
  870TIP3    H124025   6.058   3.230   1.181  0.9093  0.6440 -0.8211
  870TIP3    H224026   6.149   3.250   1.062 -0.5971 -0.7057 -2.2363
  871TIP3   OH224027   0.859   6.252   2.945 -0.6081 -0.1581 -0.4897
  871TIP3    H124028   0.897   6.182   2.892 -0.3624 -0.1834 -0.2814
  871TIP3    H224029   0.825   6.207   3.022  0.3323  0.0560  0.0607
  872TIP3   OH224030   4.554   5.082  17.209 -0.2166 -0.3291  0.0006
  872TIP3    H124031   4.597   5.146  17.266  1.0705 -1.1677 -0.0280
  872TIP3    H224032   4.623   5.020  17.185 -0.8474 -0.2482 -2.1154
  873TIP3   OH224033   1.522   4.499   3.587  0.0920 -0.2708 -0.0332
  873TIP3    H124034   1.564   4.571   3.540  0.3266 -0.1243  0.3991
  873TIP3    H224035   1.442   4.538   3.623  0.2266 -0.2178  0.2141
  874TIP3   OH224036   0.136   5.071  10.562 -0.4985 -0.0589  0.2727
  874TIP3    H124037   0.174   4.989  10.529 -2.4112  0.0188 -2.2261
  874TIP3    H224038   0.044   5.052  10.576 -1.2271  1.9873 -1.4943
  875TIP3   OH224039   4.511   3.610   0.824  0.1858  0.9399  0.0986
  875TIP3    H124040   4.592   3.654   0.849  1.4479 -1.5173  0.5163
  875TIP3    H224041   4.501   3.540   0.888 -0.7696 -0.5078 -1.5867
  876TIP3   OH224042   5.531   6.684   5.930  0.6294  1.0910  0.3623
  876TIP3    H124043   5.586   6.614   5.896  2.0930  1.8467  1.1412
  876TIP3    H224044   5.585   6.762   5.925 -0.9536  2.1739 -0.4116
  877TIP3   OH224045   2.098   1.225  11.775 -0.5160  0.7256 -0.1168
  877TIP3    H124046   2.099   1.300  11.716  0.0560  0.6561 -0.1962
  877TIP3    H224047   2.172   1.239  11.833  0.1160 -0.2138 -0.6797
  878TIP3   OH224048   4.103   4.059   0.590 -0.0737 -0.0329  0.7355
  878TIP3    H124049   4.050   4.006   0.650 -1.2360 -0.5906 -0.7472
  878TIP3    H224050   4.132   3.997   0.523 -0.0464  0.8879 -0.1123
  879TIP3   OH224051   6.580   1.948  13.539  0.1632 -0.3266 -0.5473
  879TIP3    H124052   6.516   1.903  13.485  0.5255  0.2578 -1.4635
  879TIP3    H224053   6.568   2.041  13.519 -0.5697  0.0184  1.3065
  880TIP3   OH224054   2.350   6.048  10.801 -0.2285 -0.5775 -0.2621
  880TIP3    H124055   2.349   5.961  10.761 -0.5116 -1.1215  0.9261
  880TIP3    H224056   2.284   6.098  10.752 -2.8521 -2.1679  1.5824
  881TIP3   OH224057   1.596   1.498   2.075  0.1410 -0.3335  0.6566
  881TIP3    H124058   1.621   1.483   2.166 -0.0745  0.6183  0.8743
  881TIP3    H224059   1.531   1.430   2.057  1.7821 -1.9283  0.5180
  882TIP3   OH224060   2.741   4.843  13.423  0.2659 -0.2745  0.6744
  882TIP3    H124061   2.815   4.810  13.372  0.2380  2.3733 -1.1578
  882TIP3    H224062   2.775   4.920  13.468 -1.1932  0.6548  0.2396
  883TIP3   OH224063   1.280   3.770   0.902  0.2242  0.1895  0.2856
  883TIP3    H124064   1.232   3.777   0.984 -0.3541  0.8209 -0.1071
  883TIP3    H224065   1.343   3.699   0.917 -0.1343  0.0527  1.1428
  884TIP3   OH224066   3.638   5.217   6.016 -0.2615 -0.3552 -0.2499
  884TIP3    H124067   3.657   5.230   6.109 -1.5152  0.4466 -0.0985
  884TIP3    H224068   3.637   5.306   5.980 -0.0057 -0.6487 -0.9908
  885TIP3   OH224069   2.632   5.128  15.863  0.1665  0.0586  0.3711
  885TIP3    H124070   2.689   5.200  15.891 -0.9474  1.1722 -0.1726
  885TIP3    H224071   2.611   5.081  15.944 -0.2971  1.2326  0.9449
  886TIP3   OH224072   1.213   5.028   3.271  0.4265  0.0344 -0.2162
  886TIP3    H124073   1.177   5.046   3.358  1.7081 -0.9637  0.5322
  886TIP3    H224074   1.183   5.102   3.217 -1.2854  0.1116  0.7885
  887TIP3   OH224075   5.430   3.632  14.846  0.5161 -0.1156  0.0864
  887TIP3    H124076   5.414   3.566  14.914  0.5139 -1.2526 -1.0127
  887TIP3    H224077   5.521   3.660  14.861  0.6955 -0.7583  0.2154
  888TIP3   OH224078   3.428   6.664   1.871  0.5064 -0.5177  0.7130
  888TIP3    H124079   3.390   6.582   1.903  0.1361 -0.4803  0.3744
  888TIP3    H224080   3.448   6.647   1.779 -1.9573  0.5697 -0.0745
  889TIP3   OH224081   2.925   1.052   3.478  0.2597 -0.0842 -0.2249
  889TIP3    H124082   2.837   1.028   3.450  0.1274  0.2179 -0.0645
  889TIP3    H224083   2.954   1.117   3.414 -0.4520  1.4093  0.9416
  890TIP3   OH224084   6.456   4.307  10.925 -0.1583  0.1725  0.0154
  890TIP3    H124085   6.374   4.313  10.877 -1.0701 -1.2011  1.3536
  890TIP3    H224086   6.517   4.266  10.864 -1.0903 -0.8520 -0.2524
  891TIP3   OH224087   3.743   1.338   4.765  0.0558  0.4072  0.2891
  891TIP3    H124088   3.791   1.358   4.684 -0.5151  2.2367  0.3750
  891TIP3    H224089   3.652   1.329   4.738  0.0134 -0.0521  0.5737
  892TIP3   OH224090   1.713   6.067  10.366  0.9693  0.5806 -0.5194
  892TIP3    H124091   1.749   5.979  10.376 -0.7107 -0.3896 -2.5559
  892TIP3    H224092   1.657   6.078  10.443  2.8457  0.7289  0.8454
  893TIP3   OH224093   1.281   5.462  16.870 -0.3230  0.2654 -0.1766
  893TIP3    H124094   1.364   5.428  16.904  0.3778  2.2588  0.1507
  893TIP3    H224095   1.284   5.443  16.776  0.3007 -0.0739 -0.0906
  894TIP3   OH224096   5.934   0.566  14.262  0.4757  0.3642 -0.5028
  894TIP3    H124097   5.997   0.536  14.327  0.2042 -0.5702 -0.6671
  894TIP3    H224098   5.928   0.495  14.198 -1.5821 -0.0464  0.1060
  895TIP3   OH224099   3.878   2.144  16.359 -0.2614  0.5360 -0.6073
  895TIP3    H124100   3.936   2.204  16.407 -0.1235 -0.7884  0.9099
  895TIP3    H224101   3.790   2.168  16.386 -0.2888  0.8910 -0.9944
  896TIP3   OH224102   5.239   5.574  16.777 -0.3683  0.4981  0.4389
  896TIP3    H124103   5.281   5.488  16.763  0.6933  1.2131 -0.8604
  896TIP3    H224104   5.171   5.578  16.710 -0.5921  0.5564  0.6735
  897TIP3   OH224105   3.614   5.588   1.496  0.8944  0.1100 -0.7491
  897TIP3    H124106   3.557   5.653   1.537  1.0907 -1.4964  2.2489
  897TIP3    H224107   3.582   5.580   1.407 -1.8388  1.2392  0.0761
  898TIP3   OH224108   1.335   0.663  11.859  0.4132  0.3259  0.4534
  898TIP3    H124109   1.401   0.730  11.840  1.0007  0.3273  2.3439
  898TIP3    H224110   1.350   0.594  11.794  1.0781  1.1497 -0.2799
  899TIP3   OH224111   1.359   5.466   0.809 -0.1246 -0.2832 -0.0426
  899TIP3    H124112   1.286   5.527   0.820  0.7738  0.8727 -0.3518
  899TIP3    H224113   1.350   5.404   0.881 -1.8465 -0.6013 -0.5245
  900TIP3   OH224114   5.784   4.600   3.582  0.1275  0.1065 -0.0391
  900TIP3    H124115   5.810   4.508   3.583 -0.1042  0.0447  0.0775
  900TIP3    H224116   5.862   4.647   3.613  1.0876  0.1575 -2.4085
  901TIP3   OH224117   5.889   0.196  10.635  0.0807  0.1003  0.5063
  901TIP3    H124118   5.856   0.196  10.545 -0.1268 -0.8884  0.5731
  901TIP3    H224119   5.857   0.278  10.672  1.2080  1.0985 -0.6876
  902TIP3   OH224120   5.351   2.476  15.263 -0.5537 -0.0996  0.0136
  902TIP3    H124121   5.436   2.455  15.302 -0.1812  1.2392 -0.0611
  902TIP3    H224122   5.296   2.400  15.283  0.8857 -1.3223 -0.6494
  903TIP3   OH224123   6.235   6.556   0.094  0.3112  0.7659 -0.2393
  903TIP3    H124124   6.289   6.477   0.106 -0.5298 -0.1367 -2.1403
  903TIP3    H224125   6.283   6.607   0.029  0.2900  1.2898  0.1601
  904TIP3   OH224126   0.874   5.203   1.691  0.2333  0.4009 -0.5363
  904TIP3    H124127   0.908   5.114   1.704  1.3373  0.9337  0.3474
  904TIP3    H224128   0.891   5.221   1.599  0.2977 -0.1928 -0.6448
  905TIP3   OH224129   6.034   0.593   5.298  0.5832  0.1886 -0.5908
  905TIP3    H124130   6.102   0.655   5.325 -0.5878  0.6317  1.4390
  905TIP3    H224131   5.959   0.614   5.354 -1.1889 -0.3656 -2.7124
  906TIP3   OH224132   0.346   5.582  16.387 -0.0595  0.1065  0.2108
  906TIP3    H124133   0.305   5.496  16.400 -0.0331 -0.0632 -0.7667
  906TIP3    H224134   0.273   5.641  16.371  0.0421 -0.1412 -1.2416
  907TIP3   OH224135   2.244   0.459  13.610 -0.0016 -0.0621  0.3118
  907TIP3    H124136   2.211   0.443  13.522 -2.0740  2.3184  0.6173
  907TIP3    H224137   2.337   0.476  13.598  0.1201 -1.6549 -1.1741
  908TIP3   OH224138   1.405   1.179   2.226 -0.1396  0.3938 -0.2737
  908TIP3    H124139   1.359   1.099   2.199  1.1463 -0.8596  1.1649
  908TIP3    H224140   1.428   1.222   2.143  0.2792 -1.3805 -1.1135
  909TIP3   OH224141   1.656   5.954  14.994 -0.1681 -0.1531  0.2385
  909TIP3    H124142   1.611   5.995  15.068  3.0646  1.0571  1.6422
  909TIP3    H224143   1.665   5.862  15.019 -0.8285 -0.1710  0.4267
  910TIP3   OH224144   5.695   1.379  16.659 -0.1027 -0.5467  0.3749
  910TIP3    H124145   5.631   1.439  16.697  1.0537  0.4571  0.7586
  910TIP3    H224146   5.676   1.378  16.566 -1.7058 -1.5098  0.6905
  911TIP3   OH224147   4.053   3.908  16.625  0.0396  0.1827 -0.5151
  911TIP3    H124148   4.071   3.905  16.531  0.5809  1.3569 -0.4502
  911TIP3    H224149   4.054   4.001  16.647 -0.2267 -0.0749  0.6342
  912TIP3   OH224150   3.102   5.221   2.326  0.5419 -0.2013 -0.6362
  912TIP3    H124151   3.019   5.217   2.279 -1.4119  0.0659  2.6011
  912TIP3    H224152   3.126   5.314   2.322 -1.7717  0.6332  2.2290
  913TIP3   OH224153   3.409   3.372  11.171  0.3101 -0.5160  0.0564
  913TIP3    H124154   3.405   3.276  11.170  1.6327 -0.5797 -1.0073
  913TIP3    H224155   3.362   3.399  11.093  2.4663 -0.4490 -1.2673
  914TIP3   OH224156   4.499   3.523  15.603 -0.4437 -0.4275 -0.2210
  914TIP3    H124157   4.564   3.576  15.556 -0.6214 -0.2990 -0.3237
  914TIP3    H224158   4.517   3.539  15.696 -0.1436 -0.6174 -0.2485
  915TIP3   OH224159   2.021   0.247  10.766  0.4460 -0.2093 -0.6021
  915TIP3    H124160   1.986   0.335  10.783  0.0754 -0.6987  1.2536
  915TIP3    H224161   1.953   0.187  10.796  0.8528 -1.1588 -1.5144
  916TIP3   OH224162   4.483   0.297  15.820  0.1425  0.1518  0.8828
  916TIP3    H124163   4.527   0.289  15.905  1.0529 -1.1352  0.3057
  916TIP3    H224164   4.544   0.345  15.765 -0.5494  1.1970  1.0073
  917TIP3   OH224165   2.773   3.820  10.948 -0.2009 -0.3333  0.0914
  917TIP3    H124166   2.790   3.903  10.993  0.8071 -1.1463  1.2201
  917TIP3    H224167   2.777   3.843  10.855 -1.9097  1.2798  0.3776
  918TIP3   OH224168   4.665   5.210   2.144  0.2757  0.2839  0.4578
  918TIP3    H124169   4.632   5.298   2.133 -1.8857 -0.5521  0.0344
  918TIP3    H224170   4.588   5.154   2.137  1.5902 -1.6330  0.8079
  919TIP3   OH224171   3.997   4.227   1.213 -0.2292  0.1895  0.3801
  919TIP3    H124172   3.950   4.206   1.133  0.9140 -2.1776  0.2901
  919TIP3    H224173   3.976   4.155   1.273 -0.5124  1.5680  1.9646
  920TIP3   OH224174   1.692   4.707   0.047 -0.4945  0.1642 -0.1553
  920TIP3    H124175   1.681   4.707  -0.048 -0.0210  2.3601 -0.2325
  920TIP3    H224176   1.603   4.713   0.081 -0.5669  0.9548 -0.4850
  921TIP3   OH224177   1.146   2.791  12.983 -0.0567  0.6124 -0.3993
  921TIP3    H124178   1.068   2.824  12.937 -0.8686 -0.3055  0.3029
  921TIP3    H224179   1.219   2.838  12.942 -1.0607  2.3233 -0.3152
  922TIP3   OH224180   5.469   3.984   0.667  0.1605  0.3677 -0.1250
  922TIP3    H124181   5.473   3.935   0.585  1.0427 -0.2592  0.2921
  922TIP3    H224182   5.453   4.075   0.639 -1.9855 -0.2230 -0.8628
  923TIP3   OH224183   4.093   2.931   3.789  0.2755  0.1445 -0.3303
  923TIP3    H124184   4.006   2.938   3.749 -0.5278 -1.2365  1.1317
  923TIP3    H224185   4.117   2.839   3.778  1.2586  0.3612 -0.0843
  924TIP3   OH224186   1.111   0.805  16.735 -0.0691  0.2302  0.2064
  924TIP3    H124187   1.092   0.740  16.668  1.0214  0.4421 -0.3068
  924TIP3    H224188   1.144   0.880  16.687 -0.2953  0.7734  0.8956
  925TIP3   OH224189   3.961   2.942  14.794 -0.1556  0.1593 -0.2610
  925TIP3    H124190   4.011   2.863  14.812  0.4114  0.5017 -0.3334
  925TIP3    H224191   3.870   2.912  14.787  0.0750 -0.4992 -0.4193
  926TIP3   OH224192   5.153   0.882  12.650  0.2808 -0.3084  0.5571
  926TIP3    H124193   5.194   0.799  12.625 -0.4766 -1.4018  2.7789
  926TIP3    H224194   5.066   0.856  12.680  0.3221  1.2140  2.0077
  927TIP3   OH224195   0.696   0.580   4.299 -0.0354  0.1483  0.3428
  927TIP3    H124196   0.711   0.582   4.205  0.1756 -1.5572  0.3215
  927TIP3    H224197   0.739   0.500   4.329 -0.5107  0.4192  1.8159
  928TIP3   OH224198   1.576   0.198  13.036  0.5010  0.1102  0.0812
  928TIP3    H124199   1.629   0.169  12.962 -1.6283 -1.3060 -0.9489
  928TIP3    H224200   1.495   0.148  13.029 -1.0096  2.2258  1.5736
  929TIP3   OH224201   0.470   0.514  14.457  0.0637  0.4580  0.5161
  929TIP3    H124202   0.543   0.534  14.399 -2.3115  1.6507 -2.2178
  929TIP3    H224203   0.396   0.563  14.420 -2.1625 -0.8494  3.0510
  930TIP3   OH224204   6.720   5.974  15.574  0.6119  0.5026 -0.0286
  930TIP3    H124205   6.742   5.905  15.636  1.9591  0.6981 -0.2843
  930TIP3    H224206   6.625   5.985  15.584  0.2414 -1.9341 -0.5632
  931TIP3   OH224207   1.368   0.047  13.407  0.1443 -0.0654  0.4855
  931TIP3    H124208   1.447   0.077  13.362  0.0045  0.5302  0.6308
  931TIP3    H224209   1.339  -0.029  13.357  1.0837 -0.5864  0.7218
  932TIP3   OH224210   6.400   0.165   4.232 -0.0790  0.3756 -0.2471
  932TIP3    H124211   6.353   0.144   4.312  0.6591 -0.0450  0.0838
  932TIP3    H224212   6.379   0.094   4.172 -0.2741  0.4584 -0.2777
  933TIP3   OH224213   6.642   1.463   4.160  0.3768 -0.3613 -0.3057
  933TIP3    H124214   6.690   1.506   4.090 -0.3839 -0.3660 -0.8324
  933TIP3    H224215   6.619   1.377   4.125 -0.5305 -0.1324 -0.2684
  934TIP3   OH224216   0.399   5.094  14.222  0.3783 -0.1548  0.1349
  934TIP3    H124217   0.362   5.107  14.310 -0.0167 -0.5508  0.0309
  934TIP3    H224218   0.482   5.141  14.224 -0.0479  0.6095  0.4326
  935TIP3   OH224219   5.423   1.397   5.261 -0.0214  0.0932 -0.1855
  935TIP3    H124220   5.404   1.315   5.215 -1.0119  0.4260 -0.3682
  935TIP3    H224221   5.375   1.390   5.344  0.7065  0.0562  0.2376
  936TIP3   OH224222   5.541   0.800  14.032  0.6031  0.0928 -0.6434
  936TIP3    H124223   5.512   0.762  14.115 -1.7952 -0.1147 -1.5502
  936TIP3    H224224   5.557   0.725  13.975  1.9622  0.2448 -0.4820
  937TIP3   OH224225   6.215   5.847   1.149 -0.2245  0.2419  0.5047
  937TIP3    H124226   6.172   5.797   1.218  0.4568  0.6550  1.2378
  937TIP3    H224227   6.144   5.873   1.090 -1.1761  1.9529  2.3505
  938TIP3   OH224228   4.320   4.185   1.695 -0.5979  0.0352 -0.3303
  938TIP3    H124229   4.413   4.162   1.692 -0.2681  0.9358  2.5123
  938TIP3    H224230   4.303   4.224   1.609  1.5000 -0.5918 -1.0784
  939TIP3   OH224231   5.147   0.532   2.913  0.1296 -0.3334 -0.5240
  939TIP3    H124232   5.077   0.592   2.887 -0.0599 -0.4221 -0.2083
  939TIP3    H224233   5.197   0.519   2.832 -1.4553 -1.9461 -1.2933
  940TIP3   OH224234   3.815   0.952  11.533 -0.0975 -0.3209 -0.5493
  940TIP3    H124235   3.733   0.971  11.487  0.0948  2.2241  0.1115
  940TIP3    H224236   3.789   0.893  11.604 -1.3381  0.2716 -0.4822
  941TIP3   OH224237   2.301   5.612   5.740 -0.0546  0.2868 -0.1676
  941TIP3    H124238   2.387   5.577   5.762 -0.3414 -0.3717 -0.0853
  941TIP3    H224239   2.245   5.535   5.733  0.1431  0.3895 -3.8786
  942TIP3   OH224240   6.451   0.685  11.396  0.3991 -0.2771  0.1279
  942TIP3    H124241   6.413   0.770  11.418  0.8915 -0.4796  1.8610
  942TIP3    H224242   6.516   0.670  11.465  1.5791 -1.2430 -1.1673
  943TIP3   OH224243   0.284   2.034  14.962  0.2699 -0.2142  0.3181
  943TIP3    H124244   0.321   2.096  15.024  1.1977 -2.1197  1.7145
  943TIP3    H224245   0.189   2.046  14.971  0.4371  1.1875  0.3475
  944TIP3   OH224246   1.892   4.756  14.002  0.0546 -0.9300  0.2933
  944TIP3    H124247   1.824   4.722  13.943 -0.5886 -1.5208  1.3534
  944TIP3    H224248   1.855   4.838  14.036  0.0621 -1.0163  0.5107
  945TIP3   OH224249   0.568   6.757   2.320 -0.3296 -0.0043  0.7384
  945TIP3    H124250   0.634   6.821   2.346 -0.1747 -1.0640  3.0376
  945TIP3    H224251   0.496   6.770   2.382 -0.7969 -1.2499  0.4783
  946TIP3   OH224252   0.955   6.026  12.215 -0.3034 -0.3348  0.0149
  946TIP3    H124253   1.035   5.973  12.213 -0.4880 -0.6914  1.4019
  946TIP3    H224254   0.965   6.081  12.293 -1.4304 -0.4012  0.2099
  947TIP3   OH224255   4.106   6.363   1.854  0.3642 -0.8023  0.3695
  947TIP3    H124256   4.091   6.456   1.842  0.3865 -0.9548 -0.9254
  947TIP3    H224257   4.200   6.355   1.869  0.1178 -0.4578  2.2884
  948TIP3   OH224258   4.489   4.630   4.627  0.2316 -0.2990  1.2017
  948TIP3    H124259   4.424   4.680   4.579  1.8703  0.3765 -0.3966
  948TIP3    H224260   4.439   4.583   4.693 -1.8804  0.1228 -0.0301
  949TIP3   OH224261   6.534   4.759  14.582  0.2140  0.2585 -0.9732
  949TIP3    H124262   6.560   4.730  14.670  0.6730 -1.4872 -1.6735
  949TIP3    H224263   6.463   4.821  14.598  1.5193  1.3687  0.7221
  950TIP3   OH224264   6.677   4.993   1.533  0.1325  0.2204 -0.2481
  950TIP3    H124265   6.584   5.000   1.513  0.3269  0.3404 -1.1628
  950TIP3    H224266   6.711   5.083   1.522  0.4079  0.1249 -0.1958
  951TIP3   OH224267   0.711   4.178  10.387  0.0464  0.0056 -0.1927
  951TIP3    H124268   0.801   4.205  10.407 -0.3166 -0.0431  1.6281
  951TIP3    H224269   0.720   4.112  10.319  1.3324  0.5695 -0.5861
  952TIP3   OH224270   4.052   1.406   3.125 -0.0854 -0.2200  0.2480
  952TIP3    H124271   4.091   1.493   3.129  1.8095 -1.0952  1.7136
  952TIP3    H224272   3.969   1.414   3.172 -0.3035  0.9734 -0.3343
  953TIP3   OH224273   4.867   6.619  17.223  0.0544 -0.1741  0.0783
  953TIP3    H124274   4.922   6.611  17.301 -0.3143 -0.2437  0.3331
  953TIP3    H224275   4.856   6.714  17.211 -0.5240 -0.1748  0.5654
  954TIP3   OH224276   2.394   6.782  12.433 -0.5872 -0.2279 -0.3292
  954TIP3    H124277   2.361   6.702  12.473 -0.1503 -0.9865 -1.4595
  954TIP3    H224278   2.428   6.754  12.348 -1.2982  1.3156 -1.1422
  955TIP3   OH224279   4.242   4.755   6.399  0.6081  0.2514 -0.5377
  955TIP3    H124280   4.256   4.800   6.482  1.4820  0.1909 -0.6470
  955TIP3    H224281   4.192   4.817   6.346 -1.0903 -0.2117  0.4750
  956TIP3   OH224282   1.136   5.975  11.348  0.6429 -0.2779 -0.7408
  956TIP3    H124283   1.070   5.960  11.416 -0.5047 -0.7609 -1.9324
  956TIP3    H224284   1.207   5.915  11.369 -0.5160 -1.7591 -1.0111
  957TIP3   OH224285   4.828   2.671  13.091 -0.7581  0.2743  0.5460
  957TIP3    H124286   4.857   2.762  13.100 -0.8296  0.4169 -0.5446
  957TIP3    H224287   4.796   2.647  13.178 -0.4046  1.1770  0.9316
  958TIP3   OH224288   4.790   2.330  11.593  0.2498  0.0672 -0.2574
  958TIP3    H124289   4.763   2.421  11.578  0.4382  0.1525 -0.0854
  958TIP3    H224290   4.884   2.335  11.608 -0.0037  0.0513  1.4269
  959TIP3   OH224291   2.554   3.461  16.687  0.1081  0.8350 -0.1334
  959TIP3    H124292   2.578   3.490  16.775 -0.8572  0.1883  0.3628
  959TIP3    H224293   2.527   3.540  16.642  1.8240  1.3561 -0.2567
  960TIP3   OH224294   0.789   5.102  14.073  0.3559 -0.1951 -0.0537
  960TIP3    H124295   0.722   5.038  14.048  1.4717 -2.5425  2.6800
  960TIP3    H224296   0.740   5.182  14.091 -1.3680 -1.0017 -0.9915
  961TIP3   OH224297   3.270   5.796   6.344 -0.2372  0.2647  0.0356
  961TIP3    H124298   3.217   5.852   6.288  0.0437  1.1244  0.6212
  961TIP3    H224299   3.349   5.847   6.362 -1.2153  0.8982  2.8982
  962TIP3   OH224300   0.330   3.968   5.201 -0.3998  0.4446 -0.2466
  962TIP3    H124301   0.373   3.903   5.256 -0.2368 -0.9975 -2.0173
  962TIP3    H224302   0.258   3.921   5.160 -0.5195  1.4811 -1.2632
  963TIP3   OH224303   3.807   1.421   2.578  0.2940 -0.5080 -0.4267
  963TIP3    H124304   3.753   1.492   2.612  0.8031  0.5626 -1.8236
  963TIP3    H224305   3.863   1.396   2.651  0.8868  1.2932 -0.2562
  964TIP3   OH224306   6.624   6.716  17.159 -0.0864  0.0919 -0.1154
  964TIP3    H124307   6.571   6.700  17.237 -2.6963 -0.7827 -1.9792
  964TIP3    H224308   6.608   6.808  17.137  0.5249  0.2947  0.2674
  965TIP3   OH224309   4.130   0.045   3.870  0.4280  0.3370 -0.8152
  965TIP3    H124310   4.101  -0.012   3.941  0.7471  2.3196  0.9478
  965TIP3    H224311   4.225   0.037   3.871  0.6800  2.8135  1.1671
  966TIP3   OH224312   2.677   5.630  15.859 -0.3417 -0.1455  0.2489
  966TIP3    H124313   2.598   5.639  15.912 -0.3347  1.7606 -0.0145
  966TIP3    H224314   2.708   5.720  15.847  0.6492 -0.6877 -1.4831
  967TIP3   OH224315   3.923   0.010  16.336  0.2457  0.1049 -0.2951
  967TIP3    H124316   3.904   0.095  16.376 -0.3801 -0.4320  0.5619
  967TIP3    H224317   3.967  -0.040  16.405 -0.1967 -0.5774 -0.5068
  968TIP3   OH224318   0.416   4.194   1.897  0.3782  0.4165  0.1524
  968TIP3    H124319   0.371   4.278   1.894  0.2180  0.3913  1.4259
  968TIP3    H224320   0.452   4.189   1.985 -0.5563 -1.3277  0.4843
  969TIP3   OH224321   3.905   0.564  15.264 -0.4176 -0.2708 -0.0876
  969TIP3    H124322   3.992   0.529  15.246  0.4126  2.0165 -0.6589
  969TIP3    H224323   3.917   0.617  15.343 -1.0311  0.9749 -0.8194
  970TIP3   OH224324   6.547   5.698  14.253  0.4000 -0.1254 -0.1730
  970TIP3    H124325   6.473   5.700  14.313 -0.1648 -1.0930 -0.8211
  970TIP3    H224326   6.601   5.625  14.283 -0.7671 -1.7139 -1.8495
  971TIP3   OH224327   4.494   6.004  16.314 -0.3997  0.4634  0.3921
  971TIP3    H124328   4.432   5.996  16.241 -0.5451  1.1883  0.4326
  971TIP3    H224329   4.465   6.082  16.361  0.0936  0.3712  0.8471
  972TIP3   OH224330   4.248   1.638  15.980  0.3364  0.5804 -0.0762
  972TIP3    H124331   4.245   1.717  16.035 -0.0251  0.3320  0.2640
  972TIP3    H224332   4.332   1.597  16.001 -0.6828 -0.5999  1.8199
  973TIP3   OH224333   2.440   5.195   2.294  0.3650  0.3475  0.1084
  973TIP3    H124334   2.496   5.170   2.221 -1.2295 -0.1168 -0.9844
  973TIP3    H224335   2.352   5.194   2.258 -0.2129  2.7378  1.3476
  974TIP3   OH224336   5.057   4.665  10.682 -0.1002 -0.6789  0.3482
  974TIP3    H124337   5.067   4.682  10.776  0.2048  1.6434 -0.0802
  974TIP3    H224338   4.976   4.711  10.658  1.1268  0.8080 -1.0107
  975TIP3   OH224339   2.582   3.873   3.747  0.0348  0.5406  0.6558
  975TIP3    H124340   2.674   3.901   3.750 -0.8061  3.7399 -1.5807
  975TIP3    H224341   2.571   3.838   3.659 -0.8654 -0.0457  0.9985
  976TIP3   OH224342   2.718   3.259  13.425  0.3412 -0.0009 -0.4080
  976TIP3    H124343   2.795   3.206  13.405  0.9586  0.1140  1.4998
  976TIP3    H224344   2.663   3.203  13.481 -0.2480  0.4343 -0.5371
  977TIP3   OH224345   5.686   1.264   5.286  0.0340 -0.2210  0.0092
  977TIP3    H124346   5.690   1.262   5.191  0.6925  0.9589  0.0033
  977TIP3    H224347   5.603   1.307   5.306  0.2783  0.2882 -0.0485
  978TIP3   OH224348   4.696   0.330   3.678  0.0476 -0.0246  0.4298
  978TIP3    H124349   4.630   0.381   3.726  1.0288  0.6335  1.0843
  978TIP3    H224350   4.731   0.391   3.613 -1.1772 -0.8682 -1.0708
  979TIP3   OH224351   6.628   5.558   3.349  0.1135  0.2499 -0.0409
  979TIP3    H124352   6.547   5.520   3.383 -0.7408  2.4241  0.4313
  979TIP3    H224353   6.600   5.636   3.302  1.9567  1.1179  0.2749
  980TIP3   OH224354   5.392   6.367   1.095 -0.6922 -0.2391 -0.4515
  980TIP3    H124355   5.338   6.362   1.016  0.6364  1.1097 -1.4605
  980TIP3    H224356   5.402   6.461   1.111  1.0772 -0.4839 -0.0786
  981TIP3   OH224357   4.205   2.741  12.180  0.1199  0.1765  0.4107
  981TIP3    H124358   4.122   2.747  12.133  0.0660  0.0583  0.4899
  981TIP3    H224359   4.263   2.803  12.137 -0.2919  0.9263  0.9306
  982TIP3   OH224360   1.201   0.010   2.893  0.2773  0.1466 -0.3876
  982TIP3    H124361   1.173  -0.016   2.981  1.8135  0.3557  0.1759
  982TIP3    H224362   1.197   0.105   2.894  0.1330  0.1428 -0.6006
  983TIP3   OH224363   3.751   4.081   4.095  0.2185  0.7832  0.3263
  983TIP3    H124364   3.799   4.030   4.030 -1.4387 -0.1163 -0.2237
  983TIP3    H224365   3.818   4.128   4.143  1.6104 -0.0815 -0.7358
  984TIP3   OH224366   1.197   1.354   6.118  0.0553 -0.8995 -0.4930
  984TIP3    H124367   1.283   1.315   6.131 -0.0810 -0.3792  2.4038
  984TIP3    H224368   1.182   1.405   6.198 -3.1711 -1.4578 -0.6805
  985TIP3   OH224369   4.859   3.644   2.662  0.0745 -0.5765  0.4647
  985TIP3    H124370   4.776   3.684   2.636 -0.4417 -0.1870  2.5954
  985TIP3    H224371   4.833   3.561   2.703  0.7624 -0.6474  0.7604
  986TIP3   OH224372   0.753   1.264   4.035 -0.0972  0.2233 -0.3204
  986TIP3    H124373   0.818   1.271   4.105 -0.7898 -1.0704  0.4757
  986TIP3    H224374   0.754   1.172   4.010 -0.6302  0.4658 -1.2705
  987TIP3   OH224375   3.988   1.244   5.391 -0.1218 -0.3249 -0.5740
  987TIP3    H124376   3.904   1.204   5.417  1.2008 -2.9638 -0.1353
  987TIP3    H224377   4.005   1.209   5.304  0.1758  0.8325 -0.9889
  988TIP3   OH224378   6.173   5.144   5.831 -0.1043 -0.1450  0.4765
  988TIP3    H124379   6.080   5.150   5.853 -0.5471 -0.0299 -1.3819
  988TIP3    H224380   6.179   5.069   5.772  1.1946 -0.9607  1.6188
  989TIP3   OH224381   5.119   1.185   0.343  0.0480 -0.0572  0.2763
  989TIP3    H124382   5.111   1.206   0.436 -0.9249 -1.2131  0.4760
  989TIP3    H224383   5.195   1.127   0.338  0.5067  0.5491  0.2570
  990TIP3   OH224384   5.942   3.053  16.478  0.1985  0.1162 -0.5384
  990TIP3    H124385   5.878   3.122  16.494 -0.2992 -0.6757  1.0231
  990TIP3    H224386   5.898   2.972  16.503  0.8157 -0.7711 -2.2508
  991TIP3   OH224387   6.188   5.400   6.222  0.2535  0.6586  0.1897
  991TIP3    H124388   6.148   5.314   6.221 -0.6783  1.0805  0.6319
  991TIP3    H224389   6.123   5.457   6.263  0.4626  1.7604 -0.9576
  992TIP3   OH224390   5.304   2.062  16.410 -0.7949 -0.5293 -0.0830
  992TIP3    H124391   5.298   2.147  16.453  1.6578 -0.9905  1.2439
  992TIP3    H224392   5.280   1.999  16.478 -0.3574 -1.0469 -0.4107
  993TIP3   OH224393   4.715   2.613  14.495 -0.6821 -0.0016 -0.2343
  993TIP3    H124394   4.702   2.650  14.583 -1.1706  1.3295 -0.8442
  993TIP3    H224395   4.809   2.618  14.480 -0.7016  0.7105 -0.1659
  994TIP3   OH224396   0.854   5.880  14.174  0.0814  0.3090  0.3123
  994TIP3    H124397   0.831   5.877  14.082 -1.7304  0.9546  0.7208
  994TIP3    H224398   0.853   5.789  14.203 -1.5958  0.2862  0.2113
  995TIP3   OH224399   6.177   0.103   4.391 -0.1024 -0.0956 -0.4139
  995TIP3    H124400   6.181   0.009   4.375  2.4412 -0.1364  0.1579
  995TIP3    H224401   6.169   0.112   4.486  1.4054  0.2465 -0.3027
  996TIP3   OH224402   5.093   0.622  12.935  0.6451  0.2716 -0.7965
  996TIP3    H124403   5.183   0.645  12.911  0.6928  0.8268 -0.0795
  996TIP3    H224404   5.102   0.555  13.002  0.5742  2.2267  1.2335
  997TIP3   OH224405   4.757   1.170   6.502  0.5137 -0.4292 -0.9576
  997TIP3    H124406   4.798   1.093   6.461  0.5157 -0.7659 -0.3300
  997TIP3    H224407   4.672   1.138   6.532  0.3923 -0.1070 -0.9652
  998TIP3   OH224408   5.988   3.036   0.320 -0.4028 -0.6660 -0.0692
  998TIP3    H124409   6.005   3.099   0.250 -0.7654  0.0113  0.4451
  998TIP3    H224410   5.974   2.953   0.275 -1.8313  0.0092 -0.8801
  999TIP3   OH224411   0.216   0.732   2.242 -0.2664 -0.1130 -0.0138
  999TIP3    H124412   0.282   0.795   2.271  0.1162 -0.1539 -0.7948
  999TIP3    H224413   0.149   0.734   2.311  0.5063 -0.0115  0.7453
 1000TIP3   OH224414   6.525   0.071   1.854  0.5258 -0.0428 -0.6107
 1000TIP3    H124415   6.565   0.115   1.929 -0.4171  1.4930 -0.9962
 1000TIP3    H224416   6.564   0.114   1.778 -0.9272  0.6270 -0.9917
 1001TIP3   OH224417   6.395   2.912  13.495  0.0922  0.0066 -0.1896
 1001TIP3    H124418   6.352   2.936  13.577  0.5303  0.9641 -0.2380
 1001TIP3    H224419   6.487   2.900  13.519 -0.1660 -1.9970 -0.0932
 1002TIP3   OH224420   6.020   6.063   1.411 -0.6676 -0.0553  0.0326
 1002TIP3    H124421   5.978   6.050   1.496  0.1164 -3.2234  0.0158
 1002TIP3    H224422   5.982   5.995   1.355 -0.5712  1.4784 -1.9201
 1003TIP3   OH224423   0.557   0.384   1.073 -0.3351 -0.4669 -0.2660
 1003TIP3    H124424   0.540   0.437   1.151  2.9374 -0.0725  0.2658
 1003TIP3    H224425   0.606   0.309   1.105 -0.6500 -1.3088 -1.6985
 1004TIP3   OH224426   4.333   1.110   6.145 -0.8306 -0.8552 -0.3093
 1004TIP3    H124427   4.349   1.021   6.176 -1.6729 -1.1846 -0.8079
 1004TIP3    H224428   4.340   1.164   6.224  0.5847 -1.2394 -0.1560
 1005TIP3   OH224429   5.922   6.413  15.370  0.4014 -0.3718 -0.0205
 1005TIP3    H124430   5.944   6.474  15.300  0.9888  0.6088  1.0171
 1005TIP3    H224431   5.826   6.414  15.374  0.3697 -0.3733 -0.7512
 1006TIP3   OH224432   4.785   5.868   5.235  0.5562 -0.3301  0.1278
 1006TIP3    H124433   4.837   5.789   5.253  3.3452  1.6456  1.1723
 1006TIP3    H224434   4.814   5.931   5.301 -3.9183  0.6190  1.3222
 1007TIP3   OH224435   4.894   1.735   1.678  0.0049  0.3345  0.9557
 1007TIP3    H124436   4.855   1.813   1.718 -0.3609  1.1566 -0.9065
 1007TIP3    H224437   4.830   1.710   1.610  2.9234  2.1092 -2.6465
 1008TIP3   OH224438   5.129   4.676  15.798 -0.1562 -0.7245  0.0262
 1008TIP3    H124439   5.056   4.728  15.830 -0.9453 -3.5845  3.0434
 1008TIP3    H224440   5.203   4.703  15.852  0.9000  1.4506 -2.3711
 1009TIP3   OH224441   6.697   4.644  12.698 -0.5648  0.7550 -0.3894
 1009TIP3    H124442   6.678   4.737  12.711 -0.2511  0.6444  0.9980
 1009TIP3    H224443   6.701   4.608  12.787 -1.5492 -0.7640 -0.9462
 1010TIP3   OH224444   2.665   1.518   3.120  0.4413  0.3965 -0.6174
 1010TIP3    H124445   2.618   1.498   3.040 -0.9929 -0.0960  0.3359
 1010TIP3    H224446   2.603   1.567   3.174 -0.1222 -2.9667  1.9471
 1011TIP3   OH224447   4.548   1.861   4.215 -0.2617  0.4562 -0.6494
 1011TIP3    H124448   4.602   1.783   4.231  1.5336  1.3790 -1.9631
 1011TIP3    H224449   4.596   1.909   4.147 -1.8567  2.2037 -0.5685
 1012TIP3   OH224450   6.169   5.685   2.824  0.0818  0.4503 -0.5444
 1012TIP3    H124451   6.228   5.664   2.752  0.5503 -0.6075  0.1445
 1012TIP3    H224452   6.209   5.644   2.901 -0.6143  1.2475  0.2470
 1013TIP3   OH224453   1.581   4.460   2.753  0.5544 -0.0427 -0.3548
 1013TIP3    H124454   1.548   4.490   2.668 -1.4729 -2.0713 -0.3260
 1013TIP3    H224455   1.547   4.371   2.762  4.4407 -1.5243  0.6236
 1014TIP3   OH224456   4.876   3.432   6.638  0.0070 -0.2151  0.3134
 1014TIP3    H124457   4.810   3.501   6.640 -0.2898 -0.4797 -0.0858
 1014TIP3    H224458   4.957   3.474   6.665  0.2398  0.7582 -1.7823
 1015TIP3   OH224459   4.394   0.151   2.249  0.2505 -0.2655 -0.2062
 1015TIP3    H124460   4.410   0.151   2.155  1.0962  2.3160 -0.0848
 1015TIP3    H224461   4.303   0.179   2.258 -0.2014 -1.6461 -0.2718
 1016TIP3   OH224462   4.171   5.899  11.188 -0.2120 -0.0448 -0.4578
 1016TIP3    H124463   4.185   5.977  11.134  0.3307  0.7099  0.7705
 1016TIP3    H224464   4.143   5.933  11.273 -2.1589 -1.2724 -0.5658
 1017TIP3   OH224465   3.512   1.735  14.689 -0.1538  0.4998  0.1121
 1017TIP3    H124466   3.429   1.700  14.656  0.0617 -2.0022  2.1305
 1017TIP3    H224467   3.487   1.794  14.760 -0.2386  0.3427  0.2133
 1018TIP3   OH224468   6.293   6.700  12.963 -0.1310 -0.0732 -0.0011
 1018TIP3    H124469   6.242   6.669  13.038  1.7359 -2.7188  0.2391
 1018TIP3    H224470   6.252   6.659  12.887 -0.2983  0.3667 -0.1522
 1019TIP3   OH224471   3.746   1.137   5.493  0.1259  0.0894 -0.2424
 1019TIP3    H124472   3.683   1.106   5.428 -0.1904  1.4875 -0.6227
 1019TIP3    H224473   3.764   1.061   5.548  1.0426 -1.3864 -2.4806
 1020TIP3   OH224474   3.872   2.149  12.633  0.0377 -0.2451 -0.2290
 1020TIP3    H124475   3.813   2.207  12.584 -2.7707 -1.7121  1.2940
 1020TIP3    H224476   3.918   2.208  12.693 -1.9753  0.6025  0.5359
 1021TIP3   OH224477   0.971   4.385   5.698 -0.1813 -0.1589  0.0567
 1021TIP3    H124478   0.967   4.473   5.736  1.2225 -0.1119  0.1269
 1021TIP3    H224479   0.921   4.392   5.616 -0.8554  0.4580  0.5138
 1022TIP3   OH224480   0.091   3.767  13.300  0.0857  0.0794  0.2357
 1022TIP3    H124481  -0.003   3.752  13.317 -0.3868  0.9976 -1.5071
 1022TIP3    H224482   0.122   3.812  13.379 -0.4932 -1.8667  1.6403
 1023TIP3   OH224483   2.317   1.035   5.031  0.5040  0.4879  0.1094
 1023TIP3    H124484   2.302   1.119   4.988  0.4819  0.2929 -0.2601
 1023TIP3    H224485   2.402   1.007   4.999  0.2328  0.0709 -0.2444
 1024TIP3   OH224486   2.128   4.137   5.505  0.0600  0.2220  0.1829
 1024TIP3    H124487   2.067   4.126   5.579  0.7104 -0.5882  0.6128
 1024TIP3    H224488   2.071   4.153   5.430 -0.7091 -0.6727  0.5491
 1025TIP3   OH224489   0.462   3.399   3.335 -0.0530 -0.1179 -0.2366
 1025TIP3    H124490   0.546   3.413   3.291 -0.1022  0.0826 -0.2672
 1025TIP3    H224491   0.466   3.456   3.412  0.3820 -1.1032  0.4778
 1026TIP3   OH224492   3.786   1.048  12.891 -1.0153 -0.5566 -0.0597
 1026TIP3    H124493   3.862   0.989  12.883 -0.1534  0.2971  1.5977
 1026TIP3    H224494   3.764   1.070  12.801  1.3821  0.0059 -0.5425
 1027TIP3   OH224495   3.116   0.983   1.131 -0.3362 -0.0289 -0.1506
 1027TIP3    H124496   3.079   0.910   1.182 -2.0270 -0.7878 -2.3807
 1027TIP3    H224497   3.092   1.061   1.182 -0.5941 -0.8686  1.0472
 1028TIP3   OH224498   2.420   5.739  13.211  0.4725 -0.0716 -0.4046
 1028TIP3    H124499   2.381   5.819  13.175  0.7011  0.3434  0.2463
 1028TIP3    H224500   2.402   5.744  13.305 -1.6842 -2.0206 -0.6928
 1029TIP3   OH224501   3.353   3.361   0.823  0.1731 -0.3556 -0.4348
 1029TIP3    H124502   3.336   3.267   0.821 -2.5433  0.0259  2.0174
 1029TIP3    H224503   3.274   3.401   0.787  0.4300  1.0544  0.5093
 1030TIP3   OH224504   2.258   1.978   3.333  0.6109 -0.2057 -0.0784
 1030TIP3    H124505   2.197   2.052   3.338  0.6577 -0.1737  0.0289
 1030TIP3    H224506   2.285   1.975   3.242 -1.4624 -1.7631 -0.6748
 1031TIP3   OH224507   5.013   5.783  10.314  0.0820  0.1930 -0.1254
 1031TIP3    H124508   5.102   5.748  10.321 -0.1324 -0.2038  0.7091
 1031TIP3    H224509   4.966   5.718  10.261  0.8877  1.6033 -2.6765
 1032TIP3   OH224510   2.791   6.757  14.921  0.5902 -0.4134 -0.0887
 1032TIP3    H124511   2.701   6.786  14.936  0.6769 -0.2591  0.1431
 1032TIP3    H224512   2.811   6.701  14.996  1.0855  0.4999  0.4721
 1033TIP3   OH224513   4.450   5.344  12.456 -0.1695 -0.2744  0.0904
 1033TIP3    H124514   4.445   5.439  12.467 -2.1612 -0.3097 -0.3710
 1033TIP3    H224515   4.500   5.332  12.375  0.2780  0.3558  0.2640
 1034TIP3   OH224516   1.020   3.083  16.135  0.4973 -0.1874 -0.4930
 1034TIP3    H124517   1.032   3.168  16.091 -0.2325  0.2096  0.0749
 1034TIP3    H224518   1.107   3.061  16.167  1.1929 -0.7919 -2.6941
 1035TIP3   OH224519   5.607   5.662   3.893  0.3128 -0.0574 -0.3724
 1035TIP3    H124520   5.590   5.611   3.814 -0.3410 -0.1804 -0.1559
 1035TIP3    H224521   5.533   5.643   3.950 -0.3599  1.7529 -0.5990
 1036TIP3   OH224522   3.835   5.887  14.272 -0.5032  0.2258  0.0236
 1036TIP3    H124523   3.866   5.843  14.351  1.6350  1.3289 -0.1708
 1036TIP3    H224524   3.891   5.853  14.202 -1.2588  0.5288 -0.7496
 1037TIP3   OH224525   0.724   0.251   5.660 -0.5114 -0.0791  0.2183
 1037TIP3    H124526   0.725   0.165   5.703  0.7422  0.7901  2.0267
 1037TIP3    H224527   0.781   0.240   5.584  0.8952 -0.4803  1.2873
 1038TIP3   OH224528   5.841   3.528   2.377  0.2491  0.6030 -0.3207
 1038TIP3    H124529   5.923   3.537   2.329  1.1534  2.1061  1.4827
 1038TIP3    H224530   5.783   3.593   2.337  0.3146  0.4032 -0.7531
 1039TIP3   OH224531   3.171   1.174  11.112 -0.8149 -0.2833  0.6645
 1039TIP3    H124532   3.147   1.250  11.058 -2.5588  1.2544  3.5048
 1039TIP3    H224533   3.116   1.103  11.079 -1.7770  0.6076  0.3120
 1040TIP3   OH224534   1.134   1.485  16.022 -0.4316 -0.9022 -0.1884
 1040TIP3    H124535   1.223   1.459  16.049 -0.8090 -1.0403  0.9540
 1040TIP3    H224536   1.112   1.558  16.079 -0.6402 -0.1675 -1.2076
 1041TIP3   OH224537   5.012   4.633  14.596  0.1106  0.6100 -0.7333
 1041TIP3    H124538   4.984   4.724  14.600 -0.3241  0.5195 -1.6664
 1041TIP3    H224539   5.106   4.637  14.582  0.1470  0.9069 -0.4299
 1042TIP3   OH224540   6.679   2.089  16.184 -0.2132  0.0780  0.1265
 1042TIP3    H124541   6.593   2.125  16.206 -0.8417 -0.2239 -1.8034
 1042TIP3    H224542   6.661   1.997  16.161  0.6259  0.0244 -0.3083
 1043TIP3   OH224543   1.828   1.632   4.979 -0.4854  0.2932 -0.0240
 1043TIP3    H124544   1.737   1.602   4.984 -0.0177 -1.1600 -0.0410
 1043TIP3    H224545   1.850   1.628   4.886 -1.0806  2.7487 -0.2959
 1044TIP3   OH224546   6.173   6.590   6.556 -0.0121  0.8013 -0.0475
 1044TIP3    H124547   6.107   6.520   6.560  0.3886  0.4174 -0.0897
 1044TIP3    H224548   6.123   6.670   6.542 -0.3505  0.3216 -1.6582
 1045TIP3   OH224549   6.116   3.330   6.823 -0.0789  0.4428 -0.2887
 1045TIP3    H124550   6.072   3.407   6.787 -0.5910  1.2516  1.9755
 1045TIP3    H224551   6.209   3.343   6.800 -0.1092  1.9093  0.3605
 1046TIP3   OH224552   6.539   5.244  15.066  0.3943  0.3407  0.0864
 1046TIP3    H124553   6.574   5.160  15.036  3.1781  1.1440  0.8698
 1046TIP3    H224554   6.541   5.300  14.988 -1.5151 -0.3217 -0.4481
 1047TIP3   OH224555   0.851   2.467   5.695 -0.1871  0.1453  0.4143
 1047TIP3    H124556   0.822   2.448   5.784  0.7426  2.1701  1.1721
 1047TIP3    H224557   0.910   2.542   5.704  0.7377 -0.2818 -1.7847
 1048TIP3   OH224558   4.232   5.126  14.041 -0.4301 -0.6180 -0.3406
 1048TIP3    H124559   4.272   5.040  14.055  1.9795 -0.1306 -3.7397
 1048TIP3    H224560   4.294   5.187  14.081 -1.1859 -0.2870  0.3476
 1049TIP3   OH224561   4.594   6.747   5.103 -0.2134  0.1873 -0.2133
 1049TIP3    H124562   4.634   6.661   5.117 -0.4989 -0.2951 -2.1898
 1049TIP3    H224563   4.609   6.794   5.185 -0.8244 -2.0469  1.2432
 1050TIP3   OH224564   0.052   6.700   2.513  0.7992 -0.1257 -0.2407
 1050TIP3    H124565   0.088   6.613   2.499 -3.7764 -2.3168  0.4838
 1050TIP3    H224566   0.066   6.717   2.607 -2.2521 -2.1934  0.6884
 1051TIP3   OH224567   1.431   0.960   0.551 -0.4850  0.0991 -0.3942
 1051TIP3    H124568   1.378   1.038   0.564 -1.2826 -0.2842 -1.2742
 1051TIP3    H224569   1.393   0.895   0.610 -2.3616 -0.8103 -2.5310
 1052TIP3   OH224570   0.790   3.263   2.019 -0.1312 -0.1703  0.4352
 1052TIP3    H124571   0.853   3.230   1.955 -0.2644 -1.9994  1.2039
 1052TIP3    H224572   0.724   3.309   1.967  1.4044  1.1015 -0.4482
 1053TIP3   OH224573   5.364   0.662  12.614  0.8086  0.5307  0.1752
 1053TIP3    H124574   5.375   0.569  12.635 -0.0897  0.7564  1.6861
 1053TIP3    H224575   5.451   0.700  12.630  1.0057  0.0774  0.1956
 1054TIP3   OH224576   5.893   6.745   3.097  0.3340 -0.3097 -0.0932
 1054TIP3    H124577   5.906   6.771   3.188  1.9813 -2.1761  0.2331
 1054TIP3    H224578   5.980   6.724   3.065 -0.2921 -0.1410 -1.9665
 1055TIP3   OH224579   0.851   3.016   3.965 -0.2436 -0.3405 -0.5039
 1055TIP3    H124580   0.863   3.110   3.954  3.3842 -0.4188  1.7671
 1055TIP3    H224581   0.815   2.986   3.882 -1.5270  3.0314 -1.2441
 1056TIP3   OH224582   1.139   4.986   5.305 -0.1458  0.4601  0.1812
 1056TIP3    H124583   1.047   4.970   5.286 -0.1751 -0.5643  1.1775
 1056TIP3    H224584   1.185   4.910   5.270 -0.1099 -1.0257  3.3125
 1057TIP3   OH224585   1.665   1.955   4.360 -0.1812  0.0282  0.2664
 1057TIP3    H124586   1.665   1.875   4.306  2.4900  0.8002 -0.9814
 1057TIP3    H224587   1.729   1.937   4.428 -0.4687  0.6609  0.6983
 1058TIP3   OH224588   5.731   4.684   0.155 -0.2774  0.1789  0.0245
 1058TIP3    H124589   5.740   4.671   0.250  0.1762  0.2578 -0.0091
 1058TIP3    H224590   5.645   4.648   0.135  0.0152 -0.6970  0.3140
 1059TIP3   OH224591   0.208   2.770  15.565  0.3869 -0.0532  0.0389
 1059TIP3    H124592   0.128   2.723  15.587  0.5395  0.8660  2.7800
 1059TIP3    H224593   0.190   2.810  15.480 -1.5877 -0.9084  0.0420
 1060TIP3   OH224594   4.121   2.588   5.329  0.3826  0.0316 -0.2047
 1060TIP3    H124595   4.028   2.586   5.308  0.1357 -2.0011  0.9763
 1060TIP3    H224596   4.156   2.508   5.290  2.0841  1.7739 -2.4567
 1061TIP3   OH224597   0.325   1.151   5.271 -0.6308 -0.3450 -0.1838
 1061TIP3    H124598   0.276   1.156   5.353  0.7823  0.0290  0.6702
 1061TIP3    H224599   0.260   1.127   5.205 -1.3851 -2.9581  1.4324
 1062TIP3   OH224600   2.989   2.599  13.610  0.0707 -0.1657 -0.4050
 1062TIP3    H124601   3.005   2.600  13.516  0.6394 -3.0755 -0.3835
 1062TIP3    H224602   2.896   2.578  13.618  0.4428 -1.8136 -0.3087
 1063TIP3   OH224603   0.294   6.255  13.856  0.1191  0.1148 -0.1929
 1063TIP3    H124604   0.239   6.178  13.839 -1.4296  1.3179 -0.7202
 1063TIP3    H224605   0.306   6.295  13.770  0.3631  0.8341  0.1746
 1064TIP3   OH224606   3.667   2.171  13.913 -0.3043 -0.3331 -0.3015
 1064TIP3    H124607   3.684   2.258  13.949  2.7349 -0.6466 -0.8409
 1064TIP3    H224608   3.701   2.111  13.979 -1.3548 -1.0892 -0.4403
 1065TIP3   OH224609   4.027   1.155   5.154 -0.7173  0.0759 -0.1944
 1065TIP3    H124610   3.966   1.208   5.102 -0.0265 -0.9871 -2.1587
 1065TIP3    H224611   4.113   1.194   5.137 -0.1829 -1.6969 -1.7731
 1066TIP3   OH224612   5.476   1.445   2.044  0.5138  0.3193  0.4023
 1066TIP3    H124613   5.531   1.420   2.118 -0.7067  0.8102  1.4850
 1066TIP3    H224614   5.443   1.532   2.066  0.9955  0.9400 -1.2128
 1067TIP3   OH224615   1.356   0.659   2.127  0.2597 -0.3977 -0.2732
 1067TIP3    H124616   1.345   0.589   2.063  0.2464 -0.6742  0.0263
 1067TIP3    H224617   1.385   0.614   2.207  2.8342  0.2169 -0.8139
 1068TIP3   OH224618   2.576   1.571  15.347 -0.1326  0.1690  0.4136
 1068TIP3    H124619   2.505   1.605  15.402 -0.6348  0.1683 -0.2288
 1068TIP3    H224620   2.534   1.549  15.265  0.7536  0.9110 -0.2518
 1069TIP3   OH224621   5.156   5.207   3.675  0.0595  0.2652  0.1030
 1069TIP3    H124622   5.164   5.120   3.637 -0.7830  0.1762  0.1201
 1069TIP3    H224623   5.119   5.261   3.605 -1.5960  0.0785  0.8030
 1070TIP3   OH224624   3.737   6.075  14.820 -0.0384 -0.1464  0.1041
 1070TIP3    H124625   3.733   6.008  14.889  0.4060 -0.5903 -0.2999
 1070TIP3    H224626   3.665   6.053  14.761 -0.7138  0.5134  0.6748
 1071TIP3   OH224627   4.959   2.231   1.885  0.2924 -0.3015 -0.4675
 1071TIP3    H124628   5.015   2.280   1.945  0.0524  1.2069 -1.4595
 1071TIP3    H224629   4.885   2.289   1.868 -0.5244 -1.4333 -0.8386
 1072TIP3   OH224630   3.619   0.855   4.562  0.3901  0.3733  0.3596
 1072TIP3    H124631   3.593   0.888   4.476 -1.5987 -0.7298  0.5082
 1072TIP3    H224632   3.664   0.773   4.544 -0.1943  0.0476  0.3817
 1073TIP3   OH224633   6.021   1.398  11.070 -0.2569  0.7069 -0.6436
 1073TIP3    H124634   6.036   1.492  11.063 -1.4754  0.9017 -0.7291
 1073TIP3    H224635   5.981   1.373  10.987  1.2691 -0.1392 -1.1434
 1074TIP3   OH224636   1.886   6.534   0.949 -0.1491 -0.3391 -0.1244
 1074TIP3    H124637   1.804   6.501   0.986  0.0623 -0.2784  0.3945
 1074TIP3    H224638   1.859   6.584   0.872 -0.5797 -0.5422 -0.1041
 1075TIP3   OH224639   5.800   5.077  12.040  0.4580 -1.0332  0.5804
 1075TIP3    H124640   5.790   5.172  12.037 -0.0895 -1.1244 -0.7211
 1075TIP3    H224641   5.737   5.048  12.106 -0.8305 -0.6781 -0.4766
 1076TIP3   OH224642   1.251   3.337   3.637 -0.4445  0.1618 -0.1110
 1076TIP3    H124643   1.324   3.385   3.597 -1.4192  0.6432 -1.3194
 1076TIP3    H224644   1.178   3.351   3.578 -0.7752 -2.7853 -0.4591
 1077TIP3   OH224645   0.395   4.116   0.113 -0.9730  0.2685 -0.5382
 1077TIP3    H124646   0.440   4.181   0.060  0.6518  0.2087  0.7030
 1077TIP3    H224647   0.382   4.042   0.055 -2.5808  1.5903 -1.8832
 1078TIP3   OH224648   6.640   1.834   3.554 -0.0437 -0.2809 -0.0661
 1078TIP3    H124649   6.637   1.888   3.475 -0.6313 -0.4058 -0.1314
 1078TIP3    H224650   6.724   1.855   3.594  0.4301 -0.4977 -0.9258
 1079TIP3   OH224651   6.383   3.283  11.684  0.0038 -0.5989  0.2214
 1079TIP3    H124652   6.420   3.325  11.606 -1.3392 -0.9883 -0.6562
 1079TIP3    H224653   6.383   3.351  11.751 -1.1246  0.5021 -0.8664
 1080TIP3   OH224654   1.031   5.403   1.185  0.0174 -1.0188  0.0305
 1080TIP3    H124655   1.106   5.364   1.141  0.0993 -1.9286  0.9591
 1080TIP3    H224656   1.069   5.468   1.244 -0.0715 -0.0303 -0.9849
 1081TIP3   OH224657   0.999   0.663  11.782  0.0739  0.0726 -0.6404
 1081TIP3    H124658   1.092   0.686  11.784 -0.3410  1.8471 -0.5899
 1081TIP3    H224659   0.958   0.734  11.732 -1.4851  0.2674  0.8595
 1082TIP3   OH224660   5.727   1.717   6.094  0.0902 -0.1877 -0.2353
 1082TIP3    H124661   5.723   1.813   6.092  1.2593 -0.1255  0.1913
 1082TIP3    H224662   5.800   1.697   6.152 -1.3807 -1.3749  1.2592
 1083TIP3   OH224663   4.129   2.254  10.680 -0.6302  0.1033  0.1513
 1083TIP3    H124664   4.181   2.279  10.604  1.5021  2.5794  2.3108
 1083TIP3    H224665   4.177   2.181  10.719  0.2883  1.2480  1.1721
 1084TIP3   OH224666   1.622   6.327  13.993 -0.5601  0.3199 -0.1311
 1084TIP3    H124667   1.562   6.306  14.064 -0.4696 -0.3801 -0.2654
 1084TIP3    H224668   1.702   6.356  14.037 -0.9877  1.2510  0.0468
 1085TIP3   OH224669   0.765   2.234  12.528 -0.4162 -0.1151  0.6147
 1085TIP3    H124670   0.842   2.292  12.525 -0.8267  0.5473  2.1185
 1085TIP3    H224671   0.691   2.294  12.539 -0.9730 -0.8456  0.8751
 1086TIP3   OH224672   4.650   1.634  11.396 -0.5289 -0.0799 -0.1547
 1086TIP3    H124673   4.658   1.675  11.482  0.3541 -0.4021 -0.0784
 1086TIP3    H224674   4.649   1.708  11.335  1.2773  0.0721 -0.0295
 1087TIP3   OH224675   3.504   2.698   4.560 -0.3624 -0.4641  0.1331
 1087TIP3    H124676   3.415   2.667   4.543  0.1037 -2.9169  1.9742
 1087TIP3    H224677   3.551   2.621   4.591  1.6490  1.4192  1.9317
 1088TIP3   OH224678   0.864   2.429   2.610 -0.6659  0.1428 -0.2707
 1088TIP3    H124679   0.925   2.447   2.539 -1.5132  2.3729 -0.4655
 1088TIP3    H224680   0.783   2.402   2.566 -0.8231  0.3587 -0.1158
 1089TIP3   OH224681   3.675   3.550   1.960  0.4573  0.1618 -0.1902
 1089TIP3    H124682   3.768   3.544   1.980  0.4925  0.5859 -0.2363
 1089TIP3    H224683   3.670   3.539   1.865  0.4855  0.4500 -0.2242
 1090TIP3   OH224684   0.440   3.755  15.937  0.2870  0.3491  0.2702
 1090TIP3    H124685   0.450   3.703  16.016 -1.9083  1.0335  1.0452
 1090TIP3    H224686   0.516   3.813  15.936  1.7762 -1.5682  0.3667
 1091TIP3   OH224687   1.231   4.055  13.166  0.5052  0.1537  0.1972
 1091TIP3    H124688   1.288   4.027  13.238 -0.6119  1.8390  1.7868
 1091TIP3    H224689   1.142   4.037  13.198 -0.0630  2.3035 -0.1371
 1092TIP3   OH224690   2.362   2.651   1.514  0.1398 -0.5094  0.0325
 1092TIP3    H124691   2.309   2.730   1.504  1.5789  0.3393 -0.9429
 1092TIP3    H224692   2.452   2.681   1.510  0.7071 -2.3173 -1.4493
 1093TIP3   OH224693   0.194   2.277  12.912 -0.6867 -0.6287 -1.1473
 1093TIP3    H124694   0.137   2.349  12.938  0.9831  0.2840  0.1049
 1093TIP3    H224695   0.157   2.200  12.956 -2.3462 -0.5093 -2.3142
 1094TIP3   OH224696   3.506   2.501  11.868 -0.7457 -0.0601 -0.2528
 1094TIP3    H124697   3.529   2.477  11.778  2.7169  1.2841  0.2022
 1094TIP3    H224698   3.461   2.585  11.859 -0.8623 -0.1737 -0.7750
 1095TIP3   OH224699   0.627   4.876   4.427 -0.7824  0.3063 -0.7231
 1095TIP3    H124700   0.679   4.924   4.492  0.1319 -1.6876  0.0354
 1095TIP3    H224701   0.547   4.853   4.473  0.7112 -2.8802  0.3971
 1096TIP3   OH224702   6.683   6.282  14.322 -0.6800  0.0026  0.0888
 1096TIP3    H124703   6.595   6.283  14.284 -0.2050 -0.8640 -1.0603
 1096TIP3    H224704   6.736   6.334  14.262 -0.2163 -0.2344  0.2887
 1097TIP3   OH224705   1.098   4.888  15.769 -0.3425 -0.0900  0.4335
 1097TIP3    H124706   1.052   4.948  15.711  1.9945  1.1722 -0.1818
 1097TIP3    H224707   1.029   4.842  15.815 -2.2263  0.8216 -1.3799
 1098TIP3   OH224708   0.867   4.647  11.624  0.3827  0.1542 -0.3223
 1098TIP3    H124709   0.824   4.683  11.702  0.6399  0.8693 -0.5076
 1098TIP3    H224710   0.923   4.718  11.592 -0.1463  0.0647 -1.4862
 1099TIP3   OH224711   5.002   1.253   4.393  0.6570  0.0848 -0.7665
 1099TIP3    H124712   4.993   1.347   4.376  1.9098  0.4598  0.5948
 1099TIP3    H224713   5.095   1.235   4.380  0.8185 -0.5184  1.1676
 1100TIP3   OH224714   2.313   5.436  17.226 -0.6627  0.4154  0.3275
 1100TIP3    H124715   2.227   5.402  17.249 -1.1584  1.0963 -0.4777
 1100TIP3    H224716   2.298   5.529  17.208  0.0130  0.2868 -0.9529
 1101TIP3   OH224717   2.813   5.797   0.122 -0.0221  0.0901  0.4022
 1101TIP3    H124718   2.771   5.880   0.144 -1.3054 -0.9687  2.1040
 1101TIP3    H224719   2.775   5.771   0.039  1.1894  1.7156 -0.6946
 1102TIP3   OH224720   4.017   5.006   3.489  0.0343  0.0628 -0.1933
 1102TIP3    H124721   4.107   4.993   3.520  0.0013  0.2961  0.0054
 1102TIP3    H224722   3.993   5.092   3.524 -1.8174 -1.7964  3.4393
 1103TIP3   OH224723   1.163   0.087  12.783 -0.0341 -0.4344 -0.2397
 1103TIP3    H124724   1.161   0.148  12.857 -0.8458  1.0497 -1.4574
 1103TIP3    H224725   1.072   0.063  12.769  0.2172 -1.4423 -0.1669
 1104TIP3   OH224726   0.766   0.821  13.963  0.2390  0.2714  0.1946
 1104TIP3    H124727   0.681   0.829  14.005  0.5824  0.2973  0.8814
 1104TIP3    H224728   0.828   0.858  14.026  1.4060 -4.2978  1.8753
 1105TIP3   OH224729   2.045   6.750  13.926  0.4003  0.1472  0.4888
 1105TIP3    H124730   2.038   6.665  13.883  0.6260  0.4421 -0.1364
 1105TIP3    H224731   2.036   6.814  13.855 -0.6453  0.6560  1.0721
 1106TIP3   OH224732   5.687   4.827  12.558 -0.3555  0.2047  0.1133
 1106TIP3    H124733   5.745   4.853  12.487 -0.5135 -1.2521 -0.5697
 1106TIP3    H224734   5.739   4.838  12.638  0.4579  0.0534 -0.3925
 1107TIP3   OH224735   1.228   2.369   0.086 -0.1490  0.5032  0.0744
 1107TIP3    H124736   1.155   2.312   0.110  0.7245 -0.4613  0.4667
 1107TIP3    H224737   1.198   2.458   0.107 -1.2790  0.1304  0.0355
 1108TIP3   OH224738   1.181   3.614   0.073  0.1249  0.0993 -0.0196
 1108TIP3    H124739   1.132   3.532   0.078  0.4420  0.0152  2.0580
 1108TIP3    H224740   1.149   3.656  -0.007  0.0607 -2.0902 -1.1647
 1109TIP3   OH224741   2.815   4.594  12.146  0.1904 -0.4464  0.4846
 1109TIP3    H124742   2.746   4.615  12.083 -1.8351 -0.5705  2.5565
 1109TIP3    H224743   2.832   4.501  12.134 -0.6960 -0.6282  0.5585
 1110TIP3   OH224744   6.023   5.491   0.625  0.0240 -0.7420  0.3056
 1110TIP3    H124745   5.937   5.455   0.603 -0.4250  0.6593 -0.3101
 1110TIP3    H224746   6.034   5.565   0.565  1.7614 -1.0463  0.2275
 1111TIP3   OH224747   1.671   2.623   5.037 -0.4034  0.8851  0.5356
 1111TIP3    H124748   1.710   2.705   5.067 -1.1426  1.1339  0.8303
 1111TIP3    H224749   1.674   2.629   4.941 -0.6199  1.3423  0.5540
 1112TIP3   OH224750   0.330   5.870   3.072  0.1683  0.4044 -0.0252
 1112TIP3    H124751   0.250   5.843   3.117  0.0055 -1.1373 -1.2118
 1112TIP3    H224752   0.304   5.876   2.980  1.4448 -0.1421 -0.4167
 1113TIP3   OH224753   4.678   2.928  13.296 -0.2088  0.3103 -0.1048
 1113TIP3    H124754   4.707   2.838  13.311  0.5051  0.4496 -0.6161
 1113TIP3    H224755   4.661   2.963  13.383  1.1346  0.2154  0.1990
 1114TIP3   OH224756   6.678   4.462   1.982 -0.3204  0.5795  0.2088
 1114TIP3    H124757   6.690   4.460   2.077 -0.2259 -3.8639  0.2043
 1114TIP3    H224758   6.585   4.480   1.969 -1.0359 -2.0805  1.3005
 1115TIP3   OH224759   3.609   5.318   4.833  0.3853  0.1953 -0.8547
 1115TIP3    H124760   3.603   5.297   4.926 -2.0115 -1.0690 -1.2406
 1115TIP3    H224761   3.599   5.413   4.829  0.9386  0.3025  0.2009
 1116TIP3   OH224762   2.209   1.797   0.466 -0.0956  0.3526  0.2894
 1116TIP3    H124763   2.197   1.723   0.406  0.4563  0.2057  0.3635
 1116TIP3    H224764   2.274   1.767   0.529 -2.3362 -0.3494  2.3655
 1117TIP3   OH224765   4.265   2.226  12.424 -0.0476  0.3417 -0.0015
 1117TIP3    H124766   4.267   2.252  12.332 -0.7550  2.9646  0.6720
 1117TIP3    H224767   4.176   2.196  12.439  0.0948 -0.1766 -0.1927
 1118TIP3   OH224768   2.875   2.667   3.197  0.5081 -0.1628  0.1697
 1118TIP3    H124769   2.930   2.591   3.213  0.7716 -0.3136 -1.3658
 1118TIP3    H224770   2.787   2.638   3.219  0.5720 -1.0033 -0.6614
 1119TIP3   OH224771   1.995   5.485   5.516  0.2644  0.2475  0.8944
 1119TIP3    H124772   2.041   5.435   5.582 -1.0585 -0.0558  1.5985
 1119TIP3    H224773   1.916   5.517   5.560 -0.0731  0.9772 -0.2089
 1120TIP3   OH224774   2.019   1.441   5.101  0.5712  0.4657  0.2325
 1120TIP3    H124775   1.967   1.369   5.137 -0.1892  1.1374  0.4666
 1120TIP3    H224776   1.958   1.513   5.091  1.9738  2.0838  2.9170
 1121TIP3   OH224777   5.451   2.245  15.427  0.9230  0.2065  0.4436
 1121TIP3    H124778   5.478   2.189  15.354 -3.6765  0.7364 -1.8519
 1121TIP3    H224779   5.438   2.184  15.500  1.2822 -0.9696 -0.4542
 1122TIP3   OH224780   1.225   5.646   5.513  0.8662  0.4241  0.2818
 1122TIP3    H124781   1.302   5.657   5.569  0.8285  1.3800  0.1603
 1122TIP3    H224782   1.176   5.727   5.524  1.5833  1.2450 -2.2219
 1123TIP3   OH224783   3.433   5.453  11.116 -0.5332 -0.9665  0.1307
 1123TIP3    H124784   3.345   5.470  11.082 -0.4775  0.8425  0.8794
 1123TIP3    H224785   3.488   5.444  11.038 -0.8089  0.9922 -0.3065
 1124TIP3   OH224786   0.628   1.865   2.341 -0.1933 -0.7945 -0.0871
 1124TIP3    H124787   0.626   1.959   2.323 -1.5085 -1.0238 -1.2103
 1124TIP3    H224788   0.705   1.853   2.397  1.3058  0.6294 -1.7731
 1125TIP3   OH224789   2.099   6.784   5.504  0.3186 -0.2991 -0.0748
 1125TIP3    H124790   2.052   6.866   5.519  1.0880  0.1321  0.0209
 1125TIP3    H224791   2.030   6.720   5.486 -0.1350  0.9537 -3.0027
 1126TIP3   OH224792   2.681   1.257  14.175 -0.0847 -0.5671  0.0350
 1126TIP3    H124793   2.714   1.210  14.251  0.0076 -2.5990 -1.2246
 1126TIP3    H224794   2.586   1.243  14.178 -0.4075  1.5771  1.2042
 1127TIP3   OH224795   0.223   1.625  11.650 -0.2045  0.2819  0.2575
 1127TIP3    H124796   0.181   1.663  11.726 -0.8232  1.2372 -0.5449
 1127TIP3    H224797   0.198   1.533  11.652  0.2312  0.1856  1.4955
 1128TIP3   OH224798   6.541   2.406  14.288  0.0704 -0.1279  0.5742
 1128TIP3    H124799   6.559   2.386  14.197 -0.0464  2.4535 -0.0646
 1128TIP3    H224800   6.624   2.440  14.322  0.0311 -0.7886  1.3569
 1129TIP3   OH224801   5.742   0.322   3.070 -0.2886 -0.0699 -0.3815
 1129TIP3    H124802   5.658   0.349   3.034 -0.6818 -1.7788 -0.8018
 1129TIP3    H224803   5.720   0.262   3.141  0.5642  0.3966  0.2967
 1130TIP3   OH224804   5.835   1.843   1.337 -0.3401 -0.6768  0.0984
 1130TIP3    H124805   5.823   1.846   1.242 -1.7272 -1.0672  0.2441
 1130TIP3    H224806   5.912   1.789   1.350  0.5893  0.3834 -0.8491
 1131TIP3   OH224807   4.406   3.166  12.965 -0.1171 -0.1574 -0.1639
 1131TIP3    H124808   4.419   3.233  13.032 -1.2307  1.5597 -1.6275
 1131TIP3    H224809   4.337   3.109  13.000  0.1776 -0.0061  0.6696
 1132TIP3   OH224810   3.109   3.635   6.694 -0.5329 -0.1941 -0.5454
 1132TIP3    H124811   3.036   3.579   6.670 -0.0750 -0.4673 -1.3386
 1132TIP3    H224812   3.155   3.587   6.762  0.7105 -1.5013 -2.2488
 1133TIP3   OH224813   4.811   0.518   3.148 -0.0235  0.1644 -0.0598
 1133TIP3    H124814   4.824   0.430   3.112 -1.5732 -0.2113  0.2541
 1133TIP3    H224815   4.761   0.564   3.081  0.1654  0.5818  0.0862
 1134TIP3   OH224816   0.813   3.474   4.643  0.2537  0.2770  0.3446
 1134TIP3    H124817   0.811   3.424   4.725  0.3991 -0.8705 -0.3358
 1134TIP3    H224818   0.906   3.493   4.630  0.3761 -0.6273 -0.1822
 1135TIP3   OH224819   2.838   2.645  10.831 -0.6679  0.2861  0.6810
 1135TIP3    H124820   2.925   2.676  10.805 -0.7545  0.5310  0.6760
 1135TIP3    H224821   2.786   2.651  10.751 -0.5158 -0.4998  0.5247
 1136TIP3   OH224822   4.725   0.384   0.973 -0.0066  0.3967  0.2896
 1136TIP3    H124823   4.810   0.346   0.993 -0.2753 -0.2612  0.2060
 1136TIP3    H224824   4.686   0.403   1.058 -0.2507 -0.3791  0.3575
 1137TIP3   OH224825   4.138   0.398  14.787  0.6267  0.2143 -0.5734
 1137TIP3    H124826   4.057   0.444  14.806  1.7749  0.9996  2.6430
 1137TIP3    H224827   4.206   0.447  14.834  3.1861  0.2734 -4.1278
 1138TIP3   OH224828   0.262   3.234  14.779  0.1171  0.0118 -0.5086
 1138TIP3    H124829   0.232   3.145  14.794  0.2934 -0.0336 -0.4220
 1138TIP3    H224830   0.183   3.287  14.780 -0.0863 -0.2628 -1.4933
 1139TIP3   OH224831   3.567   6.478   4.084  0.1284 -0.8115  0.4584
 1139TIP3    H124832   3.484   6.430   4.078  1.0823 -2.7929  2.3414
 1139TIP3    H224833   3.623   6.439   4.017  0.0651 -0.5086  0.2231
 1140TIP3   OH224834   4.952   6.261   1.283  0.3950  0.0630 -0.2301
 1140TIP3    H124835   4.875   6.294   1.330  1.6992  0.2686  1.8193
 1140TIP3    H224836   5.027   6.294   1.333  1.9374  3.0618 -4.3234
 1141TIP3   OH224837   5.474   0.064  14.986  0.6207 -0.1321 -0.1308
 1141TIP3    H124838   5.398   0.009  14.965  0.0195  0.0568  1.4799
 1141TIP3    H224839   5.533   0.052  14.912 -0.7481 -0.7009 -1.1657
 1142TIP3   OH224840   5.167   2.298  14.452 -0.2785 -1.0613  0.2550
 1142TIP3    H124841   5.166   2.205  14.474 -1.0571 -0.8658  1.0390
 1142TIP3    H224842   5.174   2.300  14.357  3.1742 -1.9108  0.4200
 1143TIP3   OH224843   6.332   1.335   3.517  0.1255 -0.4436  0.2447
 1143TIP3    H124844   6.392   1.340   3.592 -1.4717 -1.1502  1.5886
 1143TIP3    H224845   6.323   1.241   3.501  1.1139 -0.2826 -1.3974
 1144TIP3   OH224846   2.561   0.377  14.732  0.0303 -0.6249 -0.2525
 1144TIP3    H124847   2.490   0.359  14.670  0.9707  1.2117 -1.9490
 1144TIP3    H224848   2.641   0.361  14.681  0.8534  3.2418 -0.3323
 1145TIP3   OH224849   0.018   6.527  12.908  0.5399  0.1567  0.6632
 1145TIP3    H124850   0.070   6.530  12.828 -1.3614 -1.7934 -0.6995
 1145TIP3    H224851  -0.057   6.585  12.890 -0.3032 -0.9047  0.6930
 1146TIP3   OH224852   4.139   1.294   1.158  0.0997  0.0484 -0.0967
 1146TIP3    H124853   4.219   1.338   1.187 -1.2513  1.5039  1.5689
 1146TIP3    H224854   4.125   1.226   1.223 -0.3671  0.2330 -0.0009
 1147TIP3   OH224855   2.111   6.314   3.778 -0.1213 -0.7600 -0.0685
 1147TIP3    H124856   2.177   6.384   3.782 -0.2159 -0.5624 -1.6785
 1147TIP3    H224857   2.027   6.360   3.785 -0.1128 -1.0508  2.4384
 1148TIP3   OH224858   5.112   5.218   2.355 -0.2152  0.1053 -0.0590
 1148TIP3    H124859   5.117   5.123   2.365  0.7120  0.2988  1.4829
 1148TIP3    H224860   5.019   5.236   2.345 -0.3925 -0.9709 -0.4246
 1149TIP3   OH224861   2.248   1.006   4.697 -0.3336  0.1548 -0.0170
 1149TIP3    H124862   2.273   1.079   4.754 -0.0738 -0.0020  0.0699
 1149TIP3    H224863   2.270   1.035   4.609 -0.0096  0.0900  0.0409
 1150TIP3   OH224864   5.176   4.729  12.630  0.8624 -0.1620 -0.5211
 1150TIP3    H124865   5.164   4.687  12.715  0.5114 -0.9771 -0.9626
 1150TIP3    H224866   5.270   4.723  12.614  0.7657 -1.2083 -0.7800
 1151TIP3   OH224867   5.118   2.033  14.844  0.7493 -0.2899 -0.2623
 1151TIP3    H124868   5.167   1.951  14.840  2.0852  0.5792 -2.1579
 1151TIP3    H224869   5.135   2.075  14.760 -2.1417  0.6812 -0.4096
 1152TIP3   OH224870   2.541   4.457   0.196  0.0877 -0.0594  0.4692
 1152TIP3    H124871   2.478   4.515   0.153  1.1816  0.9185  0.1627
 1152TIP3    H224872   2.526   4.371   0.155 -0.9336  0.1906  0.2919
 1153TIP3   OH224873   2.679   6.150   2.924 -0.1755  0.0476  0.5743
 1153TIP3    H124874   2.729   6.193   2.854 -0.7765  0.2442  0.2601
 1153TIP3    H224875   2.733   6.076   2.950  0.4758  0.5000  0.5255
 1154TIP3   OH224876   2.622   6.756  11.675 -0.5622  0.2460 -0.0357
 1154TIP3    H124877   2.638   6.704  11.596 -1.8668  1.6841 -1.2784
 1154TIP3    H224878   2.679   6.832  11.664  0.9317 -0.6156  1.5135
 1155TIP3   OH224879   2.694   0.189   4.763 -0.1073  0.1490  0.0029
 1155TIP3    H124880   2.662   0.182   4.673 -0.1652 -0.1300  0.0436
 1155TIP3    H224881   2.657   0.271   4.795  1.8237  1.4502 -0.9867
 1156TIP3   OH224882   6.033   0.078   1.669  0.6850 -0.4026  0.4473
 1156TIP3    H124883   6.111   0.073   1.614  1.3322 -0.6180  1.3569
 1156TIP3    H224884   6.065   0.115   1.752 -0.0054 -1.3015  1.1357
 1157TIP3   OH224885   0.147   6.029  12.742 -0.7986  0.0711 -0.0270
 1157TIP3    H124886   0.191   5.970  12.805  0.4648  1.6827  0.6357
 1157TIP3    H224887   0.072   6.063  12.790 -0.4079  0.5118  0.2866
 1158TIP3   OH224888   0.753   0.109  16.651  0.0154  0.2186  0.3790
 1158TIP3    H124889   0.703   0.080  16.574 -1.0083  1.8141  0.4200
 1158TIP3    H224890   0.739   0.041  16.716 -0.7742 -0.1549 -0.1761
 1159TIP3   OH224891   5.323   4.155  16.965  0.2215  0.3234  0.4453
 1159TIP3    H124892   5.374   4.173  17.044 -0.2968 -0.4778  0.9658
 1159TIP3    H224893   5.387   4.165  16.894  1.0666 -0.4759  1.0791
 1160TIP3   OH224894   4.654   5.727  14.397  0.4474 -0.1417  0.0228
 1160TIP3    H124895   4.698   5.706  14.315  2.6854  0.2085  1.0734
 1160TIP3    H224896   4.618   5.644  14.427  1.4336 -0.7004 -0.2998
 1161TIP3   OH224897   6.454   5.747  13.145  0.1083  0.0054 -0.2594
 1161TIP3    H124898   6.526   5.783  13.093 -0.1071  0.1382 -0.4690
 1161TIP3    H224899   6.377   5.794  13.115 -0.3502 -1.3489 -1.2806
 1162TIP3   OH224900   6.720   6.754   0.708  0.2238  0.2802  0.0225
 1162TIP3    H124901   6.721   6.659   0.694  1.0045  0.4442 -1.1528
 1162TIP3    H224902   6.630   6.773   0.733  0.5090 -1.0145  2.1567
 1163TIP3   OH224903   0.522   6.151  12.657  0.6215 -0.1693  0.4757
 1163TIP3    H124904   0.546   6.081  12.717 -0.1894  0.3691  1.4509
 1163TIP3    H224905   0.543   6.232  12.705  1.3752  0.2734 -0.5575
 1164TIP3   OH224906   1.485   1.509   2.460 -0.1704 -0.0073  0.1242
 1164TIP3    H124907   1.479   1.483   2.552 -1.5210  1.2100  0.4027
 1164TIP3    H224908   1.398   1.543   2.439  0.5321  1.0308 -1.1936
 1165TIP3   OH224909   1.735   6.202  17.045  0.0060  0.4144 -0.0426
 1165TIP3    H124910   1.813   6.170  17.091 -0.2877  0.3577  0.4215
 1165TIP3    H224911   1.759   6.290  17.016 -0.3387  1.0741  1.5885
 1166TIP3   OH224912   3.723   5.672   1.734 -0.1160  0.2715 -0.5874
 1166TIP3    H124913   3.815   5.648   1.741  0.1607  1.3951 -0.2141
 1166TIP3    H224914   3.694   5.635   1.651  0.1689 -1.7046  0.1702
 1167TIP3   OH224915   2.618   3.137  15.965 -0.4850  0.2813  0.2887
 1167TIP3    H124916   2.538   3.086  15.950  0.3397 -0.8225 -0.5011
 1167TIP3    H224917   2.681   3.101  15.902  1.4413 -0.7286  2.6878
 1168TIP3   OH224918   1.034   3.261   4.781  0.6579 -0.6675  0.0331
 1168TIP3    H124919   0.958   3.202   4.781  0.7093 -0.7325 -0.0839
 1168TIP3    H224920   1.068   3.256   4.692 -0.3391  0.8422 -0.4570
 1169TIP3   OH224921   0.995   3.634  16.089  0.1131  0.1650  0.4644
 1169TIP3    H124922   0.971   3.585  16.168  0.1945  1.1191  1.0927
 1169TIP3    H224923   1.024   3.567  16.027  2.3823 -0.4132  2.0847
 1170TIP3   OH224924   2.989   4.890   2.193 -0.3875  0.1297 -0.1869
 1170TIP3    H124925   2.945   4.807   2.175  1.6534 -0.4337 -3.0661
 1170TIP3    H224926   2.923   4.944   2.235 -2.5396 -2.0864 -0.5998
 1171TIP3   OH224927   5.557   1.007  14.226  0.3016 -0.1955 -0.0739
 1171TIP3    H124928   5.522   0.965  14.148 -0.3267  1.4993 -0.7185
 1171TIP3    H224929   5.636   0.956  14.247  0.6197 -0.5074 -1.9393
 1172TIP3   OH224930   5.306   3.942  11.854  0.1436 -0.0222  0.0311
 1172TIP3    H124931   5.302   3.973  11.944 -0.2572 -0.0851  0.0350
 1172TIP3    H224932   5.337   3.852  11.860 -1.3566 -0.5442  0.2252
 1173TIP3   OH224933   1.637   2.146  16.845  0.1950  0.0644 -0.1717
 1173TIP3    H124934   1.594   2.230  16.858 -1.1577 -0.0084 -3.4795
 1173TIP3    H224935   1.572   2.081  16.874  0.2202  0.0902 -0.0575
 1174TIP3   OH224936   2.728   5.646   4.727  0.0761  0.2919 -0.1510
 1174TIP3    H124937   2.767   5.707   4.664 -0.2972 -0.6671 -1.3217
 1174TIP3    H224938   2.798   5.584   4.747  0.4194  1.0219  0.9501
 1175TIP3   OH224939   1.528   2.698   2.470 -0.6506  0.0386  0.1511
 1175TIP3    H124940   1.516   2.699   2.565 -2.2211 -1.1162 -0.0108
 1175TIP3    H224941   1.456   2.645   2.437 -0.3677  0.7696 -1.7371
 1176TIP3   OH224942   5.402   6.363  14.092 -0.0052  0.1136  0.1148
 1176TIP3    H124943   5.451   6.332  14.015 -0.7357  0.3950 -0.4685
 1176TIP3    H224944   5.352   6.437  14.060 -0.6163 -0.0105  0.7767
 1177TIP3   OH224945   1.337   1.134   0.071 -0.0047 -0.1015 -0.2280
 1177TIP3    H124946   1.340   1.224   0.039 -0.2806 -0.3033 -0.8279
 1177TIP3    H224947   1.331   1.081  -0.008  1.6817 -0.7373  0.0364
 1178TIP3   OH224948   1.003   4.608  11.959  0.3731 -0.5374  0.5598
 1178TIP3    H124949   1.008   4.536  12.022 -1.7017 -0.3410  0.9807
 1178TIP3    H224950   0.910   4.617  11.940  0.6435  1.7701  0.1963
 1179TIP3   OH224951   4.053   6.195  12.012 -0.3872 -0.6234  0.3962
 1179TIP3    H124952   4.144   6.219  11.998 -0.5342  0.2947  1.0017
 1179TIP3    H224953   4.009   6.278  12.032 -1.1824 -1.1874  1.0104
 1180TIP3   OH224954   3.847   6.725  15.752  0.1556 -0.5005 -0.5796
 1180TIP3    H124955   3.897   6.677  15.686  0.0514 -1.8139  0.2974
 1180TIP3    H224956   3.905   6.728  15.828 -0.0729  0.2530 -0.4293
 1181TIP3   OH224957   1.434   3.344   5.459 -0.2264 -0.2243 -0.1679
 1181TIP3    H124958   1.427   3.420   5.401  2.4327  0.1865  0.0096
 1181TIP3    H224959   1.377   3.364   5.533  0.3986  1.5710 -0.1646
 1182TIP3   OH224960   1.152   5.470   6.177 -0.0051 -0.0632 -0.1130
 1182TIP3    H124961   1.228   5.412   6.175 -0.3596 -0.5142 -0.9687
 1182TIP3    H224962   1.079   5.414   6.148 -0.7332  0.2557  1.0836
 1183TIP3   OH224963   0.447   4.543   5.673 -0.5458  0.4296  0.2750
 1183TIP3    H124964   0.381   4.606   5.644  0.0507  0.9234 -0.0191
 1183TIP3    H224965   0.511   4.541   5.602 -1.1696 -1.4173 -0.2661
 1184TIP3   OH224966   1.234   1.534  15.540  0.1697 -0.0725  0.8272
 1184TIP3    H124967   1.171   1.550  15.610 -1.4041 -2.0317 -0.0881
 1184TIP3    H224968   1.202   1.455  15.497  1.7652  0.4255 -1.3604
 1185TIP3   OH224969   2.259   6.075   1.299 -0.0210  0.4304 -0.2253
 1185TIP3    H124970   2.164   6.071   1.298  0.0129 -0.5496 -2.1989
 1185TIP3    H224971   2.281   6.142   1.235  0.6371 -0.7606 -1.2826
 1186TIP3   OH224972   5.731   4.061   6.578 -0.0244 -0.2049 -0.1029
 1186TIP3    H124973   5.665   4.021   6.635 -0.7299 -1.1801 -1.5628
 1186TIP3    H224974   5.771   4.128   6.632 -0.4423 -1.3241  1.6574
 1187TIP3   OH224975   1.795   5.229  10.981 -0.4193 -0.0906  0.3068
 1187TIP3    H124976   1.845   5.270  10.910  1.1996 -1.8107  0.4174
 1187TIP3    H224977   1.726   5.180  10.936  0.0728 -0.4708 -0.0425
 1188TIP3   OH224978   6.328   3.263  11.350 -0.6840 -0.2761  0.2459
 1188TIP3    H124979   6.420   3.271  11.323 -0.9431 -0.6634 -0.7822
 1188TIP3    H224980   6.286   3.342  11.317 -0.6851 -0.0107  0.8785
 1189TIP3   OH224981   6.127   1.790  15.462 -0.0858 -0.0881  0.1978
 1189TIP3    H124982   6.177   1.870  15.444 -0.5715  0.0081 -0.7676
 1189TIP3    H224983   6.187   1.719  15.438 -0.0091  0.0040  0.1142
 1190TIP3   OH224984   4.714   0.402  12.514  1.0400  0.1515 -0.1015
 1190TIP3    H124985   4.653   0.446  12.574 -1.4156 -2.0289 -0.8867
 1190TIP3    H224986   4.728   0.465  12.444 -0.4702  0.6743  0.0353
 1191TIP3   OH224987   1.151   2.196  16.491  0.3038  0.2438  0.3317
 1191TIP3    H124988   1.148   2.109  16.450 -2.3777 -0.0062  0.9908
 1191TIP3    H224989   1.232   2.195  16.543  0.8648 -1.4578 -0.5434
 1192TIP3   OH224990   5.439   3.520   1.101 -0.3519  0.0614  0.3737
 1192TIP3    H124991   5.527   3.537   1.067  0.4357 -0.1935  2.2710
 1192TIP3    H224992   5.453   3.481   1.187 -2.3324  0.2051  0.7791
 1193TIP3   OH224993   1.818   5.691  16.715  0.3572 -0.5520  0.3420
 1193TIP3    H124994   1.910   5.714  16.702  0.0892  0.1054 -0.3868
 1193TIP3    H224995   1.770   5.749  16.656 -0.7054  0.9205  2.5892
 1194TIP3   OH224996   4.323   0.384   1.608  0.3300  0.2448 -0.3356
 1194TIP3    H124997   4.302   0.460   1.555 -2.7137 -0.3481 -0.0603
 1194TIP3    H224998   4.350   0.420   1.693 -1.3890  1.0416 -0.1055
 1195TIP3   OH224999   3.735   6.009  16.079  0.2041  0.1717 -0.6139
 1195TIP3    H125000   3.646   5.974  16.068  0.2603 -0.1792  0.0402
 1195TIP3    H225001   3.781   5.981  16.000  0.4353 -1.8365  0.1914
 1196TIP3   OH225002   0.381   5.665  16.677  0.2017  0.3048 -0.1720
 1196TIP3    H125003   0.387   5.630  16.588  1.4620  2.2749 -0.8922
 1196TIP3    H225004   0.315   5.735  16.671 -0.2046  0.0006  0.6106
 1197TIP3   OH225005   3.801   3.537   4.557 -0.7046 -0.1728 -0.1633
 1197TIP3    H125006   3.812   3.596   4.483 -0.0548  0.1650  0.1963
 1197TIP3    H225007   3.775   3.594   4.630  0.5198 -0.2342  0.3351
 1198TIP3   OH225008   0.639   3.987  15.947  0.0731  0.3643 -0.2393
 1198TIP3    H125009   0.688   3.942  16.016 -0.5352 -0.7896 -0.5504
 1198TIP3    H225010   0.592   4.056  15.994  1.2358  0.8773  0.2001
 1199TIP3   OH225011   6.512   0.929   1.378 -0.5623 -0.4401 -0.0851
 1199TIP3    H125012   6.568   0.851   1.378  0.1675  0.0764  1.9252
 1199TIP3    H225013   6.430   0.899   1.340  0.2111 -1.8256 -0.7030
 1200TIP3   OH225014   2.676   2.174  17.034  0.3143 -0.0490 -0.1051
 1200TIP3    H125015   2.590   2.135  17.047 -0.3132  0.9523 -1.1378
 1200TIP3    H225016   2.711   2.184  17.123  0.4197 -2.7243  0.1983
 1201TIP3   OH225017   3.472   1.802   5.059  0.0271 -0.1293 -0.2981
 1201TIP3    H125018   3.464   1.874   4.997 -1.7903  0.6690  0.8436
 1201TIP3    H225019   3.419   1.732   5.020  0.3844 -0.2560 -0.5554
 1202TIP3   OH225020   3.255   5.886  15.288 -0.1615 -0.9804  0.2239
 1202TIP3    H125021   3.320   5.904  15.355  2.7844  1.4164 -3.0563
 1202TIP3    H225022   3.179   5.937  15.313  0.3697 -1.2532  2.4453
 1203TIP3   OH225023   3.203   4.109   0.102 -0.7335 -0.3142 -0.0928
 1203TIP3    H125024   3.280   4.059   0.129 -0.8292 -0.5140 -0.1870
 1203TIP3    H225025   3.128   4.056   0.129 -0.8394 -0.0727  0.0877
 1204TIP3   OH225026   4.516   4.149   3.144  0.5729  0.0152 -0.4167
 1204TIP3    H125027   4.549   4.237   3.125  1.4381  0.0343  1.1161
 1204TIP3    H225028   4.479   4.119   3.061  0.9486  1.5293 -1.1468
 1205TIP3   OH225029   1.068   4.437  14.105 -0.0794 -0.9055  0.1782
 1205TIP3    H125030   1.059   4.433  14.200  0.4495  3.1443  0.4623
 1205TIP3    H225031   0.981   4.419  14.071 -0.3542 -1.9577  1.4168
 1206TIP3   OH225032   6.599   5.717  11.969 -0.5345  0.1568 -0.0689
 1206TIP3    H125033   6.532   5.759  11.915 -1.8363 -0.1257  1.3183
 1206TIP3    H225034   6.609   5.630  11.932 -2.0732 -0.3486  0.6889
 1207TIP3   OH225035   2.182   5.774   1.066  0.1176  0.4600  0.3214
 1207TIP3    H125036   2.200   5.813   1.152 -1.6837  1.4865  0.2668
 1207TIP3    H225037   2.172   5.849   1.008  0.5238 -0.2164 -0.6373
 1208TIP3   OH225038   0.501   3.032  14.753  0.2275 -0.1017  0.2201
 1208TIP3    H125039   0.456   3.022  14.669  1.6062 -0.3214 -0.5130
 1208TIP3    H225040   0.495   3.125  14.773 -0.8829 -0.1892  0.3322
 1209TIP3   OH225041   5.603   1.758  14.878 -0.0189 -0.2034 -0.3182
 1209TIP3    H125042   5.573   1.775  14.967  0.0074  3.1375 -0.8719
 1209TIP3    H225043   5.610   1.845  14.838 -0.0498 -1.6231 -3.5918
 1210TIP3   OH225044   4.525   1.786   2.486  0.1963 -0.4188  0.1887
 1210TIP3    H125045   4.442   1.831   2.468 -0.4001 -0.3871  2.7316
 1210TIP3    H225046   4.578   1.802   2.408 -1.8448  0.3604 -1.1013
 1211TIP3   OH225047   0.589   3.402   4.514  0.2391 -0.4094 -0.1766
 1211TIP3    H125048   0.580   3.446   4.430  0.3602 -0.3516 -0.1594
 1211TIP3    H225049   0.641   3.462   4.567  0.9479 -0.8525 -0.3606
 1212TIP3   OH225050   2.418   3.548  12.336 -0.6101 -0.1250  0.4775
 1212TIP3    H125051   2.378   3.462  12.348 -1.3291 -0.0920 -1.5268
 1212TIP3    H225052   2.473   3.538  12.259 -0.6075  1.1909  0.3021
 1213TIP3   OH225053   3.749   0.627  13.983 -0.4445 -0.3834 -0.2191
 1213TIP3    H125054   3.698   0.689  13.930  0.5963 -0.0297 -0.8306
 1213TIP3    H225055   3.824   0.678  14.013 -0.7943 -0.7053  1.2480
 1214TIP3   OH225056   1.795   4.126  11.884  0.3340  0.1550 -0.3566
 1214TIP3    H125057   1.812   4.032  11.877  1.2231  0.3312 -0.6099
 1214TIP3    H225058   1.726   4.133  11.950  0.6284 -0.6423  0.0395
 1215TIP3   OH225059   0.847   4.346   1.947  0.0259 -0.2034 -0.3770
 1215TIP3    H125060   0.850   4.317   1.856 -1.0844  1.4689 -0.9763
 1215TIP3    H225061   0.911   4.291   1.992  0.7788 -0.8741 -2.2151
 1216TIP3   OH225062   4.121   3.937  14.014  0.3105 -0.2683  0.1238
 1216TIP3    H125063   4.124   3.869  14.080  2.3265  0.4072  0.7542
 1216TIP3    H225064   4.094   3.892  13.934  0.1599 -1.5081  0.8609
 1217TIP3   OH225065   2.590   0.602   4.697 -0.1364 -0.0480  0.4193
 1217TIP3    H125066   2.635   0.542   4.638  1.8418  1.4033  0.3990
 1217TIP3    H225067   2.551   0.545   4.763  0.6990 -1.4435 -0.2573
 1218TIP3   OH225068   3.359   5.079   3.769  0.0678 -0.7889  0.3426
 1218TIP3    H125069   3.290   5.143   3.784  1.1992  0.4916  0.1569
 1218TIP3    H225070   3.316   5.007   3.723 -0.8505  0.5775 -0.9660
 1219TIP3   OH225071   1.206   4.659  13.621  0.1172  0.1041  0.0057
 1219TIP3    H125072   1.116   4.673  13.593 -0.0495 -0.7283  0.1185
 1219TIP3    H225073   1.203   4.580  13.674  1.0744 -0.5061 -0.8311
 1220TIP3   OH225074   0.897   4.652  14.777  0.3884  0.2165  0.1290
 1220TIP3    H125075   0.911   4.574  14.831  0.6025 -0.3368 -0.7228
 1220TIP3    H225076   0.900   4.724  14.839  0.3632 -0.4403  0.9041
 1221TIP3   OH225077   0.195   4.882  10.815 -0.1978  0.6579  0.5021
 1221TIP3    H125078   0.113   4.926  10.834 -0.9275  0.1099 -1.1985
 1221TIP3    H225079   0.171   4.816  10.750  1.5237  0.2538  0.2631
 1222TIP3   OH225080   2.347   5.471  11.541 -0.3718  0.5572 -0.0190
 1222TIP3    H125081   2.342   5.531  11.615  0.2882 -0.2550  0.7004
 1222TIP3    H225082   2.298   5.394  11.571  1.8767 -0.7234  0.5230
 1223TIP3   OH225083   1.039   1.274   4.998  0.1841  0.0312  0.2493
 1223TIP3    H125084   0.984   1.260   5.075  0.7356  0.2980  0.6943
 1223TIP3    H225085   1.128   1.277   5.032  0.6630 -2.2729 -0.6920
 1224TIP3   OH225086   2.544   3.718  16.579 -0.5496 -0.3951 -0.0240
 1224TIP3    H125087   2.488   3.738  16.504  0.1778  0.8233 -0.2394
 1224TIP3    H225088   2.632   3.746  16.553  0.1948 -2.3455  0.2957
 1225TIP3   OH225089   5.235   0.295  13.545 -0.0536  0.0039 -0.1921
 1225TIP3    H125090   5.146   0.298  13.579 -0.0040 -1.4878  0.1038
 1225TIP3    H225091   5.244   0.208  13.507  0.4326  1.0439 -2.5883
 1226TIP3   OH225092   0.877   2.408  16.052  0.0807 -0.5599 -0.8576
 1226TIP3    H125093   0.865   2.332  16.109  1.9398 -0.8483 -0.8144
 1226TIP3    H225094   0.841   2.482  16.102  1.1492 -0.9023  0.4481
 1227TIP3   OH225095   5.100   3.483  17.233  0.6844 -0.4166  0.0394
 1227TIP3    H125096   5.142   3.485  17.147  0.0412  3.4727 -0.2531
 1227TIP3    H225097   5.138   3.558  17.280 -2.2966  0.2555  1.5044
 1228TIP3   OH225098   6.039   5.275   3.389 -0.2663  0.0201  0.4555
 1228TIP3    H125099   6.043   5.367   3.364  1.6052  0.3317  1.7464
 1228TIP3    H225100   5.991   5.274   3.472  1.1502  0.0755  1.3071
 1229TIP3   OH225101   2.689   0.202  11.969 -0.8135 -0.2428  0.4356
 1229TIP3    H125102   2.754   0.204  11.899  1.4997 -1.9105  2.4701
 1229TIP3    H225103   2.679   0.293  11.995  1.3704 -0.0468  0.6648
 1230TIP3   OH225104   0.301   5.435  14.224  0.0375 -0.6442  0.2417
 1230TIP3    H125105   0.272   5.523  14.199  0.9752  0.2340  2.1247
 1230TIP3    H225106   0.328   5.395  14.142 -0.7600  0.6994 -0.6960
 1231TIP3   OH225107   0.156   4.933  11.635 -0.3867  0.3466 -0.5640
 1231TIP3    H125108   0.204   4.876  11.695  1.9502  2.4813 -0.3171
 1231TIP3    H225109   0.174   4.897  11.548  1.0264  0.6445 -0.4066
 1232TIP3   OH225110   1.512   0.525  15.676  0.0865  0.4444  0.2244
 1232TIP3    H125111   1.570   0.521  15.752  1.0920  0.9064 -0.5093
 1232TIP3    H225112   1.432   0.482  15.705  0.7192 -0.0165  1.3188
 1233TIP3   OH225113   3.892   5.969  12.465  0.1438 -0.1179 -0.1290
 1233TIP3    H125114   3.920   6.029  12.534  0.6304 -1.4465  0.8513
 1233TIP3    H225115   3.807   6.003  12.437 -0.0351  0.4708  1.0928
 1234TIP3   OH225116   0.522   5.375  15.524 -0.2324  0.2496 -0.3112
 1234TIP3    H125117   0.549   5.398  15.436 -0.2629 -1.1422 -0.7058
 1234TIP3    H225118   0.574   5.431  15.581  1.6869 -0.6485 -1.1372
 1235TIP3   OH225119   1.152   0.925  14.709  0.1550 -0.3465 -0.5260
 1235TIP3    H125120   1.140   0.872  14.630 -2.1101 -0.9218  0.1462
 1235TIP3    H225121   1.233   0.973  14.695  0.3603 -1.3020 -2.7107
 1236TIP3   OH225122   1.523   1.725   0.982  0.3126 -0.1509  0.4367
 1236TIP3    H125123   1.456   1.658   0.969 -1.5962  1.8254 -0.2569
 1236TIP3    H225124   1.525   1.738   1.077 -0.7963  0.2656  0.4095
 1237TIP3   OH225125   0.733   3.768  14.128  0.1341 -0.6345 -0.1694
 1237TIP3    H125126   0.770   3.840  14.076  0.6908 -1.9771 -1.6888
 1237TIP3    H225127   0.640   3.768  14.107  0.2907 -0.9217 -0.8965
 1238TIP3   OH225128   1.850   0.449  14.280 -0.6678 -0.0458  0.0031
 1238TIP3    H125129   1.808   0.444  14.366 -0.4854  2.4687  0.2852
 1238TIP3    H225130   1.897   0.367  14.271 -1.4964 -0.7586  1.8772
 1239TIP3   OH225131   2.747   1.572   0.946 -0.8831  0.2424  0.0377
 1239TIP3    H125132   2.805   1.647   0.932 -0.6415  0.1505  0.5121
 1239TIP3    H225133   2.759   1.551   1.039  0.8757 -1.8908 -0.6541
 1240TIP3   OH225134   5.714   2.530   0.773  0.0588 -0.2470 -0.5162
 1240TIP3    H125135   5.767   2.608   0.756  0.1947 -0.2839 -0.2670
 1240TIP3    H225136   5.643   2.534   0.709  0.9188 -0.7057 -1.5222
 1241TIP3   OH225137   2.860   0.603   4.560  0.0775  0.1151 -0.2232
 1241TIP3    H125138   2.776   0.628   4.522 -0.9520  0.3535  2.1112
 1241TIP3    H225139   2.876   0.514   4.528 -0.9028  0.1979 -0.9516
 1242TIP3   OH225140   0.333   3.189   1.348  0.0006  0.1671 -0.0322
 1242TIP3    H125141   0.292   3.183   1.262  2.2299 -2.4327 -0.9914
 1242TIP3    H225142   0.298   3.114   1.396 -0.1041  0.7705  0.8487
 1243TIP3   OH225143   5.433   4.222  11.758 -0.5419  0.4924 -0.0597
 1243TIP3    H125144   5.450   4.234  11.852 -0.2610 -1.1196  0.1128
 1243TIP3    H225145   5.349   4.176  11.756 -0.4922  0.4324 -0.5930
 1244TIP3   OH225146   0.436   3.583   3.526 -0.2570  0.2015  0.0315
 1244TIP3    H125147   0.417   3.669   3.488 -0.5889  0.3790  0.6047
 1244TIP3    H225148   0.489   3.602   3.603  2.4544 -0.2928 -1.6354
 1245TIP3   OH225149   3.659   2.411  12.784 -0.3006  0.1814 -0.3739
 1245TIP3    H125150   3.649   2.389  12.876 -0.7585 -3.0550 -1.1488
 1245TIP3    H225151   3.753   2.430  12.774 -0.2559  0.5487  0.7386
 1246TIP3   OH225152   5.907   3.389  15.186  0.1884  0.3763 -0.4141
 1246TIP3    H125153   5.925   3.438  15.106 -0.0587 -0.2676 -0.8682
 1246TIP3    H225154   5.870   3.306  15.156 -0.9076  0.5535  0.4019
 1247TIP3   OH225155   4.863   4.780  12.339 -0.1015 -0.4244  0.8495
 1247TIP3    H125156   4.893   4.733  12.416 -2.6098  0.5451  2.4819
 1247TIP3    H225157   4.785   4.732  12.309 -1.1798  1.1463  1.0250
 1248TIP3   OH225158   5.909   6.484  15.649 -0.3927  0.1674  0.1722
 1248TIP3    H125159   5.976   6.417  15.658  0.9831  1.5036 -0.0084
 1248TIP3    H225160   5.885   6.483  15.556 -1.2842 -0.9326  0.4105
 1249TIP3   OH225161   3.728   6.350   3.903 -0.1572  0.1014  0.7954
 1249TIP3    H125162   3.818   6.317   3.909 -0.5176 -0.9987  0.2826
 1249TIP3    H225163   3.693   6.310   3.823 -1.5459 -0.5843  1.7297
 1250TIP3   OH225164   0.714   0.230  13.849  0.2163  0.1920 -0.4438
 1250TIP3    H125165   0.649   0.237  13.780 -0.4079 -1.1458 -0.0125
 1250TIP3    H225166   0.766   0.153  13.825 -0.2278 -0.4915  0.7451
 1251TIP3   OH225167   2.118   2.142   1.365 -0.1250  0.3510 -0.2109
 1251TIP3    H125168   2.051   2.204   1.338 -1.2707  0.2384  2.2006
 1251TIP3    H225169   2.170   2.190   1.430  0.8553 -0.2413 -0.5458
 1252TIP3   OH225170   1.432   3.690  17.105 -0.3576 -0.3320 -0.0231
 1252TIP3    H125171   1.348   3.731  17.124  1.4160  4.4269 -1.8073
 1252TIP3    H225172   1.417   3.644  17.022 -0.8931  1.5023 -0.9608
 1253TIP3   OH225173   0.893   1.965  14.603 -0.0183  0.1016 -0.0259
 1253TIP3    H125174   0.847   1.990  14.683  2.7608 -0.2385  1.7366
 1253TIP3    H225175   0.876   2.037  14.542 -2.1391  0.3766  0.8505
 1254TIP3   OH225176   2.683   5.500   2.637  0.0692 -0.1340  0.5542
 1254TIP3    H125177   2.642   5.472   2.718 -0.0511 -0.6363  0.3186
 1254TIP3    H225178   2.619   5.481   2.569 -0.3962  1.5574  0.4853
 1255TIP3   OH225179   3.133   5.478  11.535  0.5275 -0.5608  0.6241
 1255TIP3    H125180   3.212   5.436  11.502  0.0445 -1.9287  1.1627
 1255TIP3    H225181   3.082   5.498  11.456  3.0538  3.8507 -0.0380
 1256TIP3   OH225182   5.805   4.685  10.959 -0.7256  0.2545  0.1021
 1256TIP3    H125183   5.862   4.623  11.005 -1.0419 -1.8708 -2.2750
 1256TIP3    H225184   5.768   4.739  11.029  1.4155 -0.6540  2.0178
 1257TIP3   OH225185   0.706   0.549  16.682 -0.1172 -0.3410  0.1990
 1257TIP3    H125186   0.715   0.526  16.774  1.9084 -0.3860  0.0102
 1257TIP3    H225187   0.618   0.585  16.674 -1.1015 -2.3423  1.7172
 1258TIP3   OH225188   1.562   1.439   3.640 -0.3474  0.0280 -0.0124
 1258TIP3    H125189   1.548   1.401   3.726 -0.5282 -2.4877 -1.1143
 1258TIP3    H225190   1.474   1.465   3.610 -0.4026  0.0743  0.1938
 1259TIP3   OH225191   6.453   3.458   5.660 -0.0114  0.2960 -0.0490
 1259TIP3    H125192   6.476   3.366   5.676  1.3402  0.0838 -2.7892
 1259TIP3    H225193   6.471   3.503   5.742  0.0865 -1.7544  1.0820
 1260TIP3   OH225194   2.626   0.454  11.995  0.5807 -0.3240  0.1146
 1260TIP3    H125195   2.662   0.543  11.996  0.7867 -0.4111  0.6849
 1260TIP3    H225196   2.557   0.456  11.929  0.6409  0.2415  0.0714
 1261TIP3   OH225197   5.372   0.716  14.230  0.1507 -0.1722  0.5292
 1261TIP3    H125198   5.324   0.798  14.219 -0.9478 -0.6857  1.3232
 1261TIP3    H225199   5.306   0.648  14.213  1.4877 -0.9059 -1.9108
 1262TIP3   OH225200   6.245   0.810   1.274  0.2589 -0.4842 -0.2864
 1262TIP3    H125201   6.170   0.852   1.232 -0.6595 -1.7166  0.0994
 1262TIP3    H225202   6.213   0.783   1.360  1.3552 -0.3698  0.1755
 1263TIP3   OH225203   3.042   3.811   6.039 -0.1890  0.0597  0.2966
 1263TIP3    H125204   3.013   3.880   6.099 -0.8552 -1.3301  1.6302
 1263TIP3    H225205   2.961   3.777   6.000  0.2229  0.7817 -1.2197
 1264TIP3   OH225206   0.302   2.885   1.049 -0.2559  0.5421 -0.4353
 1264TIP3    H125207   0.221   2.838   1.026  1.2203 -1.1129 -2.4790
 1264TIP3    H225208   0.348   2.895   0.966  2.0065  0.7473  0.8141
 1265TIP3   OH225209   3.515   1.338   2.181  0.0782 -0.2706  0.0223
 1265TIP3    H125210   3.443   1.330   2.118  0.8209 -1.9325 -0.6429
 1265TIP3    H225211   3.498   1.420   2.226 -2.0231 -0.4362 -0.4100
 1266TIP3   OH225212   3.563   2.511   3.103 -0.5597 -0.0347 -0.7357
 1266TIP3    H125213   3.635   2.476   3.155 -0.4840  0.3189 -0.6026
 1266TIP3    H225214   3.527   2.435   3.058 -0.7686 -0.3809  0.0017
 1267TIP3   OH225215   5.479   2.581  17.135 -0.6092 -0.5924 -0.4485
 1267TIP3    H125216   5.444   2.523  17.202  2.6954  0.2054  2.0952
 1267TIP3    H225217   5.533   2.524  17.080  0.1327 -0.5054  0.1796
 1268TIP3   OH225218   2.089   1.366   0.148  0.5735 -0.0763 -0.2983
 1268TIP3    H125219   2.055   1.286   0.187  2.3651  0.6196  2.8036
 1268TIP3    H225220   2.012   1.421   0.132 -0.3261 -1.0336  0.7548
 1269TIP3   OH225221   6.604   4.141   2.184  0.2102 -0.0083  0.1133
 1269TIP3    H125222   6.688   4.142   2.139 -1.0221  0.6466 -2.2760
 1269TIP3    H225223   6.598   4.226   2.227  1.1509 -0.4192  1.0804
 1270TIP3   OH225224   2.487   2.096  16.743  0.2303 -0.0752 -0.2703
 1270TIP3    H125225   2.465   2.002  16.744 -3.5531  0.7257 -0.5374
 1270TIP3    H225226   2.505   2.117  16.834 -2.5102 -0.3761  0.4072
 1271TIP3   OH225227   0.411   1.387  11.757 -0.2022  0.6564 -0.0224
 1271TIP3    H125228   0.347   1.380  11.827 -1.0056  0.3739 -0.7752
 1271TIP3    H225229   0.479   1.443  11.793 -0.3988  0.1758  1.1316
 1272TIP3   OH225230   5.281   5.118  15.370  0.2599 -0.1283 -0.0664
 1272TIP3    H125231   5.323   5.153  15.448 -2.4833  0.1601  1.3230
 1272TIP3    H225232   5.286   5.023  15.380 -0.2159 -0.0899  0.5438
 1273TIP3   OH225233   0.394   5.205   1.755 -0.1137 -0.1649 -0.7304
 1273TIP3    H125234   0.475   5.252   1.735 -0.1517  0.5906  0.8292
 1273TIP3    H225235   0.392   5.199   1.851 -1.8232 -0.3035 -0.7546
 1274TIP3   OH225236   5.480   4.136  11.171 -0.1735 -0.2068  0.5937
 1274TIP3    H125237   5.450   4.085  11.246 -0.4009 -2.4620 -1.0133
 1274TIP3    H225238   5.400   4.154  11.121 -0.3333  3.0610  1.8916
 1275TIP3   OH225239   4.601   2.399   4.692 -0.4223  0.4734  0.0755
 1275TIP3    H125240   4.579   2.448   4.613  0.5965 -0.3305 -0.7173
 1275TIP3    H225241   4.545   2.437   4.760  1.1458  3.5194 -0.2488
 1276TIP3   OH225242   0.536   1.075   1.550 -0.5084  0.1318 -0.1174
 1276TIP3    H125243   0.491   1.084   1.466  1.2319  1.1710 -0.9559
 1276TIP3    H225244   0.555   1.165   1.577  0.4148 -0.2756  0.5983
 1277TIP3   OH225245   6.276   5.196  11.356  0.6776  0.3542  0.3133
 1277TIP3    H125246   6.337   5.156  11.294  1.9388  2.4593  0.1447
 1277TIP3    H225247   6.190   5.160  11.332  1.6242 -1.4992 -0.4015
 1278TIP3   OH225248   1.765   0.609   4.118  0.5116 -0.2420 -0.3238
 1278TIP3    H125249   1.822   0.534   4.133  0.0198  0.0609  3.6023
 1278TIP3    H225250   1.678   0.571   4.106  0.5863 -0.4257 -0.2793
 1279TIP3   OH225251   6.005   0.908   4.852 -0.2167  0.2986  0.1079
 1279TIP3    H125252   6.025   0.850   4.926  0.8892  0.6777  0.1147
 1279TIP3    H225253   6.070   0.886   4.786 -1.0991  0.0818 -0.7053
 1280TIP3   OH225254   6.514   4.294   0.586 -0.5568 -0.2855 -0.3682
 1280TIP3    H125255   6.469   4.226   0.638  2.3142 -1.6010  0.5040
 1280TIP3    H225256   6.478   4.376   0.619 -4.1241 -1.2974 -1.4455
 1281TIP3   OH225257   5.053   5.309  14.171 -0.6112  0.2095 -0.0751
 1281TIP3    H125258   5.047   5.334  14.079 -1.4937 -2.1953 -0.7175
 1281TIP3    H225259   5.000   5.374  14.217 -0.0091  1.5409 -1.2386
 1282TIP3   OH225260   3.293   4.092   1.537 -0.2692  0.5740 -0.2616
 1282TIP3    H125261   3.357   4.056   1.599 -0.0835 -1.3542 -1.5296
 1282TIP3    H225262   3.287   4.185   1.560 -0.1887 -0.0811  2.6213
 1283TIP3   OH225263   2.204   6.493   5.217 -0.6383 -0.2443 -0.1422
 1283TIP3    H125264   2.149   6.418   5.240  0.2285 -0.9948 -0.4768
 1283TIP3    H225265   2.168   6.525   5.134  0.1552 -1.4760 -0.9755
 1284TIP3   OH225266   0.055   1.631  13.520 -0.3650 -0.4980  0.6509
 1284TIP3    H125267  -0.025   1.619  13.469 -0.2466  1.8394 -0.1054
 1284TIP3    H225268   0.024   1.659  13.607 -0.3778  0.1710  0.4310
 1285TIP3   OH225269   1.711   4.143  14.586  0.8523 -0.4480 -0.5759
 1285TIP3    H125270   1.656   4.100  14.521 -0.6523 -1.5836  1.4104
 1285TIP3    H225271   1.742   4.072  14.642 -0.8796  0.8756  2.1615
 1286TIP3   OH225272   0.650   0.545   0.868  0.4111  0.2293  0.1090
 1286TIP3    H125273   0.629   0.487   0.941 -0.2895  2.9627  2.1763
 1286TIP3    H225274   0.566   0.560   0.824  0.0862  1.8133  1.2386
 1287TIP3   OH225275   1.447   1.423  15.378  0.0634  0.5621 -0.7143
 1287TIP3    H125276   1.434   1.487  15.448 -0.1154  0.9631 -1.1187
 1287TIP3    H225277   1.388   1.351  15.400  0.9666  0.0969  0.2665
 1288TIP3   OH225278   2.587   3.477  12.102  0.4427  0.1829 -0.3079
 1288TIP3    H125279   2.671   3.504  12.138  0.2339  1.6998 -0.9087
 1288TIP3    H225280   2.570   3.540  12.032 -0.3243 -1.2287 -1.4148
 1289TIP3   OH225281   3.963   5.275   5.881  0.3626  0.4006 -0.5539
 1289TIP3    H125282   4.037   5.321   5.841 -1.1327  1.5087 -2.0961
 1289TIP3    H225283   4.000   5.191   5.909  2.2151  0.9479 -1.2755
 1290TIP3   OH225284   1.702   1.682  16.843  0.8144  0.3208  0.0402
 1290TIP3    H125285   1.655   1.727  16.773  0.4024  0.3862  0.3576
 1290TIP3    H225286   1.640   1.681  16.916  1.0648 -0.1796  0.2446
 1291TIP3   OH225287   1.908   2.342  11.742 -0.0084  0.5406 -0.3502
 1291TIP3    H125288   1.814   2.326  11.736 -0.2744  1.9301  0.0582
 1291TIP3    H225289   1.919   2.395  11.821  1.0572  0.8530 -0.6984
 1292TIP3   OH225290   2.205   6.337   5.872 -0.3002  0.2576 -0.5283
 1292TIP3    H125291   2.285   6.390   5.872  0.4745 -0.9039  0.3746
 1292TIP3    H225292   2.144   6.386   5.927  0.0937  0.6776 -0.4607
 1293TIP3   OH225293   5.478   1.609  12.170 -0.8201  0.9767 -0.2249
 1293TIP3    H125294   5.444   1.531  12.128 -1.7371 -0.1533  2.5065
 1293TIP3    H225295   5.570   1.589  12.187 -0.3525  1.5789 -1.9509
 1294TIP3   OH225296   0.420   5.704   3.436  0.5685 -0.1513 -0.4471
 1294TIP3    H125297   0.500   5.722   3.388 -1.0926 -0.4439 -3.4138
 1294TIP3    H225298   0.387   5.791   3.462  1.7052 -0.0255  0.6245
 1295TIP3   OH225299   2.310   5.363   1.518  0.0626  0.2077 -0.0575
 1295TIP3    H125300   2.243   5.413   1.564  0.1504 -0.1890  0.4996
 1295TIP3    H225301   2.347   5.425   1.454 -0.0101  0.7671  0.4425
 1296TIP3   OH225302   1.451   1.546  14.524 -0.0168  0.0186 -0.4007
 1296TIP3    H125303   1.367   1.517  14.489  0.4692 -1.6431 -0.2517
 1296TIP3    H225304   1.491   1.597  14.453  0.4706 -2.3532 -1.9191
 1297TIP3   OH225305   2.945   0.393   5.608  0.0230  0.5941 -0.5431
 1297TIP3    H125306   2.857   0.359   5.598 -0.0285  0.1429  1.2377
 1297TIP3    H225307   2.935   0.488   5.603 -0.7812  0.6139  0.9834
 1298TIP3   OH225308   6.727   1.328  10.371  0.3100 -0.1890  0.7946
 1298TIP3    H125309   6.644   1.312  10.416  0.1336 -0.3602  0.4160
 1298TIP3    H225310   6.725   1.268  10.296 -1.1962  2.8615 -1.7077
 1299TIP3   OH225311   4.439   6.337  14.477 -0.2288  0.0684  0.4055
 1299TIP3    H125312   4.370   6.376  14.531  0.6963  1.4363  0.6251
 1299TIP3    H225313   4.480   6.272  14.533 -2.0450 -1.5489 -0.0911
 1300TIP3   OH225314   3.143   0.084   3.011 -0.1974  0.0481 -0.1969
 1300TIP3    H125315   3.116   0.083   3.103 -2.2031 -2.3351 -0.7552
 1300TIP3    H225316   3.099   0.161   2.974  0.4302  0.8831  0.7454
 1301TIP3   OH225317   1.059   5.928   4.630  0.1796 -0.5239 -0.5532
 1301TIP3    H125318   0.982   5.871   4.623  1.0158 -1.7065 -0.4034
 1301TIP3    H225319   1.122   5.876   4.680  1.1631  0.3260 -0.8954
 1302TIP3   OH225320   1.836   3.254   1.971 -0.0506  0.0921 -0.5495
 1302TIP3    H125321   1.783   3.192   2.021 -0.1112  1.1957  0.7720
 1302TIP3    H225322   1.824   3.226   1.880  0.2546 -2.0681  0.0424
 1303TIP3   OH225323   2.557   0.788  16.617 -0.5694  0.1675 -0.3399
 1303TIP3    H125324   2.530   0.878  16.602  0.4588  0.5023 -0.2596
 1303TIP3    H225325   2.651   0.794  16.633 -0.6519 -0.8266  0.5485
 1304TIP3   OH225326   1.541   0.797   5.642 -0.1527  0.1103  0.0157
 1304TIP3    H125327   1.586   0.844   5.712  1.8819 -1.0768 -0.4386
 1304TIP3    H225328   1.514   0.865   5.580 -0.8930  1.0462  1.3501
 1305TIP3   OH225329   2.329   2.742   3.458  0.1431 -0.3530  0.2754
 1305TIP3    H125330   2.312   2.689   3.536  1.9629  0.5126  1.3038
 1305TIP3    H225331   2.296   2.689   3.385  2.5966 -3.2892  1.1637
 1306TIP3   OH225332   6.411   3.141   3.455  0.1619  0.0185 -0.1930
 1306TIP3    H125333   6.358   3.217   3.477  0.3588  0.3657 -0.8739
 1306TIP3    H225334   6.383   3.073   3.515 -0.1646  0.5713  0.2868
 1307TIP3   OH225335   0.979   1.952  15.181  0.0533 -0.5030 -0.5435
 1307TIP3    H125336   0.901   1.896  15.190  1.0981 -2.0042 -0.6297
 1307TIP3    H225337   0.998   1.951  15.087  0.6831 -0.8542 -0.4140
 1308TIP3   OH225338   4.454   2.820   0.902 -0.3789  0.0644 -0.4372
 1308TIP3    H125339   4.436   2.728   0.883 -0.1364 -0.0418 -0.1635
 1308TIP3    H225340   4.379   2.848   0.956  0.7972 -0.6811  1.6290
 1309TIP3   OH225341   5.077   0.435  16.651  0.2510  0.3145  0.2899
 1309TIP3    H125342   5.098   0.341  16.651  0.3241  0.2856 -2.4926
 1309TIP3    H225343   5.001   0.442  16.709 -0.6838 -1.7109 -0.6135
 1310TIP3   OH225344   4.934   0.628   1.429 -0.1409  0.2843 -0.1607
 1310TIP3    H125345   4.941   0.655   1.520 -1.7619  1.4324 -0.3458
 1310TIP3    H225346   4.896   0.539   1.433 -0.8659  0.6061  0.2703
 1311TIP3   OH225347   2.024   2.201   3.987 -0.1178 -0.0538  0.2467
 1311TIP3    H125348   1.941   2.214   4.033 -0.0849 -0.0239  0.2979
 1311TIP3    H225349   2.072   2.138   4.042  1.3055  2.4865  2.0517
 1312TIP3   OH225350   3.102   3.590   5.013  0.4966 -0.0685 -0.2581
 1312TIP3    H125351   3.126   3.529   5.083  0.6739 -1.3761 -1.4491
 1312TIP3    H225352   3.067   3.535   4.944  0.2951  1.2275 -1.2023
 1313TIP3   OH225353   5.965   2.823   6.044 -0.0951 -0.1011  0.0402
 1313TIP3    H125354   5.938   2.903   6.089 -1.1907  0.4133 -1.4746
 1313TIP3    H225355   5.991   2.763   6.114  0.3492  1.4367  1.2059
 1314TIP3   OH225356   1.317   4.097   0.645  0.0868 -0.6974 -0.2983
 1314TIP3    H125357   1.372   4.080   0.722 -0.0054 -0.9194 -0.2810
 1314TIP3    H225358   1.228   4.098   0.680  0.1068  0.0420 -0.2626
 1315TIP3   OH225359   3.247   3.495  12.865  0.6279  0.1559  0.2549
 1315TIP3    H125360   3.321   3.435  12.869 -0.2286 -0.8319  2.1161
 1315TIP3    H225361   3.286   3.581  12.848  2.1374 -0.4517  0.6108
 1316TIP3   OH225362   5.082   6.044   1.122 -0.1770  0.0415  0.2819
 1316TIP3    H125363   5.027   6.102   1.174  1.1815 -0.1253  1.9363
 1316TIP3    H225364   5.061   5.956   1.153 -0.2119 -0.1448 -0.2674
 1317TIP3   OH225365   5.202   2.751   4.491 -0.2014  0.8036 -0.3407
 1317TIP3    H125366   5.216   2.753   4.397  1.0192 -1.0100 -0.2190
 1317TIP3    H225367   5.129   2.690   4.503  0.1835  0.3964 -0.0557
 1318TIP3   OH225368   2.688   2.909   1.291  0.1884 -1.0567  0.1445
 1318TIP3    H125369   2.715   2.905   1.199  1.4168 -1.9388  0.5215
 1318TIP3    H225370   2.640   2.991   1.299 -1.4369 -1.8083 -1.6801
 1319TIP3   OH225371   5.099   2.762   2.184  0.5295 -0.2566  0.2853
 1319TIP3    H125372   5.148   2.681   2.200  0.2678 -0.4812 -0.0284
 1319TIP3    H225373   5.091   2.766   2.088  0.6780  0.2224  0.2926
 1320TIP3   OH225374   6.311   2.904  14.245  0.3068  0.0513  0.7884
 1320TIP3    H125375   6.406   2.891  14.244  0.2454 -0.4315  0.8749
 1320TIP3    H225376   6.296   2.982  14.192  0.7394  0.0252  0.6301
 1321TIP3   OH225377   0.877   4.580  13.173 -0.6139 -0.0258  0.1316
 1321TIP3    H125378   0.972   4.569  13.159 -0.9623 -0.9472 -1.6673
 1321TIP3    H225379   0.868   4.669  13.207  1.1198 -0.7778  2.7340
 1322TIP3   OH225380   3.577   5.633  16.772 -0.1394  0.0155  0.1363
 1322TIP3    H125381   3.612   5.719  16.793  1.2895 -0.4129 -0.4759
 1322TIP3    H225382   3.498   5.625  16.826  0.4574  1.1638  1.1745
 1323TIP3   OH225383   5.147   0.673  11.690  0.9084  0.7424 -0.0592
 1323TIP3    H125384   5.080   0.723  11.644 -0.1414 -0.3599  0.2507
 1323TIP3    H225385   5.187   0.735  11.750 -0.5458  1.1570  0.4942
 1324TIP3   OH225386   6.613   0.931   1.808 -0.0495  0.2395  0.3280
 1324TIP3    H125387   6.677   0.959   1.873  1.4435  0.0978 -1.0533
 1324TIP3    H225388   6.569   0.856   1.849  0.7793  0.2203  1.2116
 1325TIP3   OH225389   5.976   0.487   3.092 -0.2564  0.6267 -0.2000
 1325TIP3    H125390   5.998   0.500   2.999 -1.9160 -1.2557 -0.8956
 1325TIP3    H225391   5.898   0.432   3.090 -0.6409  1.0324  2.3306
 1326TIP3   OH225392   3.609   6.415  16.201  0.0460  0.0431 -0.4242
 1326TIP3    H125393   3.626   6.330  16.240  1.6459  1.5476  2.3581
 1326TIP3    H225394   3.689   6.436  16.153 -0.0848  0.2450 -0.5572
 1327TIP3   OH225395   2.378   6.019   4.484  0.3794  0.3897 -0.1657
 1327TIP3    H125396   2.431   5.946   4.516 -0.1463  0.6067  1.2486
 1327TIP3    H225397   2.330   6.049   4.561 -0.6586  1.1657 -1.1006
 1328TIP3   OH225398   0.881   4.510   0.476  0.1690 -0.3719  0.6563
 1328TIP3    H125399   0.897   4.449   0.404  0.5406 -1.4151  1.6022
 1328TIP3    H225400   0.810   4.469   0.526 -0.6074  0.7168  0.4699
 1329TIP3   OH225401   0.838   0.151   4.641  0.1253 -0.2999  0.0585
 1329TIP3    H125402   0.901   0.148   4.713 -0.7690 -3.1756  0.7453
 1329TIP3    H225403   0.826   0.060   4.615 -1.4991  0.4728 -2.0786
 1330TIP3   OH225404   3.248   4.250  11.645  0.1843 -0.1104 -0.6415
 1330TIP3    H125405   3.287   4.254  11.557  2.1387 -0.9450  0.1682
 1330TIP3    H225406   3.181   4.319  11.644  0.5581  0.2623 -2.6025
 1331TIP3   OH225407   0.270   5.371  13.387  0.4438 -0.1894 -0.5747
 1331TIP3    H125408   0.292   5.288  13.428  0.4794 -0.2050 -0.6247
 1331TIP3    H225409   0.189   5.399  13.429  0.2193 -0.4419 -0.8376
 1332TIP3   OH225410   5.611   1.656  11.391  0.6297  0.1368 -0.0320
 1332TIP3    H125411   5.667   1.641  11.467  1.1864  0.9601 -0.2709
 1332TIP3    H225412   5.668   1.698  11.327 -0.0092  0.0777 -0.6459
 1333TIP3   OH225413   3.051   3.676   2.093  0.8407  0.4119 -0.7467
 1333TIP3    H125414   3.121   3.740   2.109  1.9239 -0.5960 -1.3784
 1333TIP3    H225415   2.973   3.715   2.134  1.4712  2.1487 -1.1428
 1334TIP3   OH225416   4.093   3.185  14.708 -0.0525 -0.5833 -0.2840
 1334TIP3    H125417   4.095   3.177  14.613  1.5007 -1.6552 -0.1798
 1334TIP3    H225418   4.052   3.103  14.738 -0.6322 -0.2050 -0.0276
 1335TIP3   OH225419   0.903   1.221   6.108 -0.1613 -0.7857 -0.1343
 1335TIP3    H125420   0.945   1.188   6.187  0.3686  2.0423  0.8072
 1335TIP3    H225421   0.967   1.207   6.039  1.0577  0.5722  0.7130
 1336TIP3   OH225422   5.661   3.660   3.796 -0.4694 -0.4113 -0.1138
 1336TIP3    H125423   5.583   3.608   3.818 -0.2460 -1.1077 -0.9595
 1336TIP3    H225424   5.641   3.748   3.829 -2.2273 -0.2265 -1.6131
 1337TIP3   OH225425   1.249   1.723   2.175  0.5427 -0.3448 -0.2938
 1337TIP3    H125426   1.218   1.812   2.194 -1.3687 -1.1230  0.3038
 1337TIP3    H225427   1.345   1.732   2.172  0.5221  1.2806  2.1169
 1338TIP3   OH225428   1.197   6.722  13.725 -0.3379  0.1585 -0.1011
 1338TIP3    H125429   1.134   6.692  13.660  1.7905  0.4376 -2.4032
 1338TIP3    H225430   1.237   6.800  13.685  1.2774  0.1192  1.3873
 1339TIP3   OH225431   3.874   2.629  14.923  0.6714 -0.0199 -0.3175
 1339TIP3    H125432   3.863   2.568  14.996 -0.3061  0.5627  0.0492
 1339TIP3    H225433   3.938   2.693  14.954  0.2674  0.2182  0.0369
 1340TIP3   OH225434   1.881   0.027   0.119  0.2138  0.2343 -0.1355
 1340TIP3    H125435   1.881   0.110   0.071  1.0436  0.4781  0.2786
 1340TIP3    H225436   1.798   0.026   0.166  1.1441  1.8361  1.5811
 1341TIP3   OH225437   1.265   5.881  11.760  0.2604 -0.0673  0.0871
 1341TIP3    H125438   1.271   5.967  11.718  2.4912 -0.1550  0.1600
 1341TIP3    H225439   1.202   5.833  11.707 -0.0748  1.2004 -0.6871
 1342TIP3   OH225440   0.590   0.423   0.615 -0.1629  0.1491  0.2237
 1342TIP3    H125441   0.648   0.474   0.672  1.8284 -0.9789 -0.7177
 1342TIP3    H225442   0.650   0.381   0.552 -2.1007 -0.4113 -1.2809
 1343TIP3   OH225443   6.365   2.121   4.049 -0.1628 -0.6505 -0.0399
 1343TIP3    H125444   6.381   2.031   4.019 -1.2362 -1.2672  1.2159
 1343TIP3    H225445   6.357   2.114   4.144  1.9551  1.1116  0.3098
 1344TIP3   OH225446   4.122   5.981  13.491 -0.1563 -0.0188  0.5503
 1344TIP3    H125447   4.055   5.922  13.524  0.3889  0.2526  2.2210
 1344TIP3    H225448   4.176   5.926  13.434  2.2087 -2.0480  4.4927
 1345TIP3   OH225449   4.441   1.240   1.438  0.5380 -0.3413 -0.3157
 1345TIP3    H125450   4.449   1.330   1.471  4.5153 -1.3931  1.8873
 1345TIP3    H225451   4.410   1.190   1.513  1.2330 -1.2902 -0.6530
 1346TIP3   OH225452   4.606   2.985   0.385  0.3486 -0.1333  0.7145
 1346TIP3    H125453   4.607   2.998   0.290 -1.3323 -0.4325  0.6459
 1346TIP3    H225454   4.654   3.061   0.420  0.6352  0.1799 -0.3358
 1347TIP3   OH225455   0.721   4.595  11.897  0.1943  0.0910 -0.6170
 1347TIP3    H125456   0.632   4.593  11.934  0.1286  0.1067 -0.7718
 1347TIP3    H225457   0.741   4.503  11.879 -0.9141  0.3207 -3.2222
 1348TIP3   OH225458   3.451   2.317  13.161 -0.5933  0.0332 -0.2761
 1348TIP3    H125459   3.405   2.304  13.244  0.7922  1.2412  0.7124
 1348TIP3    H225460   3.383   2.304  13.094 -1.7618 -0.7998  1.0385
 1349TIP3   OH225461   5.735   4.892  11.137 -0.2677  0.2713  0.2524
 1349TIP3    H125462   5.722   4.913  11.230 -1.0166 -0.3076  0.2827
 1349TIP3    H225463   5.655   4.922  11.094 -1.4508 -2.5868  0.3229
 1350TIP3   OH225464   2.176   1.843  13.803  0.1272 -0.6157 -0.3303
 1350TIP3    H125465   2.189   1.925  13.754  0.1267  0.7014  1.8143
 1350TIP3    H225466   2.173   1.776  13.735  1.2103  1.0216 -2.0825
 1351TIP3   OH225467   6.160   3.798   2.779  0.1894  0.0267 -0.5419
 1351TIP3    H125468   6.087   3.736   2.775 -1.4365  1.7730  1.0076
 1351TIP3    H225469   6.237   3.745   2.760 -1.3770 -2.0317 -1.4358
 1352TIP3   OH225470   3.989   2.167  11.297  0.5929  0.0919  0.4330
 1352TIP3    H125471   3.981   2.256  11.260  0.7394 -0.5883 -1.2950
 1352TIP3    H225472   4.031   2.180  11.382  0.8475  1.6608  0.0855
 1353TIP3   OH225473   0.101   3.369   4.439  0.3529 -0.1995  0.2182
 1353TIP3    H125474   0.056   3.450   4.414  1.4973 -0.1995 -1.9811
 1353TIP3    H225475   0.038   3.300   4.423 -0.2499  0.1543  1.0436
 1354TIP3   OH225476   3.614   0.955  15.282 -0.3840  0.3776 -0.1946
 1354TIP3    H125477   3.668   0.913  15.214  0.4198  0.3885  0.4235
 1354TIP3    H225478   3.660   0.935  15.364 -1.5072  0.1191  0.3737
 1355TIP3   OH225479   2.670   2.067   0.273 -0.8478  0.1091 -0.0429
 1355TIP3    H125480   2.640   1.990   0.321  0.1683  0.5606  1.3371
 1355TIP3    H225481   2.616   2.139   0.305 -0.1970  0.4042  0.4067
 1356TIP3   OH225482   0.735   1.406   5.144 -0.6275  0.0426 -0.4031
 1356TIP3    H125483   0.645   1.439   5.136 -1.1232 -1.1640  0.0838
 1356TIP3    H225484   0.763   1.390   5.054 -1.3556 -0.7608 -0.4910
 1357TIP3   OH225485   6.160   0.584  13.140  0.0557  0.9041 -0.6520
 1357TIP3    H125486   6.125   0.565  13.228  0.9944 -1.0010 -0.6582
 1357TIP3    H225487   6.222   0.513  13.124 -0.9865  0.5622 -3.3598
 1358TIP3   OH225488   6.046   2.224   4.356  0.0516 -0.0093  0.5863
 1358TIP3    H125489   5.978   2.278   4.317 -0.1847 -1.0682 -0.5305
 1358TIP3    H225490   6.027   2.224   4.449 -0.4245  1.1460  0.4971
 1359TIP3   OH225491   3.744   1.788   5.820  0.2792  0.4301 -0.0532
 1359TIP3    H125492   3.838   1.801   5.832  0.6640 -1.2784 -1.0963
 1359TIP3    H225493   3.705   1.869   5.852  2.2575  2.0223 -1.5125
 1360TIP3   OH225494   4.125   4.080  13.723 -0.7584  0.5088 -0.3517
 1360TIP3    H125495   4.206   4.078  13.673 -1.6359  1.3860 -1.8447
 1360TIP3    H225496   4.123   3.997  13.770  0.9550  0.4465 -0.3450
 1361TIP3   OH225497   3.445   0.877  16.430  0.2428  0.3674  0.3914
 1361TIP3    H125498   3.378   0.944  16.420  0.5289  0.8306  1.4441
 1361TIP3    H225499   3.516   0.904  16.372 -0.8463 -0.6321 -1.4515
 1362TIP3   OH225500   1.671   3.766   5.439 -0.0893 -0.0807 -0.4336
 1362TIP3    H125501   1.739   3.790   5.502  0.4898 -2.0338 -0.2918
 1362TIP3    H225502   1.624   3.848   5.422  0.1795  0.6079  2.0040
 1363TIP3   OH225503   1.273   3.138  11.698 -0.0789 -0.3921  0.3167
 1363TIP3    H125504   1.256   3.093  11.616 -1.2477  0.4786  0.0699
 1363TIP3    H225505   1.296   3.227  11.673 -0.8231 -0.0135  0.9422
 1364TIP3   OH225506   4.572   2.815  16.126  0.5286 -0.9159  0.0902
 1364TIP3    H125507   4.621   2.891  16.155  1.0548 -0.6669 -1.4089
 1364TIP3    H225508   4.639   2.755  16.093 -0.1646 -0.5040 -2.1184
 1365TIP3   OH225509   1.885   0.291  12.881  0.5161 -0.0709  0.2670
 1365TIP3    H125510   1.852   0.379  12.900  2.3439  0.8295 -0.6249
 1365TIP3    H225511   1.967   0.306  12.834  2.0810 -2.2439  2.2134
 1366TIP3   OH225512   1.020   1.283   3.146 -0.0234 -0.4592  0.0429
 1366TIP3    H125513   1.025   1.274   3.051  1.4296 -1.9991  0.2302
 1366TIP3    H225514   0.956   1.217   3.173  1.2117 -1.5899  0.2986
 1367TIP3   OH225515   3.593   6.513   3.627 -0.0344 -0.2920  0.2144
 1367TIP3    H125516   3.650   6.548   3.695 -0.3461 -0.7941  0.7343
 1367TIP3    H225517   3.622   6.423   3.615 -1.0413 -0.6955  0.8281
 1368TIP3   OH225518   4.507   6.318   3.433  0.0524 -0.2986  0.1951
 1368TIP3    H125519   4.512   6.225   3.414  0.8233 -0.6107  1.8172
 1368TIP3    H225520   4.490   6.359   3.349  1.0625 -1.7949 -0.7653
 1369TIP3   OH225521   4.917   5.634   5.594  0.3285  0.1366  0.5665
 1369TIP3    H125522   4.962   5.718   5.598  1.7741 -0.6392  0.7547
 1369TIP3    H225523   4.833   5.654   5.552  0.3297  1.8058  1.3350
 1370TIP3   OH225524   2.069   3.565  11.187 -0.3119  0.2889  0.4706
 1370TIP3    H125525   2.108   3.585  11.272 -1.4734 -0.6250  1.2378
 1370TIP3    H225526   1.978   3.596  11.194 -0.8117 -1.0643  0.0596
 1371TIP3   OH225527   6.730   1.780   3.972  0.4994 -0.5721 -0.1491
 1371TIP3    H125528   6.808   1.773   4.027  0.6076  0.5310 -0.1381
 1371TIP3    H225529   6.667   1.828   4.026 -0.6669 -2.6244  0.3420
 1372TIP3   OH225530   3.466   2.515   3.798 -0.1262  0.1721 -0.4645
 1372TIP3    H125531   3.371   2.526   3.790  0.0561  2.5812  0.4657
 1372TIP3    H225532   3.476   2.455   3.873 -0.9607 -2.3466 -2.3017
 1373TIP3   OH225533   0.760   0.166   0.794  0.0770  0.4741  0.2809
 1373TIP3    H125534   0.840   0.145   0.746  0.2876 -0.4907  1.0495
 1373TIP3    H225535   0.708   0.086   0.791 -0.8507  1.0839 -0.1800
 1374TIP3   OH225536   0.392   3.330   2.268  1.0413  0.4839  0.7289
 1374TIP3    H125537   0.410   3.238   2.289  0.8162  0.5092  1.0443
 1374TIP3    H225538   0.475   3.364   2.235  0.7383 -0.2123 -0.7605
 1375TIP3   OH225539   3.783   2.228  16.927 -0.1939  0.4340  0.0237
 1375TIP3    H125540   3.809   2.170  16.855 -2.3512  1.4752 -1.6796
 1375TIP3    H225541   3.790   2.316  16.890 -1.9296  0.9483  0.8611
 1376TIP3   OH225542   1.751   2.674   0.761  0.5629 -0.2535 -0.0154
 1376TIP3    H125543   1.721   2.726   0.687  1.7858  1.4207  0.6543
 1376TIP3    H225544   1.706   2.712   0.837 -0.0902 -1.4699  0.2303
 1377TIP3   OH225545   2.077   6.764  15.349 -0.2393 -0.2284 -0.3251
 1377TIP3    H125546   2.029   6.842  15.374  1.0089  0.9650 -1.5938
 1377TIP3    H225547   2.169   6.785  15.366  0.1349 -1.3431 -0.8665
 1378TIP3   OH225548   4.232   6.388  11.725 -0.1872  0.3293  0.3159
 1378TIP3    H125549   4.296   6.320  11.746 -0.3447 -0.8072 -2.7307
 1378TIP3    H225550   4.279   6.470  11.741  0.9694 -0.4749  1.1481
 1379TIP3   OH225551   0.241   0.598   5.081 -0.7777  0.2547  0.3537
 1379TIP3    H125552   0.156   0.581   5.040 -1.0488 -1.3594  1.5461
 1379TIP3    H225553   0.255   0.524   5.140  1.1323  0.8654  0.7135
 1380TIP3   OH225554   4.403   3.623  13.153  0.0205 -0.0442  0.3512
 1380TIP3    H125555   4.330   3.592  13.206  0.0431 -0.4703  0.1350
 1380TIP3    H225556   4.474   3.638  13.216  0.0069 -0.4203  0.4590
 1381TIP3   OH225557   2.698   6.577  15.906  0.5104 -0.2762 -0.1539
 1381TIP3    H125558   2.717   6.635  15.832  3.0765  0.6082  1.1363
 1381TIP3    H225559   2.604   6.562  15.901  0.5080  0.3833 -3.1346
 1382TIP3   OH225560   3.170   2.002   3.816 -0.2031  0.0290 -0.5294
 1382TIP3    H125561   3.179   1.907   3.822  0.7931  0.2047  0.9576
 1382TIP3    H225562   3.099   2.023   3.876 -0.6066  0.2120 -1.0609
 1383TIP3   OH225563   1.081   6.700  16.091 -0.5678  0.0531 -0.5743
 1383TIP3    H125564   1.081   6.776  16.032  0.7247  0.4264 -0.1036
 1383TIP3    H225565   1.148   6.642  16.056 -0.2482 -0.0191  0.1553
 1384TIP3   OH225566   4.258   2.304  11.341 -0.3663 -0.1560  0.3947
 1384TIP3    H125567   4.201   2.339  11.273 -1.4647  0.3091  1.5149
 1384TIP3    H225568   4.334   2.362  11.341 -1.0390  0.7475  0.5390
 1385TIP3   OH225569   1.964   2.799   5.691  0.0505 -0.3532  0.4104
 1385TIP3    H125570   2.006   2.725   5.734  0.7326 -2.0201 -3.0270
 1385TIP3    H225571   2.004   2.803   5.605 -1.7716  2.4948 -0.3643
 1386TIP3   OH225572   3.191   3.141   5.544  0.2773  0.0491  0.1621
 1386TIP3    H125573   3.179   3.049   5.569  1.3326 -0.2979 -0.5643
 1386TIP3    H225574   3.235   3.137   5.459 -1.5893  1.2181 -0.8986
 1387TIP3   OH225575   1.981   5.622   5.291  0.6376 -0.5425 -1.2522
 1387TIP3    H125576   2.009   5.556   5.354  0.8696  0.6406 -0.1019
 1387TIP3    H225577   2.022   5.703   5.321 -2.0334  0.7407 -0.8925
 1388TIP3   OH225578   0.007   3.477   3.330 -0.0204 -0.4709  0.1650
 1388TIP3    H125579   0.005   3.382   3.321 -0.0720 -0.5475  0.8950
 1388TIP3    H225580  -0.024   3.511   3.246 -1.9291 -1.1234  0.5923
 1389TIP3   OH225581   2.202   1.763  13.352  0.3939  0.6174 -0.1316
 1389TIP3    H125582   2.190   1.832  13.417 -0.0121  0.9119 -0.5151
 1389TIP3    H225583   2.182   1.805  13.268 -1.0601 -0.2851 -0.2455
 1390TIP3   OH225584   2.407   0.515   4.395 -0.3819 -0.1977  0.0140
 1390TIP3    H125585   2.394   0.609   4.410 -1.1742 -0.0145 -1.5906
 1390TIP3    H225586   2.407   0.507   4.299 -0.7618 -1.8866  0.1460
 1391TIP3   OH225587   5.966   3.697  15.914 -0.0003 -0.7010  0.3475
 1391TIP3    H125588   5.885   3.680  15.962 -0.3728 -0.6849 -0.2682
 1391TIP3    H225589   5.948   3.667  15.825  0.5806 -0.4517  0.1422
 1392TIP3   OH225590   3.480   5.009  13.348 -0.6000  0.5781  0.0093
 1392TIP3    H125591   3.526   5.047  13.274  0.7652  0.0907  0.5865
 1392TIP3    H225592   3.548   4.996  13.414 -1.2763 -1.6063  0.3095
 1393TIP3   OH225593   3.949   4.183   3.411  0.2273  0.5141 -0.1105
 1393TIP3    H125594   4.038   4.199   3.442 -0.2038 -0.1437  1.5085
 1393TIP3    H225595   3.909   4.270   3.408  0.4549  0.6470  0.6361
 1394TIP3   OH225596   4.633   6.065  13.688 -0.2610 -0.1086  0.0619
 1394TIP3    H125597   4.542   6.040  13.671  0.4696 -0.8353 -3.2968
 1394TIP3    H225598   4.683   5.984  13.675  1.0353  0.6508  0.1707
 1395TIP3   OH225599   6.478   0.314   6.182 -0.4264  0.6558 -0.0758
 1395TIP3    H125600   6.387   0.323   6.155 -0.7414 -0.7579  0.4760
 1395TIP3    H225601   6.521   0.273   6.107 -0.5362  0.1093  0.1528
 1396TIP3   OH225602   5.249   4.308   1.229 -0.1163 -0.5364 -0.2902
 1396TIP3    H125603   5.277   4.325   1.319  1.2743  2.0234 -1.1593
 1396TIP3    H225604   5.243   4.212   1.223  4.9104 -1.0555  1.0184
 1397TIP3   OH225605   2.583   4.737   6.137 -0.3107 -0.3966 -0.9421
 1397TIP3    H125606   2.635   4.782   6.070  2.2077 -2.8101 -0.7364
 1397TIP3    H225607   2.613   4.774   6.220 -0.4705 -0.2850 -0.9340
 1398TIP3   OH225608   5.904   0.157  17.230 -0.9082  0.4588  0.0683
 1398TIP3    H125609   5.952   0.238  17.210 -0.4279  0.4684  1.2302
 1398TIP3    H225610   5.945   0.123  17.309 -0.4487 -1.4698 -0.9698
 1399TIP3   OH225611   5.334   4.267  14.031  0.0715  0.1796 -0.1933
 1399TIP3    H125612   5.427   4.246  14.027  1.1981  4.2825  1.9260
 1399TIP3    H225613   5.308   4.277  13.939  2.6493  2.4070 -0.7521
 1400TIP3   OH225614   4.759   3.223  15.308 -0.6020 -0.3412 -0.4404
 1400TIP3    H125615   4.711   3.240  15.389 -1.3970  2.0580 -1.3837
 1400TIP3    H225616   4.848   3.252  15.326 -1.1916  1.8654 -0.9757
 1401TIP3   OH225617   3.473   6.113   3.368  0.2666  1.1028 -0.6915
 1401TIP3    H125618   3.502   6.107   3.459  1.2638  1.1930 -0.9964
 1401TIP3    H225619   3.436   6.201   3.360 -0.0632  1.0002 -0.3049
 1402TIP3   OH225620   4.773   1.260   2.646  0.4558  0.3146 -0.2243
 1402TIP3    H125621   4.864   1.255   2.673  0.5879  0.9772 -0.5571
 1402TIP3    H225622   4.772   1.323   2.574 -0.2258  0.1433 -0.3681
 1403TIP3   OH225623   4.819   2.892   3.493 -0.0249 -0.4045 -0.2673
 1403TIP3    H125624   4.753   2.856   3.435 -0.2232  0.6165 -0.6750
 1403TIP3    H225625   4.898   2.896   3.440  0.0928 -0.5605 -0.1091
 1404TIP3   OH225626   4.450   5.097  11.843 -0.1203 -0.2196 -0.0750
 1404TIP3    H125627   4.359   5.104  11.814 -0.2635  0.6189  0.5738
 1404TIP3    H225628   4.458   5.007  11.873 -0.8135 -0.2317  0.0970
 1405TIP3   OH225629   4.097   6.643  12.548 -0.0047 -0.1959 -0.5604
 1405TIP3    H125630   4.061   6.586  12.481  2.7392 -2.3592 -0.2488
 1405TIP3    H225631   4.192   6.637  12.537  0.3805  3.2290  0.3916
 1406TIP3   OH225632   5.664   3.722   0.005 -0.0368 -0.0844  0.3819
 1406TIP3    H125633   5.676   3.808   0.045  0.0659 -0.8553  2.0824
 1406TIP3    H225634   5.742   3.710  -0.050  0.4390  0.5059  0.9077
 1407TIP3   OH225635   4.561   3.032   0.733 -0.5924  0.3756 -0.6399
 1407TIP3    H125636   4.630   3.090   0.767  2.6874 -3.1415 -0.8990
 1407TIP3    H225637   4.535   2.980   0.809 -1.3568  0.1606 -1.0499
 1408TIP3   OH225638   5.944   2.019  16.228 -0.1673  0.2007 -0.1885
 1408TIP3    H125639   5.897   1.938  16.208 -0.5582  0.1734  0.8282
 1408TIP3    H225640   5.878   2.076  16.267 -0.1392  1.3948 -1.8338
 1409TIP3   OH225641   1.208   5.204  12.572 -0.1027  0.6999 -0.4548
 1409TIP3    H125642   1.216   5.272  12.505  1.5301  2.6518  1.6707
 1409TIP3    H225643   1.275   5.225  12.636  1.1889 -3.5769 -0.2598
 1410TIP3   OH225644   3.658   1.512  15.325 -0.0120  0.0748 -0.1745
 1410TIP3    H125645   3.670   1.418  15.315 -0.9545 -0.0141 -0.5809
 1410TIP3    H225646   3.632   1.523  15.416  1.0184  0.0414  0.1217
 1411TIP3   OH225647   2.328   0.554  14.857 -0.6008 -0.2235 -0.2745
 1411TIP3    H125648   2.403   0.543  14.798 -0.5544 -1.0060 -0.0756
 1411TIP3    H225649   2.274   0.477  14.841 -0.7509 -0.2726  0.4682
 1412TIP3   OH225650   3.682   1.799   1.903 -0.0495 -0.6444  0.2573
 1412TIP3    H125651   3.726   1.880   1.879  0.9656 -1.0949  0.5815
 1412TIP3    H225652   3.637   1.772   1.822 -1.9117  1.1691  0.6271
 1413TIP3   OH225653   1.338   6.229   2.691 -0.8251 -0.2824  0.1010
 1413TIP3    H125654   1.400   6.282   2.640  0.4601  1.0619  2.9884
 1413TIP3    H225655   1.259   6.283   2.697 -1.8370 -1.4064 -2.3605
 1414TIP3   OH225656   3.775   2.454  13.940 -0.2930  0.2603 -0.4313
 1414TIP3    H125657   3.868   2.446  13.959 -0.8465 -0.7604  1.9720
 1414TIP3    H225658   3.751   2.540  13.972 -0.1848  0.5498 -1.1086
 1415TIP3   OH225659   6.217   4.084  16.897 -0.2137  0.1694 -0.6849
 1415TIP3    H125660   6.151   4.154  16.902  0.4657  0.6933  1.2459
 1415TIP3    H225661   6.175   4.010  16.940  0.4762  0.5373  0.6478
 1416TIP3   OH225662   5.379   1.664   3.730  0.3064 -0.2857  0.3008
 1416TIP3    H125663   5.317   1.655   3.658  0.5961 -0.1429  0.0292
 1416TIP3    H225664   5.372   1.756   3.756 -0.6515 -0.6161  1.2394
 1417TIP3   OH225665   1.255   1.164  14.332  0.5278  0.4512 -0.1164
 1417TIP3    H125666   1.240   1.189  14.241 -0.2946  0.3959 -0.0088
 1417TIP3    H225667   1.309   1.086  14.327  0.6101  0.5326 -0.5502
 1418TIP3   OH225668   2.019   0.970  14.724 -0.5608 -0.0321  0.7458
 1418TIP3    H125669   2.036   1.062  14.742  1.4022 -0.2591  0.1115
 1418TIP3    H225670   2.102   0.926  14.744 -0.9879 -1.4335 -0.5525
 1419TIP3   OH225671   0.238   0.458   1.138 -0.1249 -0.1547 -0.1053
 1419TIP3    H125672   0.307   0.508   1.180 -0.3103  0.9879 -1.1365
 1419TIP3    H225673   0.273   0.369   1.131  0.3070 -0.1201  1.4976
 1420TIP3   OH225674   2.116   5.087  13.605  0.0116 -0.2313  0.3096
 1420TIP3    H125675   2.086   5.051  13.521  3.1716  1.2615 -1.5445
 1420TIP3    H225676   2.076   5.174  13.610 -1.4473 -0.9164  1.1732
 1421TIP3   OH225677   6.597   0.060  14.223 -0.2901 -0.7276  0.0820
 1421TIP3    H125678   6.584  -0.018  14.277 -1.1211 -0.9435 -0.4182
 1421TIP3    H225679   6.549   0.129  14.268 -1.5274 -1.0576 -0.7072
 1422TIP3   OH225680   4.908   4.107  16.494 -0.1500 -0.1063 -0.2278
 1422TIP3    H125681   4.868   4.108  16.581 -1.1800 -0.1121 -0.6923
 1422TIP3    H225682   4.842   4.145  16.436  0.8265  0.6075 -0.8901
 1423TIP3   OH225683   2.436   0.918  11.850  0.0086  0.0885 -0.4257
 1423TIP3    H125684   2.424   0.950  11.939  1.8615 -0.5482  0.0623
 1423TIP3    H225685   2.492   0.983  11.809 -1.7797  0.9992 -1.5183
 1424TIP3   OH225686   4.532   0.014   2.961 -0.1674 -0.2132 -0.1146
 1424TIP3    H125687   4.588  -0.052   3.004 -1.6516 -1.8204 -0.6177
 1424TIP3    H225688   4.583   0.043   2.885  1.5709  1.0949  1.5072
 1425TIP3   OH225689   2.634   0.112   5.328  0.1032  0.2920  0.1990
 1425TIP3    H125690   2.703   0.158   5.280  2.8187 -2.5014  1.2527
 1425TIP3    H225691   2.630   0.025   5.288 -1.4381 -0.2206  1.4122
 1426TIP3   OH225692   4.388   2.115  10.557  0.2815 -0.1571 -0.3032
 1426TIP3    H125693   4.456   2.175  10.587 -0.9594  1.4481 -0.5915
 1426TIP3    H225694   4.431   2.059  10.493  1.0424  1.6408 -1.3860
 1427TIP3   OH225695   5.944   3.001   0.981 -0.2490  0.0223 -0.2665
 1427TIP3    H125696   5.962   3.071   1.044 -1.4187  0.8139 -0.7946
 1427TIP3    H225697   5.909   3.046   0.905  2.4494 -0.7858 -2.0373
 1428TIP3   OH225698   5.670   1.690   0.539 -0.3488 -0.4578  0.1489
 1428TIP3    H125699   5.647   1.598   0.525 -3.0199 -0.2811  2.8860
 1428TIP3    H225700   5.737   1.688   0.607 -0.0113 -0.3936 -0.1795
 1429TIP3   OH225701   2.068   4.559  15.253 -0.3139 -0.2517 -0.0299
 1429TIP3    H125702   2.135   4.564  15.322 -0.4022  1.4855 -0.0374
 1429TIP3    H225703   2.083   4.638  15.200 -1.4443 -0.6054 -0.8912
 1430TIP3   OH225704   6.489   5.082  12.080 -0.0168  0.0744 -0.1691
 1430TIP3    H125705   6.501   4.991  12.108  1.6337  0.1899 -0.4522
 1430TIP3    H225706   6.548   5.132  12.135 -0.3285  0.8798 -0.5645
 1431TIP3   OH225707   2.094   1.083  11.451 -0.2687 -0.2304  0.2111
 1431TIP3    H125708   2.149   1.084  11.373  1.1174 -1.8226  1.1287
 1431TIP3    H225709   2.040   1.004  11.440 -1.0808  0.3294  0.1789
 1432TIP3   OH225710   5.509   1.779  15.159 -0.5396  0.4222 -0.5665
 1432TIP3    H125711   5.596   1.797  15.193 -0.5646 -2.3163  1.1582
 1432TIP3    H225712   5.470   1.720  15.224 -4.1643  2.5944 -0.6388
 1433TIP3   OH225713   1.221   3.896   3.959  0.4767  0.1305 -0.1745
 1433TIP3    H125714   1.257   3.882   3.871 -0.5705  0.3709 -0.6507
 1433TIP3    H225715   1.275   3.966   3.996  1.3140 -0.3908 -0.3840
 1434TIP3   OH225716   3.943   5.873   2.040  0.7971 -0.6396  0.6845
 1434TIP3    H125717   3.960   5.920   1.958  0.5618 -0.4054  0.7682
 1434TIP3    H225718   3.881   5.804   2.016  0.1646 -0.1214  0.7997
 1435TIP3   OH225719   6.506   5.335   0.493 -0.1181  0.1898 -0.5477
 1435TIP3    H125720   6.568   5.269   0.464  0.1052 -0.0699  0.4866
 1435TIP3    H225721   6.550   5.418   0.479 -0.0223  0.0648 -0.9710
 1436TIP3   OH225722   1.693   5.862  13.868  0.0086  0.0903 -0.1907
 1436TIP3    H125723   1.707   5.861  13.773 -0.8802 -1.7260 -0.3220
 1436TIP3    H225724   1.651   5.947  13.885 -0.6436  0.0546 -1.5559
 1437TIP3   OH225725   2.845   1.636  14.893  0.1078  0.0091  0.0482
 1437TIP3    H125726   2.799   1.717  14.917 -1.6178 -0.6999 -0.8009
 1437TIP3    H225727   2.819   1.620  14.802  1.9924 -0.4560 -0.4205
 1438TIP3   OH225728   6.418   5.710  15.015 -0.6303 -0.2695 -0.8261
 1438TIP3    H125729   6.327   5.739  15.021  0.0871  1.6037  3.0656
 1438TIP3    H225730   6.462   5.780  14.968 -0.9126 -0.4100 -1.3027
 1439TIP3   OH225731   6.105   5.924  13.886  0.3365  0.1460  0.0952
 1439TIP3    H125732   6.166   5.978  13.836  0.3830  0.2197  0.2333
 1439TIP3    H225733   6.080   5.854  13.826 -0.4469  0.8391 -0.4018
 1440TIP3   OH225734   4.374   5.500   1.228 -0.3513  0.0142 -0.1509
 1440TIP3    H125735   4.458   5.508   1.183 -0.0363 -4.4115 -0.5232
 1440TIP3    H225736   4.397   5.485   1.320 -0.7128 -0.9271 -0.2081
 1441TIP3   OH225737   4.822   1.740   1.190 -0.5837  0.5891  0.2193
 1441TIP3    H125738   4.734   1.748   1.225  0.2679 -0.1343  2.6480
 1441TIP3    H225739   4.874   1.801   1.242  0.1641  1.9066 -1.9839
 1442TIP3   OH225740   4.563   5.586   2.704 -0.5205  0.1797  0.0435
 1442TIP3    H125741   4.531   5.656   2.762  0.8361  1.2566 -0.4679
 1442TIP3    H225742   4.487   5.531   2.689 -1.2614  0.7377  1.6377
 1443TIP3   OH225743   5.259   1.198  15.467 -0.1923  0.0940  0.0341
 1443TIP3    H125744   5.342   1.163  15.433 -0.8763 -0.1635 -1.3994
 1443TIP3    H225745   5.266   1.188  15.562  1.4609  0.1700 -0.0661
 1444TIP3   OH225746   0.723   1.748   6.384  0.1632  0.4682  0.1912
 1444TIP3    H125747   0.695   1.792   6.464  0.2257  2.7302 -1.0168
 1444TIP3    H225748   0.667   1.785   6.315 -0.2822 -1.8668 -0.7544
 1445TIP3   OH225749   0.171   5.348   6.049 -0.7105 -0.0316  0.5160
 1445TIP3    H125750   0.095   5.404   6.065  0.1340  0.3660  3.2871
 1445TIP3    H225751   0.221   5.351   6.130  1.0508 -2.2035 -0.4350
 1446TIP3   OH225752   6.356   3.846   3.961 -0.0777 -0.2122  0.2753
 1446TIP3    H125753   6.433   3.804   3.922 -0.2775 -1.3247  1.0548
 1446TIP3    H225754   6.385   3.869   4.050 -0.8217 -1.1490  0.7615
 1447TIP3   OH225755   4.037   2.210   5.094 -0.3684  0.0835 -0.3493
 1447TIP3    H125756   4.105   2.142   5.091 -0.7849 -0.3368 -0.2833
 1447TIP3    H225757   4.008   2.210   5.186 -0.4522  0.2672 -0.3770
 1448TIP3   OH225758   2.446   5.296  14.668  0.1167  0.4202  0.1503
 1448TIP3    H125759   2.477   5.382  14.696  0.6685  1.0093 -2.1310
 1448TIP3    H225760   2.524   5.253  14.632 -0.2919 -0.8069  0.6947
 1449TIP3   OH225761   2.553   0.875   4.178  0.1339 -0.2604  0.3302
 1449TIP3    H125762   2.484   0.932   4.211 -0.1583 -1.1676  1.2898
 1449TIP3    H225763   2.508   0.793   4.155  0.5831 -0.2005 -0.8313
 1450TIP3   OH225764   5.387   0.518   3.293  0.0079  0.4649  0.6034
 1450TIP3    H125765   5.418   0.550   3.208 -3.3159 -1.3618 -1.3974
 1450TIP3    H225766   5.300   0.555   3.303 -0.7701 -1.6178  1.8767
 1451TIP3   OH225767   6.025   0.678   5.592  0.3904 -0.2216 -0.4424
 1451TIP3    H125768   5.943   0.692   5.638 -0.6842 -2.4926 -1.5550
 1451TIP3    H225769   6.077   0.756   5.609 -2.4826  1.7944 -0.7232
 1452TIP3   OH225770   4.088   1.536  16.238 -0.4183 -0.0864  0.4239
 1452TIP3    H125771   3.993   1.532  16.250 -0.5596  1.6981  0.0675
 1452TIP3    H225772   4.105   1.476  16.164 -1.1172 -1.2168  1.1657
 1453TIP3   OH225773   5.515   3.627   0.657  0.1035  0.6841 -1.1246
 1453TIP3    H125774   5.600   3.660   0.687  0.0488 -0.3905  0.2935
 1453TIP3    H225775   5.537   3.547   0.609 -0.1530 -0.0909  0.0214
 1454TIP3   OH225776   1.896   3.790  15.750 -0.2479 -0.2117 -0.0857
 1454TIP3    H125777   1.818   3.839  15.776 -0.6633 -0.6964 -0.4122
 1454TIP3    H225778   1.944   3.849  15.693 -0.3273  0.1244  0.1946
 1455TIP3   OH225779   6.360   2.818   4.544  0.4167  0.2294  0.2981
 1455TIP3    H125780   6.301   2.746   4.522  0.9970 -0.6031  1.3939
 1455TIP3    H225781   6.304   2.882   4.588 -0.0865  0.4134 -0.6080
 1456TIP3   OH225782   5.113   5.566  12.863  0.0218  0.1731 -0.1122
 1456TIP3    H125783   5.102   5.473  12.885 -0.9441  0.2903 -0.0478
 1456TIP3    H225784   5.197   5.590  12.901 -0.3536 -0.3294  1.0679
 1457TIP3   OH225785   5.640   5.012   3.531  0.5224 -0.0513 -0.1672
 1457TIP3    H125786   5.622   5.078   3.464  1.1571  1.5176  1.1689
 1457TIP3    H225787   5.573   5.025   3.598  0.0286 -1.4510 -0.3737
 1458TIP3   OH225788   4.008   6.214  13.572 -0.2569  0.1705 -0.4403
 1458TIP3    H125789   4.051   6.261  13.501  0.2496 -0.3066 -0.4541
 1458TIP3    H225790   4.030   6.122  13.556 -0.2413  0.0518  0.2662
 1459TIP3   OH225791   3.706   1.546   1.360 -0.1297 -0.4568 -0.3146
 1459TIP3    H125792   3.749   1.487   1.298  0.4884  1.0664 -1.3519
 1459TIP3    H225793   3.732   1.513   1.447  1.1938 -0.9727 -0.8948
 1460TIP3   OH225794   1.565   4.356   6.242 -0.0883  0.3758  0.0130
 1460TIP3    H125795   1.635   4.352   6.307  0.3698 -0.8889 -0.5417
 1460TIP3    H225796   1.484   4.348   6.294  0.2240  0.5464  0.5328
 1461TIP3   OH225797   3.927   1.612   4.788  0.2632 -0.1436  0.0763
 1461TIP3    H125798   4.006   1.559   4.796 -0.0764 -0.6096  0.3571
 1461TIP3    H225799   3.886   1.606   4.874 -0.5197 -0.6073 -0.3279
 1462TIP3   OH225800   1.370   4.269   4.419  0.2364 -0.1084  0.1830
 1462TIP3    H125801   1.429   4.230   4.355  0.5152 -0.7662  0.8300
 1462TIP3    H225802   1.282   4.258   4.381  0.7172  3.4219 -2.1075
 1463TIP3   OH225803   0.225   1.797   6.103 -0.2589 -0.2295 -0.0547
 1463TIP3    H125804   0.219   1.880   6.152 -2.2034 -0.3089 -0.1155
 1463TIP3    H225805   0.259   1.734   6.167 -0.7697  0.1476  0.6019
 1464TIP3   OH225806   0.332   0.682  13.960  0.1513 -0.1312 -0.2708
 1464TIP3    H125807   0.406   0.705  14.017  0.1502 -1.0955  0.1345
 1464TIP3    H225808   0.367   0.688  13.871  0.7011 -0.5105 -0.0846
 1465TIP3   OH225809   1.424   2.953   3.121 -0.1409 -0.6304  0.3881
 1465TIP3    H125810   1.332   2.931   3.109 -0.0850 -0.4365 -0.4490
 1465TIP3    H225811   1.433   3.041   3.083  0.0310  0.0486  1.9871
 1466TIP3   OH225812   2.121   5.357   4.452  0.2825 -0.0403  0.8827
 1466TIP3    H125813   2.205   5.319   4.429 -0.6919 -0.7247 -1.6595
 1466TIP3    H225814   2.142   5.446   4.481  1.6517  0.6573 -2.0994
 1467TIP3   OH225815   6.170   2.517   2.917 -0.0763 -0.0060  0.4914
 1467TIP3    H125816   6.158   2.611   2.904  1.5945  0.5882  2.8566
 1467TIP3    H225817   6.095   2.477   2.874 -0.7971  2.4011 -0.5852
 1468TIP3   OH225818   5.433   5.416  14.294 -0.1376 -0.0113 -0.1456
 1468TIP3    H125819   5.526   5.402  14.313  0.5378  2.1232 -1.7147
 1468TIP3    H225820   5.425   5.397  14.201 -1.6805 -1.9832  0.3608
 1469TIP3   OH225821   3.261   6.221   2.879 -0.3181 -0.1015 -0.0027
 1469TIP3    H125822   3.187   6.216   2.939 -0.9755  0.5035 -0.7469
 1469TIP3    H225823   3.337   6.235   2.934 -0.8580  0.0103  0.7126
 1470TIP3   OH225824   6.198   6.264   4.692  0.4806  0.5771 -0.7010
 1470TIP3    H125825   6.162   6.273   4.780 -0.4559  0.3921 -1.0662
 1470TIP3    H225826   6.181   6.174   4.667 -0.2228  0.9237 -1.4978
 1471TIP3   OH225827   1.379   5.526  15.189  0.1028  0.4444 -0.2920
 1471TIP3    H125828   1.398   5.565  15.103  1.0863  2.1561  0.6731
 1471TIP3    H225829   1.303   5.470  15.173  1.6263 -1.0105 -2.7468
 1472TIP3   OH225830   1.782   6.733   5.909  0.1924  0.3706  0.3733
 1472TIP3    H125831   1.699   6.748   5.954 -0.4617 -0.6678 -0.4801
 1472TIP3    H225832   1.786   6.803   5.843 -2.7929 -2.9329 -3.5012
 1473TIP3   OH225833   0.975   6.085  15.519 -0.1845 -0.0927  0.1420
 1473TIP3    H125834   0.890   6.125  15.503  0.1008  0.4335 -0.0692
 1473TIP3    H225835   0.981   6.013  15.457 -0.8848 -0.7470  0.8172
 1474TIP3   OH225836   6.097   4.753   3.901  0.5362  0.0297 -0.1864
 1474TIP3    H125837   6.094   4.746   3.997 -1.3160  3.3355  0.0733
 1474TIP3    H225838   6.125   4.843   3.885 -0.0168 -0.2287 -2.7687
 1475TIP3   OH225839   3.756   2.749  15.554 -0.1567  0.0255  0.0235
 1475TIP3    H125840   3.754   2.844  15.541 -2.6391 -0.1296 -1.1987
 1475TIP3    H225841   3.837   2.732  15.602  1.4016  2.5212 -1.6109
 1476TIP3   OH225842   2.589   4.404   5.695  0.2596  0.6251 -0.1421
 1476TIP3    H125843   2.498   4.374   5.684 -0.4920  2.3232  1.0964
 1476TIP3    H225844   2.629   4.341   5.754 -0.6167  0.7456  0.5988
 1477TIP3   OH225845   5.167   0.991  14.727  0.3450  0.2691 -0.0557
 1477TIP3    H125846   5.113   0.970  14.803  1.4089 -1.4217  0.2762
 1477TIP3    H225847   5.166   0.911  14.675  1.4118  0.6703 -0.7057
 1478TIP3   OH225848   2.905   6.515  12.689  0.8936 -0.1082 -0.1232
 1478TIP3    H125849   2.987   6.477  12.720  0.1271 -0.9649  0.9096
 1478TIP3    H225850   2.855   6.440  12.656 -0.2330  0.1232  1.0067
 1479TIP3   OH225851   2.592   2.582  16.419 -0.4774  0.6729 -0.3573
 1479TIP3    H125852   2.671   2.632  16.439  0.8284 -1.2105 -0.6426
 1479TIP3    H225853   2.542   2.581  16.501  1.8050 -1.6344  1.0680
 1480TIP3   OH225854   1.153   1.426   1.628  0.4933 -0.2913  0.2112
 1480TIP3    H125855   1.072   1.444   1.676 -0.1496 -1.5996 -0.3639
 1480TIP3    H225856   1.170   1.507   1.579 -0.6297 -0.1072  0.1171
 1481TIP3   OH225857   4.239   5.909   0.958 -0.4503 -0.0989 -0.9126
 1481TIP3    H125858   4.168   5.873   1.011 -0.9377 -0.0513 -1.5197
 1481TIP3    H225859   4.199   5.924   0.872  0.7559 -1.7581 -1.7835
 1482TIP3   OH225860   3.084   5.096   1.878  0.1531 -0.1249  0.8059
 1482TIP3    H125861   3.100   5.027   1.944 -0.9211  1.6756  3.0148
 1482TIP3    H225862   2.990   5.091   1.861  0.0551  0.8795  1.0590
 1483TIP3   OH225863   1.457   1.902   4.634  0.3931 -0.6604  0.2538
 1483TIP3    H125864   1.391   1.911   4.703 -1.4961 -2.1465 -1.2984
 1483TIP3    H225865   1.420   1.837   4.574  2.0589  0.4767 -2.0874
 1484TIP3   OH225866   5.606   3.360  11.988 -0.0902 -0.7072 -0.3946
 1484TIP3    H125867   5.601   3.455  11.997 -0.4566 -0.5726 -1.8354
 1484TIP3    H225868   5.699   3.342  11.976 -0.0349 -0.5096 -0.2630
 1485TIP3   OH225869   3.380   1.737   4.516  0.3354  0.1819  0.3512
 1485TIP3    H125870   3.309   1.683   4.550 -0.8350  0.8010 -1.0197
 1485TIP3    H225871   3.429   1.678   4.459  0.3839 -0.0137  0.5943
 1486TIP3   OH225872   6.767   4.177   5.779  0.2165 -0.0212  0.6773
 1486TIP3    H125873   6.762   4.225   5.861 -2.0767 -0.0018  0.5508
 1486TIP3    H225874   6.689   4.202   5.731  0.3702 -1.7675 -0.5519
 1487TIP3   OH225875   4.435   1.227  13.911  0.1618  0.7487  0.2743
 1487TIP3    H125876   4.459   1.317  13.888 -0.9286  1.0284  0.1960
 1487TIP3    H225877   4.502   1.200  13.974  0.1743  1.8168  0.7328
 1488TIP3   OH225878   4.870   3.030   5.794 -0.7697 -0.5841 -0.0617
 1488TIP3    H125879   4.918   3.113   5.785 -1.3182 -0.2036  0.4655
 1488TIP3    H225880   4.879   3.008   5.887 -0.9811 -0.9066 -0.1186
 1489TIP3   OH225881   4.379   0.867  11.701  0.6053  0.0970 -0.4507
 1489TIP3    H125882   4.375   0.960  11.721 -1.1870  0.0443 -0.5035
 1489TIP3    H225883   4.382   0.863  11.606  2.9751  0.1510 -0.4083
 1490TIP3   OH225884   1.811   3.050   0.691 -0.0366  0.0774  0.4525
 1490TIP3    H125885   1.881   3.041   0.627 -3.6180  0.6773 -3.8049
 1490TIP3    H225886   1.791   3.144   0.693 -1.4585 -0.2128  0.7480
 1491TIP3   OH225887   0.158   4.611  12.925  0.6452 -0.4350  0.0337
 1491TIP3    H125888   0.079   4.597  12.978 -0.5387 -0.3648 -1.6500
 1491TIP3    H225889   0.155   4.704  12.902  0.7953 -0.6013 -0.6797
 1492TIP3   OH225890   2.434   0.782  16.876  0.1546 -0.0614  0.0139
 1492TIP3    H125891   2.408   0.707  16.822  0.9415 -0.3892  0.0799
 1492TIP3    H225892   2.459   0.849  16.813 -0.4515  0.1094 -0.0440
 1493TIP3   OH225893   2.449   5.786   0.521  0.3193 -0.5949 -0.3971
 1493TIP3    H125894   2.495   5.715   0.566 -1.1159 -1.3376 -0.0670
 1493TIP3    H225895   2.383   5.815   0.584 -0.2881 -0.1922 -1.2133
 1494TIP3   OH225896   2.621   1.917   6.366 -0.2136 -1.0771 -0.3341
 1494TIP3    H125897   2.690   1.970   6.405  0.8358 -1.5020 -1.5694
 1494TIP3    H225898   2.624   1.834   6.415 -2.7895  0.4356  2.5364
 1495TIP3   OH225899   3.685   4.306   5.382 -0.3941  0.1167 -0.0897
 1495TIP3    H125900   3.776   4.337   5.384  0.1752 -1.4937 -0.0279
 1495TIP3    H225901   3.635   4.376   5.424  0.9658  0.5640  0.8335
 1496TIP3   OH225902   1.440   2.359  14.152  0.1402 -0.2833  0.1295
 1496TIP3    H125903   1.348   2.363  14.124 -0.0304 -3.2542  0.2033
 1496TIP3    H225904   1.486   2.409  14.084 -1.2698 -0.5257 -1.0546
 1497TIP3   OH225905   4.722   5.435  17.154  0.5938  0.1442  0.0567
 1497TIP3    H125906   4.789   5.383  17.110 -0.2912 -2.4475  1.6830
 1497TIP3    H225907   4.759   5.456  17.240 -0.0702  0.0221  0.3778
 1498TIP3   OH225908   2.893   0.248   0.693 -0.0602 -0.5216 -0.0579
 1498TIP3    H125909   2.913   0.287   0.608  1.1510  0.4830  0.6769
 1498TIP3    H225910   2.920   0.314   0.757 -2.0458 -0.7913  1.0851
 1499TIP3   OH225911   6.402   3.726  16.894 -0.1391 -0.3154  0.3975
 1499TIP3    H125912   6.325   3.751  16.842  0.2296 -0.2918 -0.1451
 1499TIP3    H225913   6.457   3.677  16.833  0.2016 -0.4711  0.8289
 1500TIP3   OH225914   2.435   0.174  15.992  1.0376 -0.1935 -0.3502
 1500TIP3    H125915   2.504   0.230  16.026  0.2832  0.7559 -0.3537
 1500TIP3    H225916   2.358   0.197  16.044  0.0233  0.8196 -2.2404
 1501TIP3   OH225917   6.571   4.595   2.707  0.3573 -0.1394  0.8617
 1501TIP3    H125918   6.603   4.619   2.619  0.5050 -0.6502  0.7749
 1501TIP3    H225919   6.585   4.674   2.759  0.1380  0.2163  0.3893
 1502TIP3   OH225920   5.730   4.593  14.891  0.1461 -0.8379 -0.0295
 1502TIP3    H125921   5.822   4.569  14.889  0.1177 -1.0339  0.9199
 1502TIP3    H225922   5.683   4.510  14.881  0.0664 -0.7735 -0.1971
 1503TIP3   OH225923   3.394   4.933  17.233  0.7770 -0.4860 -0.5819
 1503TIP3    H125924   3.344   4.963  17.157 -0.7696  0.3719  0.7340
 1503TIP3    H225925   3.455   5.005  17.251 -0.8720  0.6413  0.7349
 1504TIP3   OH225926   1.796   0.391   1.864 -0.0685  0.4432  0.2907
 1504TIP3    H125927   1.710   0.415   1.830  0.1530  0.4271 -0.2914
 1504TIP3    H225928   1.802   0.297   1.850  0.0523  0.4472  0.3175
 1505TIP3   OH225929   4.361   6.593  12.533 -0.4579  0.3940  0.3241
 1505TIP3    H125930   4.437   6.650  12.546 -0.9868  1.2459 -0.2602
 1505TIP3    H225931   4.390   6.507  12.563  0.9569  0.5664 -0.5046
 1506TIP3   OH225932   1.237   6.442  11.396 -0.2395  0.4437 -0.2104
 1506TIP3    H125933   1.287   6.388  11.335 -1.6753 -0.6050 -0.4801
 1506TIP3    H225934   1.234   6.528  11.355  0.4016  0.2323 -0.7114
 1507TIP3   OH225935   1.399   1.471  15.111 -0.4806  0.5273  0.4089
 1507TIP3    H125936   1.421   1.453  15.202  0.2430  1.5576  0.4437
 1507TIP3    H225937   1.448   1.550  15.089  1.0754 -0.9007 -1.5082
 1508TIP3   OH225938   4.623   5.108  13.428  0.3719  0.4046 -0.5469
 1508TIP3    H125939   4.553   5.155  13.474 -1.3342 -2.0215 -0.5461
 1508TIP3    H225940   4.635   5.156  13.346  0.0818  1.9753  0.3161
 1509TIP3   OH225941   5.515   4.106  12.730  0.4526 -0.5050  0.3241
 1509TIP3    H125942   5.504   4.117  12.825 -2.2570 -1.9628  0.2226
 1509TIP3    H225943   5.599   4.061  12.721 -0.4262 -2.6607  2.2310
 1510TIP3   OH225944   0.377   1.153  13.385 -0.2164 -0.1944  0.0600
 1510TIP3    H125945   0.411   1.118  13.467 -1.2667 -0.9084  0.2075
 1510TIP3    H225946   0.424   1.235  13.372 -0.7958  0.4727  1.9267
 1511TIP3   OH225947   3.732   0.331  14.510 -0.1773 -0.0855  0.0081
 1511TIP3    H125948   3.706   0.246  14.476  0.8228 -0.9999  1.4308
 1511TIP3    H225949   3.808   0.357  14.457 -1.0904  0.3866 -1.0713
 1512TIP3   OH225950   3.992   5.721  14.775 -0.0130 -0.4791  0.2498
 1512TIP3    H125951   3.902   5.712  14.807  0.2249 -1.3178  0.6920
 1512TIP3    H225952   4.007   5.815  14.771 -0.9891 -0.3323 -0.0393
 1513TIP3   OH225953   4.794   3.489  14.993  1.0253  0.6628  0.3386
 1513TIP3    H125954   4.819   3.581  15.005  0.2967  0.7313  1.3325
 1513TIP3    H225955   4.717   3.477  15.049  0.3868 -0.2342 -0.7025
 1514TIP3   OH225956   3.793   2.481  11.500  0.4183  0.8653 -0.3543
 1514TIP3    H125957   3.861   2.433  11.547 -0.9982 -0.8705 -0.0113
 1514TIP3    H225958   3.718   2.480  11.560 -0.3775  1.4273 -1.3377
 1515TIP3   OH225959   5.530   5.199  10.755  0.1928  0.1863  0.5146
 1515TIP3    H125960   5.474   5.263  10.712 -0.0483 -0.0392  0.4850
 1515TIP3    H225961   5.606   5.248  10.785  0.8485  0.1672 -1.0679
 1516TIP3   OH225962   0.561   0.113  15.572 -0.2298  0.1341 -0.0459
 1516TIP3    H125963   0.621   0.075  15.637  1.7875  1.7754 -0.8943
 1516TIP3    H225964   0.595   0.082  15.488 -3.2333 -2.5513 -0.3897
 1517TIP3   OH225965   2.612   2.768  13.251 -0.1129 -0.0615  0.2663
 1517TIP3    H125966   2.657   2.763  13.167 -0.3844  1.9301 -0.0338
 1517TIP3    H225967   2.622   2.860  13.278 -0.3664 -0.5779  2.2174
 1518TIP3   OH225968   6.578   4.520   5.609  0.4118  0.3689  0.0928
 1518TIP3    H125969   6.526   4.472   5.674  1.1556 -0.5295  0.0268
 1518TIP3    H225970   6.668   4.490   5.623  0.6625  0.6070 -0.9664
 1519TIP3   OH225971   2.286   6.168   1.686 -0.1909  0.1839  0.3504
 1519TIP3    H125972   2.247   6.182   1.773  2.7528  0.5397  1.6799
 1519TIP3    H225973   2.276   6.252   1.642 -1.6984  0.0064  0.3246
 1520TIP3   OH225974   3.048   6.211  15.731 -0.2907 -0.1509 -0.3468
 1520TIP3    H125975   3.090   6.126  15.721 -2.7888 -1.5370  0.3645
 1520TIP3    H225976   2.987   6.217  15.657 -2.8913 -0.7339  1.6684
 1521TIP3   OH225977   3.873   4.700   7.066 -0.6032 -0.0712  0.0009
 1521TIP3    H125978   3.962   4.721   7.093 -1.2935 -0.2805  2.5210
 1521TIP3    H225979   3.874   4.605   7.054 -0.9061 -0.3170  1.7556
 1522TIP3   OH225980   1.873   2.734   2.010 -0.0641 -1.1168  0.2060
 1522TIP3    H125981   1.855   2.672   1.939 -1.2382  0.3726 -0.8469
 1522TIP3    H225982   1.810   2.711   2.078 -0.1887 -1.3726  0.0071
 1523TIP3   OH225983   2.777   4.031  16.047 -0.5262  0.3027  0.3426
 1523TIP3    H125984   2.704   3.971  16.059 -1.0680  0.8255 -0.3029
 1523TIP3    H225985   2.782   4.046  15.953  0.8256 -0.2285  0.3112
 1524TIP3   OH225986   1.155   1.329  15.359  0.5782 -0.3952 -0.2412
 1524TIP3    H125987   1.161   1.242  15.398  1.2416 -0.6276 -0.8644
 1524TIP3    H225988   1.080   1.325  15.300 -0.6934  0.0773  1.2921
 1525TIP3   OH225989   0.208   2.114  13.766  0.1359  0.1963  0.1688
 1525TIP3    H125990   0.281   2.108  13.705 -0.7421  0.3743 -0.9347
 1525TIP3    H225991   0.146   2.047  13.735 -0.2067  0.0985  1.0378
 1526TIP3   OH225992   6.443   4.893   0.818 -0.0296 -0.8308 -0.0227
 1526TIP3    H125993   6.447   4.821   0.755 -2.0162 -1.6145  0.6960
 1526TIP3    H225994   6.374   4.950   0.783 -0.6768 -0.9289  1.0713
 1527TIP3   OH225995   0.110   4.405   0.244 -0.2267  0.2373  0.2418
 1527TIP3    H125996   0.137   4.496   0.230 -0.0559  0.1761  0.1705
 1527TIP3    H225997   0.031   4.395   0.190 -0.3117  0.3755  0.3399
 1528TIP3   OH225998   3.555   5.251   2.150 -0.1279  0.1246 -0.3746
 1528TIP3    H125999   3.628   5.310   2.136 -0.4838  0.3356 -1.4284
 1528TIP3    H226000   3.483   5.307   2.179 -0.0654  0.0099  0.0090
 1529TIP3   OH226001   0.638   4.991  12.796 -0.6946 -0.3410 -0.2444
 1529TIP3    H126002   0.677   5.063  12.846  0.1916  0.5517 -2.1593
 1529TIP3    H226003   0.713   4.942  12.762 -1.2926 -1.9399  0.7003
 1530TIP3   OH226004   0.929   3.764   1.515  0.2068  0.1067 -0.2097
 1530TIP3    H126005   0.957   3.680   1.550 -1.5393 -0.0337  0.9385
 1530TIP3    H226006   0.885   3.807   1.588 -0.2660  1.3649 -1.2084
 1531TIP3   OH226007   1.271   2.143   0.365  0.0149  0.5360  0.6835
 1531TIP3    H126008   1.326   2.221   0.365  1.1465 -0.2367  1.3581
 1531TIP3    H226009   1.276   2.109   0.275  0.5086  0.5670  0.6996
 1532TIP3   OH226010   4.836   3.439  13.200 -0.0579 -0.0510 -0.1110
 1532TIP3    H126011   4.886   3.519  13.217 -2.0369  1.2713 -0.3580
 1532TIP3    H226012   4.869   3.407  13.116  0.7843  0.4857  0.0134
 1533TIP3   OH226013   6.024   4.953  12.177  0.5224 -0.6548 -0.4224
 1533TIP3    H126014   6.051   4.861  12.176 -2.0350 -1.4517 -0.0027
 1533TIP3    H226015   5.962   4.961  12.105 -0.3538  0.3767  0.4194
 1534TIP3   OH226016   5.183   5.766  16.171 -0.1379 -0.7972  0.5244
 1534TIP3    H126017   5.277   5.750  16.162  0.0442 -0.7840  2.2437
 1534TIP3    H226018   5.175   5.814  16.254 -1.5636  0.1249 -0.1341
 1535TIP3   OH226019   5.811   1.027   0.706  0.3277 -0.2511  0.1986
 1535TIP3    H126020   5.774   1.072   0.782 -1.1704 -0.1790 -0.5720
 1535TIP3    H226021   5.892   0.987   0.740  0.4133  0.9627  1.4810
 1536TIP3   OH226022   4.483   5.821  13.448 -0.2624  0.0066  0.5489
 1536TIP3    H126023   4.469   5.839  13.355  0.5366 -1.1495  0.1974
 1536TIP3    H226024   4.558   5.876  13.472 -0.1819 -0.0366  0.3990
 1537TIP3   OH226025   5.933   0.320  11.983 -0.3203 -0.5589 -0.1158
 1537TIP3    H126026   5.936   0.352  12.073 -1.6704  0.4230 -0.4149
 1537TIP3    H226027   5.940   0.398  11.929 -1.6810 -0.9401 -0.8520
 1538TIP3   OH226028   6.271   5.063  10.739  0.1208 -0.1495  0.0437
 1538TIP3    H126029   6.358   5.035  10.768 -0.0424  0.1938  0.8603
 1538TIP3    H226030   6.271   5.158  10.750 -0.4807 -0.1859  0.3661
 1539TIP3   OH226031   0.011   2.849  16.615 -0.9204  0.1162 -0.2069
 1539TIP3    H126032   0.036   2.757  16.619  0.3321  0.4528 -0.2603
 1539TIP3    H226033   0.089   2.897  16.643 -1.5034  1.1698 -0.3494
 1540TIP3   OH226034   5.082   4.780  14.001 -0.1590 -0.2022 -0.5072
 1540TIP3    H126035   5.172   4.780  13.968  0.0684  1.8840  0.0487
 1540TIP3    H226036   5.073   4.864  14.046 -1.8844 -1.0734  0.8292
 1541TIP3   OH226037   1.261   0.591  11.558 -0.3266 -0.2903  0.2683
 1541TIP3    H126038   1.242   0.537  11.481 -2.3571 -0.1580  0.6555
 1541TIP3    H226039   1.297   0.672  11.523 -1.6229 -0.0686 -0.5818
 1542TIP3   OH226040   3.838   0.280   4.830  0.5559  0.1389 -0.5064
 1542TIP3    H126041   3.907   0.247   4.887  1.1253  0.6325 -0.9128
 1542TIP3    H226042   3.878   0.353   4.783 -0.2348  0.4155 -0.7536
 1543TIP3   OH226043   6.552   0.813  11.622 -0.4573 -0.3057  0.3692
 1543TIP3    H126044   6.468   0.856  11.639  0.0170  0.5416  0.5642
 1543TIP3    H226045   6.581   0.783  11.708 -0.7614 -0.9763  0.2413
 1544TIP3   OH226046   6.621   5.244   4.861 -0.2482  0.2279 -0.3197
 1544TIP3    H126047   6.653   5.240   4.952 -0.9882  0.6367 -0.0436
 1544TIP3    H226048   6.560   5.171   4.854 -0.9333  0.7838 -0.2005
 1545TIP3   OH226049   1.745   3.926   2.594 -0.6610 -0.0926  0.3767
 1545TIP3    H126050   1.662   3.947   2.637  0.1358 -1.0313  2.4844
 1545TIP3    H226051   1.812   3.963   2.652  0.4236 -0.4730 -0.6204
 1546TIP3   OH226052   1.249   1.725  17.043 -0.3316  0.2961  0.1136
 1546TIP3    H126053   1.162   1.766  17.032  0.8479  2.4174 -1.7504
 1546TIP3    H226054   1.236   1.634  17.016 -1.5269  1.1355 -2.3646
 1547TIP3   OH226055   2.284   4.214   1.648 -0.2056  0.6881  0.3266
 1547TIP3    H126056   2.226   4.213   1.723  1.0503  1.6198  1.3443
 1547TIP3    H226057   2.287   4.123   1.618  0.6982 -0.0572  2.5365
 1548TIP3   OH226058   2.076   1.191   0.868 -0.2042  0.3717  0.0584
 1548TIP3    H126059   2.051   1.099   0.868 -0.7290  0.5173 -1.6815
 1548TIP3    H226060   1.994   1.239   0.865 -0.1124  0.9953  3.9662
 1549TIP3   OH226061   0.782   3.026  12.126  0.1032 -0.0493  0.3056
 1549TIP3    H126062   0.850   3.006  12.062  0.7818  1.7911  0.4060
 1549TIP3    H226063   0.719   2.954  12.119  0.7299 -0.4209 -1.6269
 1550TIP3   OH226064   1.074   4.402  12.751  0.2025 -0.1892 -0.0315
 1550TIP3    H126065   1.069   4.363  12.838  0.8115  1.5845  0.8103
 1550TIP3    H226066   0.984   4.423  12.728  0.0775 -0.3540  0.3122
 1551TIP3   OH226067   2.801   0.119   6.150  0.0183 -0.4878  0.0279
 1551TIP3    H126068   2.740   0.045   6.147 -0.1649 -0.3262 -0.2108
 1551TIP3    H226069   2.750   0.191   6.186 -0.3039  0.0027 -1.3922
 1552TIP3   OH226070   5.275   1.617   5.214 -0.3418  0.0131 -0.0042
 1552TIP3    H126071   5.194   1.581   5.250  1.4203 -1.2158  2.9244
 1552TIP3    H226072   5.344   1.557   5.243  2.1415  3.2275  1.1897
 1553TIP3   OH226073   4.704   0.926  17.209 -0.2782 -0.6847  0.8287
 1553TIP3    H126074   4.767   0.859  17.237 -0.0910 -0.5727  0.6763
 1553TIP3    H226075   4.746   0.968  17.133 -1.2502 -1.7078 -0.2848
 1554TIP3   OH226076   0.545   4.462  16.277 -0.0083  0.7084 -0.1933
 1554TIP3    H126077   0.596   4.542  16.268 -0.5200  0.8726 -1.8547
 1554TIP3    H226078   0.582   4.402  16.211 -0.1520 -0.1364  0.4859
 1555TIP3   OH226079   6.582   2.125  14.168  0.7287  0.0335 -0.2308
 1555TIP3    H126080   6.581   2.100  14.261  2.1905  0.7429  0.0014
 1555TIP3    H226081   6.555   2.216  14.167 -0.1309 -0.2194 -0.6065
 1556TIP3   OH226082   4.447   4.725   6.172  0.4366  0.2247  1.0072
 1556TIP3    H126083   4.417   4.720   6.263  1.8884 -0.7959  1.4491
 1556TIP3    H226084   4.506   4.651   6.162  1.2569  1.0400 -0.4161
 1557TIP3   OH226085   5.497   3.104  13.995  0.9363 -0.2384 -0.4519
 1557TIP3    H126086   5.549   3.138  13.922  0.1119  0.1511 -0.8617
 1557TIP3    H226087   5.512   3.010  13.993  1.4671 -0.1553 -0.6879
 1558TIP3   OH226088   2.210   6.096   5.480 -0.1866 -0.0222  0.1168
 1558TIP3    H126089   2.204   6.077   5.574 -2.1414 -0.9430 -0.1685
 1558TIP3    H226090   2.167   6.181   5.471  2.3213  1.3397  0.3862
 1559TIP3   OH226091   1.512   6.017   3.109  0.0433  0.2965 -0.0785
 1559TIP3    H126092   1.424   6.018   3.147 -0.6415 -1.8071 -1.5192
 1559TIP3    H226093   1.498   6.031   3.016  1.1536 -0.7595 -0.4212
 1560TIP3   OH226094   3.878   3.221  15.976 -0.2625 -0.3343 -0.5129
 1560TIP3    H126095   3.847   3.222  16.066  0.7925  1.3501 -0.1314
 1560TIP3    H226096   3.945   3.153  15.974  0.9933  0.8468  0.4569
 1561TIP3   OH226097   6.688   5.705  13.761  0.1950 -0.0389  0.4860
 1561TIP3    H126098   6.622   5.636  13.754  0.4527 -0.0996 -1.5145
 1561TIP3    H226099   6.676   5.740  13.850 -0.3558 -2.2064  1.3000
 1562TIP3   OH226100   1.247   5.327   3.881 -0.5716  0.5341  0.5874
 1562TIP3    H126101   1.299   5.349   3.804 -0.3043 -0.2526  0.5414
 1562TIP3    H226102   1.179   5.395   3.884 -0.4649  0.6796 -0.2259
 1563TIP3   OH226103   1.403   4.879   2.389 -0.6294 -0.7345  0.1354
 1563TIP3    H126104   1.317   4.860   2.426 -0.2500  0.9506  1.9562
 1563TIP3    H226105   1.435   4.953   2.440  3.2277 -3.2677  1.6057
 1564TIP3   OH226106   1.293   5.759   4.438  0.3615 -0.0198 -0.4920
 1564TIP3    H126107   1.226   5.813   4.396  0.3585  0.9093  0.6746
 1564TIP3    H226108   1.247   5.714   4.509  0.3611 -1.5961 -1.4711
 1565TIP3   OH226109   1.808   6.127   0.870  0.4391  0.1758 -0.2614
 1565TIP3    H126110   1.755   6.095   0.796 -1.8733 -0.8957  1.7805
 1565TIP3    H226111   1.755   6.196   0.908  1.5206  0.5667  0.5403
 1566TIP3   OH226112   4.172   6.052   4.489 -0.4956 -0.7501  0.4146
 1566TIP3    H126113   4.097   6.098   4.526 -0.7023 -1.4316  0.8354
 1566TIP3    H226114   4.217   6.015   4.564  0.2998 -0.2979  0.1694
 1567TIP3   OH226115   0.314   4.054   4.528  0.0528 -0.0720 -0.5863
 1567TIP3    H126116   0.286   3.963   4.528 -1.1180  0.2625  1.3065
 1567TIP3    H226117   0.272   4.092   4.450  0.5954 -1.1374 -1.4106
 1568TIP3   OH226118   0.753   1.267  16.298  0.4007 -0.3495  0.7388
 1568TIP3    H126119   0.800   1.331  16.244  3.4186 -1.0295  2.4276
 1568TIP3    H226120   0.693   1.224  16.237  0.7769  1.6976 -1.1657
 1569TIP3   OH226121   4.817   1.043   5.246 -0.0077  0.5198  0.2621
 1569TIP3    H126122   4.784   0.954   5.237  1.5708 -0.0575 -0.0315
 1569TIP3    H226123   4.874   1.040   5.323 -1.2869  1.6951  1.2808
 1570TIP3   OH226124   1.506   4.706   1.805 -0.0321 -0.2120 -0.2553
 1570TIP3    H126125   1.492   4.627   1.857  0.1136  0.6130  1.0795
 1570TIP3    H226126   1.575   4.683   1.743  2.2128 -0.2391  2.1709
 1571TIP3   OH226127   6.050   3.855  16.898 -0.2014  0.1850 -0.0834
 1571TIP3    H126128   6.103   3.819  16.828 -1.1859 -2.3810  0.4341
 1571TIP3    H226129   5.967   3.879  16.855 -0.4581 -0.5135  0.0098
 1572TIP3   OH226130   0.404   6.011   4.579  0.3799 -0.0304  0.7429
 1572TIP3    H126131   0.431   6.045   4.664  1.1646 -1.4218  1.0649
 1572TIP3    H226132   0.483   5.971   4.543 -0.3738 -1.0057  0.1487
 1573TIP3   OH226133   3.901   1.006   2.077  0.2170 -0.4913  0.4742
 1573TIP3    H126134   3.987   1.028   2.113 -0.7101  0.9524  1.9021
 1573TIP3    H226135   3.874   1.084   2.030 -1.2438 -0.1129  1.9028
 1574TIP3   OH226136   1.498   4.463   6.511  0.8329 -0.2809  0.6135
 1574TIP3    H126137   1.580   4.498   6.545  1.0087  0.1145 -0.1976
 1574TIP3    H226138   1.459   4.536   6.463  0.6744 -0.8684 -0.1585
 1575TIP3   OH226139   2.160   0.673   1.141 -0.8712 -0.1159  0.1501
 1575TIP3    H126140   2.162   0.649   1.233  0.2589 -0.8686 -0.0627
 1575TIP3    H226141   2.076   0.639   1.110 -0.8216 -0.7238  0.6738
 1576TIP3   OH226142   4.800   0.996  13.963 -0.1364  0.5745  0.3008
 1576TIP3    H126143   4.795   0.918  14.019  1.2470 -0.7871 -1.3991
 1576TIP3    H226144   4.871   0.977  13.902  0.4272  3.3240  0.0313
 1577TIP3   OH226145   3.681   0.653   1.642  0.5165  0.0081 -0.1956
 1577TIP3    H126146   3.745   0.703   1.693 -1.0318  2.2918 -0.4369
 1577TIP3    H226147   3.600   0.702   1.649 -0.7225 -1.7607 -1.5957
 1578TIP3   OH226148   1.078   0.461  14.790  0.1352  0.0146  0.1263
 1578TIP3    H126149   1.035   0.376  14.797  1.7518 -0.8222  0.1253
 1578TIP3    H226150   1.033   0.505  14.718  0.2991 -1.4602 -0.8976
 1579TIP3   OH226151   3.185   2.183   4.699  0.5318 -0.1708 -0.1665
 1579TIP3    H126152   3.241   2.106   4.700 -1.0835 -1.3762  1.8971
 1579TIP3    H226153   3.245   2.257   4.709  2.0903 -1.1102 -2.2156
 1580TIP3   OH226154   5.279   0.830   1.898 -0.7913 -0.3183  0.1182
 1580TIP3    H126155   5.245   0.741   1.886 -1.8424  0.3511 -2.0821
 1580TIP3    H226156   5.209   0.877   1.942 -0.9675 -0.0972 -0.3981
 1581TIP3   OH226157   5.460   3.662  13.347 -0.1945  0.5726  0.1320
 1581TIP3    H126158   5.477   3.746  13.390  0.4990  0.0887  0.8215
 1581TIP3    H226159   5.440   3.602  13.419  1.5186 -0.3819 -0.1477
 1582TIP3   OH226160   5.466   5.274  12.752 -0.0296 -0.3436 -0.0844
 1582TIP3    H126161   5.452   5.360  12.714 -0.5735 -0.2264  0.3744
 1582TIP3    H226162   5.433   5.213  12.687  0.2845 -0.2067 -0.3751
 1583TIP3   OH226163   0.221   1.803  12.401  0.2300 -0.0001 -0.2379
 1583TIP3    H126164   0.308   1.817  12.363  0.0979  0.0596 -0.5143
 1583TIP3    H226165   0.212   1.873  12.465  1.5310 -1.6119  1.7902
 1584TIP3   OH226166   6.453   0.554   2.359 -0.1351  0.0984  0.6582
 1584TIP3    H126167   6.502   0.564   2.441 -0.5152  1.7375  0.7124
 1584TIP3    H226168   6.507   0.596   2.293 -0.4403 -0.0525  0.3105
 1585TIP3   OH226169   5.550   2.872   3.304  0.1752  0.3859  0.1142
 1585TIP3    H126170   5.588   2.879   3.216 -1.1515 -0.4806 -0.5392
 1585TIP3    H226171   5.580   2.787   3.337 -1.6186 -0.5691 -0.6342
 1586TIP3   OH226172   4.741   4.322   0.336  0.1111 -0.0035  0.0756
 1586TIP3    H126173   4.777   4.357   0.254  0.0455  0.0235  0.0579
 1586TIP3    H226174   4.686   4.248   0.309 -1.8460  1.4856 -0.1428
 1587TIP3   OH226175   1.520   1.818  13.497 -0.6736  0.3471 -0.5142
 1587TIP3    H126176   1.478   1.735  13.472  0.4517 -0.8170  1.3043
 1587TIP3    H226177   1.520   1.870  13.417 -1.7585 -1.2610 -1.6027
 1588TIP3   OH226178   3.085   2.951  13.259 -0.0266 -0.1978 -0.5141
 1588TIP3    H126179   3.084   2.915  13.170 -1.7510  0.0708 -0.6260
 1588TIP3    H226180   3.176   2.945  13.287  0.0838 -2.6939 -1.3287
 1589TIP3   OH226181   6.785   4.797   2.833  0.7092 -0.5954 -0.3048
 1589TIP3    H126182   6.691   4.807   2.848  0.8085 -0.6492  0.3738
 1589TIP3    H226183   6.819   4.886   2.837  1.0987 -0.8138  2.3503
 1590TIP3   OH226184   5.752   0.744   5.423  0.3718  0.6071 -0.4449
 1590TIP3    H126185   5.733   0.838   5.419 -1.5046  0.1910 -2.1894
 1590TIP3    H226186   5.688   0.704   5.364  2.5801 -1.5515 -1.4778
 1591TIP3   OH226187   3.009   0.942  10.804 -0.2552 -0.3319 -0.3968
 1591TIP3    H126188   3.099   0.933  10.833 -0.3300  0.1508  0.0013
 1591TIP3    H226189   2.959   0.959  10.884 -0.7789 -1.1107 -0.5442
 1592TIP3   OH226190   0.219   2.811  14.083 -0.4402 -0.0760 -1.0725
 1592TIP3    H126191   0.178   2.832  14.167  2.5912  0.6444  0.2742
 1592TIP3    H226192   0.201   2.887  14.028 -1.2394  0.0447 -0.6635
 1593TIP3   OH226193   6.785   5.503   2.733  0.3336 -0.3011 -0.1582
 1593TIP3    H126194   6.846   5.537   2.797 -0.3876 -2.6059  1.8283
 1593TIP3    H226195   6.706   5.557   2.742  0.6158  0.0485  0.1675
 1594TIP3   OH226196   4.893   4.656  12.574  0.3034 -0.0272 -0.2962
 1594TIP3    H126197   4.874   4.744  12.607 -0.0770 -1.2204  2.8509
 1594TIP3    H226198   4.972   4.629  12.621  1.6240 -0.6385 -2.7439
 1595TIP3   OH226199   4.055   5.513  12.343 -0.2916  0.3147 -0.0817
 1595TIP3    H126200   3.962   5.522  12.322 -0.2819 -0.9706 -0.7449
 1595TIP3    H226201   4.101   5.549  12.267 -0.2522 -0.0974 -0.2547
 1596TIP3   OH226202   4.415   5.327  14.147  0.3696  0.1370  0.2655
 1596TIP3    H126203   4.404   5.398  14.085  0.6820 -0.2981 -0.2866
 1596TIP3    H226204   4.500   5.289  14.126  0.3593 -0.1824  0.7805
 1597TIP3   OH226205   4.715   2.803  12.012 -0.6632 -0.3424 -0.0124
 1597TIP3    H126206   4.721   2.873  11.947  0.6360  0.9302  1.4483
 1597TIP3    H226207   4.638   2.825  12.063  0.0965  0.3825  0.8384
 1598TIP3   OH226208   2.011   0.212   4.273 -0.1647 -0.0321 -0.1425
 1598TIP3    H126209   1.953   0.145   4.236 -0.2690 -0.8019  1.3675
 1598TIP3    H226210   2.097   0.169   4.277 -0.0723  0.1789  0.1351
 1599TIP3   OH226211   1.682   5.896   4.593 -0.0533 -0.3649 -0.5532
 1599TIP3    H126212   1.620   5.967   4.606  1.4637  0.6749  1.1721
 1599TIP3    H226213   1.688   5.853   4.678  0.7568 -1.1627 -1.0007
 1600TIP3   OH226214   1.851   5.005   1.651  0.7076 -0.2122  0.0750
 1600TIP3    H126215   1.830   4.937   1.716 -1.2449  0.0771 -0.2147
 1600TIP3    H226216   1.788   5.075   1.668  2.3182  1.2942 -0.0190
 1601TIP3   OH226217   4.260   4.003  12.574 -0.6516 -0.4305  0.0455
 1601TIP3    H126218   4.234   4.092  12.596  1.4954  0.4721 -0.8468
 1601TIP3    H226219   4.242   3.996  12.480  0.9014 -0.2828 -0.2754
 1602TIP3   OH226220   1.330   5.489   5.317  0.0778  0.2206  0.4640
 1602TIP3    H126221   1.323   5.549   5.391  0.6622 -1.8138  2.2026
 1602TIP3    H226222   1.390   5.421   5.346 -0.0241 -0.8530 -1.7291
 1603TIP3   OH226223   2.940   4.460   6.332 -0.1452  0.0034  0.6144
 1603TIP3    H126224   3.002   4.412   6.278  0.7648  0.5141  1.2029
 1603TIP3    H226225   2.858   4.457   6.282  0.3354 -0.6912 -0.1476
 1604TIP3   OH226226   4.727   4.440  11.062 -0.2465 -0.1385  0.6890
 1604TIP3    H126227   4.712   4.373  11.128 -4.0269  1.0129  1.1126
 1604TIP3    H226228   4.746   4.519  11.112  1.6664 -0.2871  0.2447
 1605TIP3   OH226229   1.292   1.231   2.465  0.1139 -0.3469 -0.1386
 1605TIP3    H126230   1.338   1.194   2.389  0.5668 -0.2703  0.0985
 1605TIP3    H226231   1.261   1.317   2.435  0.8272 -0.0547 -0.0412
 1606TIP3   OH226232   5.193   6.720   1.022 -0.2531 -0.1060  0.4093
 1606TIP3    H126233   5.287   6.722   1.038 -0.0753  0.7756 -0.6650
 1606TIP3    H226234   5.159   6.799   1.065  0.0646  1.6463 -2.4060
 1607TIP3   OH226235   2.165   3.080   4.885  0.1599 -0.4238  0.1272
 1607TIP3    H126236   2.248   3.034   4.872 -0.7701 -2.0104 -0.2708
 1607TIP3    H226237   2.175   3.124   4.970  0.6738 -2.2315  1.0260
 1608TIP3   OH226238   0.400   0.679  13.133  0.4152  0.1350 -0.5559
 1608TIP3    H126239   0.492   0.651  13.128 -0.2564 -2.1743 -0.5704
 1608TIP3    H226240   0.389   0.737  13.057  1.6985 -0.1197 -0.9496
 1609TIP3   OH226241   3.652   0.932  16.253  0.3337 -0.5647  0.1392
 1609TIP3    H126242   3.638   0.969  16.166  0.2924 -1.7928 -0.3957
 1609TIP3    H226243   3.714   0.991  16.295  0.4022  0.0026 -0.7513
 1610TIP3   OH226244   2.418   4.019  14.295 -0.3619 -0.1731 -0.2375
 1610TIP3    H126245   2.373   4.085  14.243 -1.0268 -0.6221 -0.2390
 1610TIP3    H226246   2.491   4.066  14.336 -1.1019  0.6654  0.1308
 1611TIP3   OH226247   6.436   0.615   0.664 -0.3577 -0.1874 -0.0788
 1611TIP3    H126248   6.409   0.623   0.572  0.4652  0.4720 -0.2757
 1611TIP3    H226249   6.485   0.533   0.667  0.5530  0.3346 -0.4770
 1612TIP3   OH226250   3.829   4.370  16.125 -0.0698 -0.0033 -0.3220
 1612TIP3    H126251   3.912   4.409  16.100 -0.2137 -0.3158 -1.3034
 1612TIP3    H226252   3.819   4.392  16.217  0.8523  0.4721 -0.3322
 1613TIP3   OH226253   2.891   1.388  12.500 -0.1203 -0.1767  0.1194
 1613TIP3    H126254   2.938   1.307  12.481 -2.2585 -1.1589 -1.2048
 1613TIP3    H226255   2.937   1.454  12.448 -0.0970 -1.0874 -1.0483
 1614TIP3   OH226256   6.215   2.756   1.123 -0.4490 -0.3243 -0.6414
 1614TIP3    H126257   6.220   2.790   1.034  0.0706 -0.6299 -0.7308
 1614TIP3    H226258   6.124   2.728   1.134 -1.5416  3.2369  0.2181
 1615TIP3   OH226259   5.424   6.150   1.465  0.0869  0.3073 -0.3614
 1615TIP3    H126260   5.439   6.158   1.371  1.0653 -2.0298 -0.4281
 1615TIP3    H226261   5.507   6.174   1.505 -0.3438  1.3472 -0.0785
 1616TIP3   OH226262   3.002   3.642   2.866 -0.7184  0.1087 -0.1668
 1616TIP3    H126263   3.080   3.631   2.921 -0.1491 -0.5298 -1.0905
 1616TIP3    H226264   2.986   3.555   2.829 -1.4242  0.4108 -0.5771
 1617TIP3   OH226265   0.393   0.902   2.359 -0.0607  0.2109 -0.4087
 1617TIP3    H126266   0.447   0.979   2.344 -2.7289  2.3430  0.4188
 1617TIP3    H226267   0.394   0.889   2.453  0.9905 -1.2660 -0.6095
 1618TIP3   OH226268   3.895   0.000  16.665 -0.1739 -0.1918  0.4382
 1618TIP3    H126269   3.916   0.051  16.743 -0.5159 -1.7365  1.5450
 1618TIP3    H226270   3.815   0.040  16.631  0.4865  1.0751  0.3267
 1619TIP3   OH226271   6.143   0.893   4.619 -0.1025 -0.2882 -0.0667
 1619TIP3    H126272   6.130   0.960   4.552 -0.8914  0.0018  0.3675
 1619TIP3    H226273   6.109   0.812   4.579  2.3040 -0.7941 -1.1984
 1620TIP3   OH226274   2.473   0.692   5.162  0.5281 -0.2841 -0.2416
 1620TIP3    H126275   2.414   0.708   5.089 -0.4867 -0.2331  0.5720
 1620TIP3    H226276   2.558   0.725   5.133  0.2800 -0.8375 -1.6194
 1621TIP3   OH226277   4.509   4.831  11.936  0.3451 -0.8178 -0.1310
 1621TIP3    H126278   4.452   4.827  12.013  2.0871 -0.6173  1.2131
 1621TIP3    H226279   4.463   4.779  11.870 -1.3750 -0.6735  0.9125
 1622TIP3   OH226280   3.469   6.639  15.094 -0.4239 -0.1854 -0.0251
 1622TIP3    H126281   3.441   6.730  15.090 -0.8482 -0.3737 -1.3967
 1622TIP3    H226282   3.441   6.601  15.011 -1.1233 -1.8106  0.9154
 1623TIP3   OH226283   5.341   3.492   1.406  0.0526 -0.4440  0.3291
 1623TIP3    H126284   5.281   3.419   1.386 -0.6108  0.0353  0.5694
 1623TIP3    H226285   5.311   3.525   1.490  0.5172 -0.0511  0.3401
 1624TIP3   OH226286   1.709   6.432   6.222 -0.1260  0.4541 -0.1933
 1624TIP3    H126287   1.668   6.381   6.292  1.4599 -0.0022  0.4292
 1624TIP3    H226288   1.722   6.519   6.260 -1.1047  0.7863 -0.6126
 1625TIP3   OH226289   4.130   4.524  13.223 -0.4053  0.5255 -0.1414
 1625TIP3    H126290   4.221   4.527  13.251 -0.6094  1.4413  0.4439
 1625TIP3    H226291   4.134   4.540  13.128  0.0525  0.3534 -0.1544
 1626TIP3   OH226292   0.567   1.608  12.655 -0.3555  0.3314 -0.6424
 1626TIP3    H126293   0.481   1.574  12.682  0.4428 -1.6220 -0.4868
 1626TIP3    H226294   0.577   1.689  12.704 -1.8391  0.2315 -0.1504
 1627TIP3   OH226295   2.179   6.061   3.186 -0.2990  0.2197 -0.2491
 1627TIP3    H126296   2.213   5.999   3.250  2.4654 -0.5274 -2.3802
 1627TIP3    H226297   2.227   6.142   3.203  0.2952  0.0797 -1.2113
 1628TIP3   OH226298   2.194   5.822  16.944  0.5107 -0.2855  0.3435
 1628TIP3    H126299   2.112   5.773  16.951  1.5626 -2.0200  0.8064
 1628TIP3    H226300   2.172   5.898  16.891 -1.8250  0.2135  1.9575
 1629TIP3   OH226301   1.484   4.844   6.591 -0.5663 -0.0078 -0.4768
 1629TIP3    H126302   1.452   4.828   6.680 -0.5130  0.2094 -0.4178
 1629TIP3    H226303   1.456   4.768   6.541 -1.2635  0.2308 -0.4519
 1630TIP3   OH226304   5.361   5.518   1.346 -0.1796 -0.3169  0.2633
 1630TIP3    H126305   5.338   5.605   1.313 -1.4399 -0.4663  0.7026
 1630TIP3    H226306   5.457   5.516   1.344 -0.1257  1.2177  0.5802
 1631TIP3   OH226307   3.578   2.237  16.109 -0.4244 -0.3228 -0.1285
 1631TIP3    H126308   3.530   2.155  16.097  0.4803 -0.9896  0.6726
 1631TIP3    H226309   3.559   2.288  16.031 -0.6718 -1.4739 -0.8330
 1632TIP3   OH226310   3.267   0.139  15.233  0.2498 -1.1446 -0.1533
 1632TIP3    H126311   3.296   0.183  15.153 -1.3620 -0.4303 -0.3715
 1632TIP3    H226312   3.185   0.183  15.255  1.1166 -0.7612  2.3719
 1633TIP3   OH226313   2.789   5.023  11.748 -0.1482 -0.2404 -0.3874
 1633TIP3    H126314   2.864   4.963  11.745 -1.1540 -1.4696 -3.0195
 1633TIP3    H226315   2.825   5.108  11.726  0.8943 -0.3218  0.9422
 1634TIP3   OH226316   4.734   2.695  10.456 -0.0116  0.2087  1.1001
 1634TIP3    H126317   4.784   2.769  10.491 -0.1670  1.1000 -0.5239
 1634TIP3    H226318   4.673   2.734  10.393  1.7900 -1.5548 -1.8584
 1635TIP3   OH226319   6.642   5.856  14.014  0.5441  0.1162 -0.0995
 1635TIP3    H126320   6.638   5.793  14.086  0.9146 -0.2890 -0.4254
 1635TIP3    H226321   6.554   5.854  13.976  0.1982  0.7281  0.6743
 1636TIP3   OH226322   6.049   5.541   1.037  0.3519 -0.1242  0.1390
 1636TIP3    H126323   6.007   5.626   1.052  0.2166 -0.1750  0.0509
 1636TIP3    H226324   6.112   5.532   1.108  0.1730 -0.0728  0.3040
 1637TIP3   OH226325   4.358   5.745   0.057  0.6777 -0.7391 -0.2489
 1637TIP3    H126326   4.442   5.771   0.021 -0.2589  1.8572 -0.7118
 1637TIP3    H226327   4.300   5.738  -0.020 -0.7848  2.6851  0.4420
 1638TIP3   OH226328   4.842   5.406   4.595 -0.8104 -0.1046  0.7159
 1638TIP3    H126329   4.833   5.327   4.648  0.2968 -2.4738 -2.5055
 1638TIP3    H226330   4.781   5.394   4.523  0.1414  1.4715 -0.3899
 1639TIP3   OH226331   0.938   0.523   1.158 -0.4085 -0.2695  0.0181
 1639TIP3    H126332   0.893   0.446   1.123 -0.2542 -0.3768  0.0568
 1639TIP3    H226333   0.930   0.513   1.253  0.7083 -0.8852  0.0485
 1640TIP3   OH226334   5.857   4.743  14.050 -0.4560  0.3218 -0.3544
 1640TIP3    H126335   5.835   4.692  14.127  1.0369  0.2866  0.0539
 1640TIP3    H226336   5.804   4.706  13.980 -0.6672 -0.6445  0.3195
 1641TIP3   OH226337   6.295   1.070  14.494 -0.3063  0.4598 -0.7223
 1641TIP3    H126338   6.303   1.010  14.569 -1.1301  0.2151 -0.8234
 1641TIP3    H226339   6.298   1.158  14.533 -0.6348  0.3328 -0.4069
 1642TIP3   OH226340   3.958   2.296   5.336 -0.3809 -0.0501  0.1375
 1642TIP3    H126341   4.004   2.270   5.415  1.9559  2.2431 -0.4177
 1642TIP3    H226342   3.958   2.391   5.338  0.6332  0.0751 -3.1097
 1643TIP3   OH226343   6.132   5.884  14.168  0.0591  0.0888 -0.1429
 1643TIP3    H126344   6.142   5.859  14.076 -0.2779 -0.9193  0.0969
 1643TIP3    H226345   6.203   5.948  14.182 -0.2638  0.7188 -1.2585
 1644TIP3   OH226346   5.262   2.688  10.764  0.0442  0.1087 -0.1899
 1644TIP3    H126347   5.287   2.774  10.799 -1.0751  0.7953 -1.0472
 1644TIP3    H226348   5.236   2.706  10.673 -2.1299 -0.8124  0.2281
 1645TIP3   OH226349   2.122   1.222   2.410  0.2096  0.0375  0.3743
 1645TIP3    H126350   2.128   1.317   2.395 -0.5340  0.0338  0.0101
 1645TIP3    H226351   2.028   1.205   2.418  0.2121 -0.9869 -1.6159
 1646TIP3   OH226352   0.026   0.743   2.446 -0.1602 -0.1676  0.1281
 1646TIP3    H126353  -0.060   0.780   2.465  0.0340 -0.3092  1.3313
 1646TIP3    H226354   0.075   0.755   2.527  1.1992  0.6070 -0.7870
 1647TIP3   OH226355   4.042   1.887   2.972  0.3652  0.2294  0.3604
 1647TIP3    H126356   4.124   1.933   2.989 -0.3666  1.3872  0.8602
 1647TIP3    H226357   4.048   1.806   3.023  1.4607  0.0077 -0.1222
 1648TIP3   OH226358   0.207   4.365   1.963 -0.2627 -0.1572  0.0028
 1648TIP3    H126359   0.193   4.420   1.886 -0.4270  0.3445  0.3902
 1648TIP3    H226360   0.151   4.403   2.030  1.8654  1.0174  1.1623
 1649TIP3   OH226361   0.289   4.139  11.596  0.2863  0.3224  0.1693
 1649TIP3    H126362   0.215   4.124  11.655  0.4679  1.0065  0.5734
 1649TIP3    H226363   0.288   4.064  11.537  0.1160 -0.3757  1.0599
 1650TIP3   OH226364   4.092   3.806  13.222  0.4244  0.1410  0.5878
 1650TIP3    H126365   4.089   3.716  13.190  0.3497  1.3439 -3.0521
 1650TIP3    H226366   4.013   3.815  13.275 -1.0259 -1.2004 -1.2598
 1651TIP3   OH226367   0.821   6.625  17.182  1.4712 -0.5815  0.3971
 1651TIP3    H126368   0.912   6.650  17.164  1.4398 -2.1729 -2.1964
 1651TIP3    H226369   0.826   6.566  17.257  2.6772 -1.1716 -0.1331
 1652TIP3   OH226370   1.185   3.319  13.883  0.3865 -0.2171 -0.0526
 1652TIP3    H126371   1.215   3.350  13.969 -0.2509  0.9719 -0.2489
 1652TIP3    H226372   1.168   3.399  13.833  1.2882 -0.8968 -1.4891
 1653TIP3   OH226373   3.295   3.726  15.178 -0.3662 -1.0556 -0.0327
 1653TIP3    H126374   3.201   3.735  15.160 -0.4047 -0.1500  0.5830
 1653TIP3    H226375   3.321   3.812  15.211  0.2611 -1.8866  1.7153
 1654TIP3   OH226376   0.491   2.972  13.912  0.0646 -0.6132  0.0518
 1654TIP3    H126377   0.569   2.993  13.862 -1.1579 -0.5264 -1.8806
 1654TIP3    H226378   0.454   2.896  13.868 -1.6603  0.1731  0.0887
 1655TIP3   OH226379   2.239   2.885  13.308 -0.2830 -0.4897  0.3948
 1655TIP3    H126380   2.290   2.803  13.308  0.9924  0.2851  0.4529
 1655TIP3    H226381   2.244   2.915  13.399 -2.6059 -1.4605  0.8708
 1656TIP3   OH226382   6.592   1.908  15.401  0.2368  0.9062 -0.1177
 1656TIP3    H126383   6.553   1.865  15.478 -0.1020  0.2580 -0.6367
 1656TIP3    H226384   6.519   1.956  15.362 -0.2062 -0.7079 -1.3674
 1657TIP3   OH226385   4.052   2.410  11.174  0.2422  0.4191  0.4907
 1657TIP3    H126386   4.049   2.411  11.079  0.1700 -2.5317  0.4082
 1657TIP3    H226387   4.040   2.501  11.200 -1.3449  1.0410 -2.2617
 1658TIP3   OH226388   2.565   3.362   1.003 -0.5578  0.3431 -0.1339
 1658TIP3    H126389   2.605   3.328   0.923 -0.9489  0.0121 -0.1898
 1658TIP3    H226390   2.508   3.291   1.033  0.1863  0.1533  0.8677
 1659TIP3   OH226391   2.019   1.877   1.505 -0.8174  0.1286  0.3885
 1659TIP3    H126392   2.056   1.832   1.581 -0.5998  0.4266  0.4593
 1659TIP3    H226393   2.052   1.967   1.512 -0.3983  0.0286 -0.3292
 1660TIP3   OH226394   1.907   3.664   2.448  0.2014 -0.5640  0.1233
 1660TIP3    H126395   1.823   3.619   2.438 -0.1623 -0.0304  0.6693
 1660TIP3    H226396   1.948   3.660   2.362 -1.2869  0.9355 -0.6936
 1661TIP3   OH226397   2.822   5.016   1.858  0.1563 -0.1911 -0.0121
 1661TIP3    H126398   2.814   4.975   1.772 -0.0904 -0.2639  0.0469
 1661TIP3    H226399   2.751   4.978   1.910  0.2593 -0.0914  0.2013
 1662TIP3   OH226400   5.840   2.769  11.682 -0.3246  0.3577  0.3858
 1662TIP3    H126401   5.779   2.806  11.746 -1.5428  0.9456 -1.0593
 1662TIP3    H226402   5.803   2.684  11.660  0.3233 -0.0266  0.7673
 1663TIP3   OH226403   1.082   0.877   2.654 -0.2618 -0.5377 -0.1099
 1663TIP3    H126404   1.019   0.806   2.647  0.9872 -1.5617 -1.2015
 1663TIP3    H226405   1.164   0.840   2.622  0.2088  1.6403 -1.5333
 1664TIP3   OH226406   3.033   5.423  15.535 -0.0531  0.0697  0.2182
 1664TIP3    H126407   3.042   5.518  15.529  3.2978 -0.1493  0.4809
 1664TIP3    H226408   3.085   5.389  15.463  0.7734 -1.5804  1.5369
 1665TIP3   OH226409   4.956   4.904  15.416  0.0489  0.3571 -0.2156
 1665TIP3    H126410   4.883   4.875  15.361  0.7052 -2.1582  0.1762
 1665TIP3    H226411   5.031   4.909  15.356 -0.0420  1.1750 -0.2620
 1666TIP3   OH226412   1.453   0.786   3.283  0.4323 -0.2505  0.0601
 1666TIP3    H126413   1.521   0.775   3.349  0.0032  0.1291  0.5677
 1666TIP3    H226414   1.379   0.734   3.315 -0.3793  1.2854  0.7337
 1667TIP3   OH226415   4.485   5.533   0.778 -0.4351  0.7258 -0.1280
 1667TIP3    H126416   4.444   5.469   0.836 -2.7814  1.3890 -1.0066
 1667TIP3    H226417   4.414   5.592   0.753  1.3773  2.8178 -0.5002
 1668TIP3   OH226418   3.990   5.654   5.965  0.2381 -0.1381  0.2817
 1668TIP3    H126419   4.077   5.629   5.935  0.4891 -0.4215  1.2411
 1668TIP3    H226420   3.933   5.637   5.890  1.2105  1.3669 -0.8450
 1669TIP3   OH226421   3.485   3.630  15.977  0.1821  0.7389  0.1420
 1669TIP3    H126422   3.421   3.696  15.951 -0.9232  0.0654  1.1290
 1669TIP3    H226423   3.535   3.671  16.048 -0.9473  0.2710  1.2096
 1670TIP3   OH226424   1.883   4.843  15.303  0.3285 -0.2010  0.0810
 1670TIP3    H126425   1.957   4.828  15.362 -0.3261 -0.3591  0.8662
 1670TIP3    H226426   1.831   4.910  15.346 -0.1606 -0.3158 -0.3225
 1671TIP3   OH226427   5.992   2.126  13.870  0.7699  0.2074  0.1928
 1671TIP3    H126428   5.958   2.179  13.941 -0.9424  1.1905 -1.3139
 1671TIP3    H226429   6.002   2.039  13.907 -0.9746  0.4966  1.3884
 1672TIP3   OH226430   1.419   4.171  12.438  0.8223 -0.0050 -0.3524
 1672TIP3    H126431   1.359   4.236  12.403  1.2648 -0.5298 -2.1418
 1672TIP3    H226432   1.362   4.097  12.463  0.6487 -0.3156 -1.6041
 1673TIP3   OH226433   4.359   1.664  14.087  0.4195  0.6467 -0.1062
 1673TIP3    H126434   4.423   1.643  14.155 -0.7363  1.7062  1.3244
 1673TIP3    H226435   4.306   1.734  14.124  0.4009  1.9357 -2.5011
 1674TIP3   OH226436   6.264   0.059   0.676 -0.1724  0.1273 -0.2245
 1674TIP3    H126437   6.203   0.009   0.730 -0.4183  0.6750 -0.0028
 1674TIP3    H226438   6.216   0.138   0.652  0.2919  0.3505 -0.4188
 1675TIP3   OH226439   4.781   6.656  13.849 -0.0361 -0.6987  0.7898
 1675TIP3    H126440   4.826   6.730  13.890  0.2896 -0.5139  0.1018
 1675TIP3    H226441   4.694   6.655  13.890 -1.6981  2.8043 -2.3060
 1676TIP3   OH226442   0.753   6.265  16.016 -0.3492 -0.3201 -0.1961
 1676TIP3    H126443   0.684   6.259  16.082 -0.1468  1.0469  0.1546
 1676TIP3    H226444   0.806   6.186  16.030 -1.5115 -1.0969 -0.1141
 1677TIP3   OH226445   1.275   5.887   1.639 -0.5484  0.4499  0.6335
 1677TIP3    H126446   1.223   5.819   1.682  0.3573 -0.4209  0.3733
 1677TIP3    H226447   1.313   5.844   1.563  0.2542  1.1739  0.6138
 1678TIP3   OH226448   0.010   2.653  13.496 -0.2524 -0.0346 -0.1739
 1678TIP3    H126449  -0.067   2.604  13.523  0.9882 -1.4548  0.8596
 1678TIP3    H226450   0.069   2.648  13.571  2.5820 -2.5706 -2.4241
 1679TIP3   OH226451   5.305   5.082   5.951 -0.7892  0.4746  0.2875
 1679TIP3    H126452   5.213   5.101   5.931 -0.3782  0.7479 -1.4736
 1679TIP3    H226453   5.318   5.117   6.039 -1.8233  2.3887 -0.2698
 1680TIP3   OH226454   1.130   3.018   3.142  0.3423  0.4156 -0.4924
 1680TIP3    H126455   1.099   3.108   3.149 -2.3830 -0.5308  0.2608
 1680TIP3    H226456   1.053   2.967   3.116  1.7212 -1.7636 -0.4961
 1681TIP3   OH226457   2.380   4.877   0.138 -0.8614  0.3870 -1.0534
 1681TIP3    H126458   2.367   4.874   0.233  0.8470  0.0782 -0.8125
 1681TIP3    H226459   2.308   4.932   0.106 -1.0484  1.0849  0.4896
 1682TIP3   OH226460   1.800   3.191   3.844 -0.2139 -0.7402  0.3389
 1682TIP3    H126461   1.813   3.096   3.841  1.3949 -0.5725  1.7001
 1682TIP3    H226462   1.778   3.210   3.935  1.9555  0.4964  0.6253
 1683TIP3   OH226463   0.286   0.544   5.889  0.3697  0.1814  0.4562
 1683TIP3    H126464   0.362   0.507   5.934  0.6138  0.0359 -0.0723
 1683TIP3    H226465   0.214   0.533   5.951  0.7127  0.0272  0.8294
 1684TIP3   OH226466   3.862   0.863  14.389  0.1800 -0.5487 -0.3582
 1684TIP3    H126467   3.917   0.941  14.398 -1.0988  0.2985  0.1500
 1684TIP3    H226468   3.796   0.888  14.324  0.5154 -1.6359 -1.1250
 1685TIP3   OH226469   5.533   1.251  14.072  0.2523  0.1878 -0.5676
 1685TIP3    H126470   5.559   1.207  14.152 -0.1585  1.4248  0.2599
 1685TIP3    H226471   5.536   1.345  14.093 -0.8166  0.4932 -1.6812
 1686TIP3   OH226472   3.293   0.591  14.868 -0.4557  0.1348 -0.3779
 1686TIP3    H126473   3.275   0.583  14.774 -0.5803 -0.1215 -0.3320
 1686TIP3    H226474   3.371   0.646  14.873 -1.1941  1.2265 -0.5780
 1687TIP3   OH226475   4.575   4.091   0.393  0.1470 -0.4309  0.4414
 1687TIP3    H126476   4.488   4.127   0.411 -0.4677 -0.2885 -2.5266
 1687TIP3    H226477   4.603   4.053   0.476 -2.3724  0.2978  1.6815
 1688TIP3   OH226478   5.479   3.514   4.912  0.2084  0.1266 -0.1867
 1688TIP3    H126479   5.508   3.600   4.942  0.3020  0.4972 -1.3225
 1688TIP3    H226480   5.558   3.459   4.914 -0.0673 -0.2320  1.5569
 1689TIP3   OH226481   3.778   2.731   2.764  0.8305 -0.3328  0.7269
 1689TIP3    H126482   3.713   2.662   2.778  0.9237 -0.3989  0.8395
 1689TIP3    H226483   3.787   2.738   2.669  2.3102 -1.8749  0.7381
 1690TIP3   OH226484   3.553   1.702   0.261 -0.0280  0.4762 -0.1815
 1690TIP3    H126485   3.501   1.707   0.181  0.1011  1.0305 -0.2283
 1690TIP3    H226486   3.504   1.642   0.317 -0.3753  0.4764 -0.4820
 1691TIP3   OH226487   5.192   4.808   3.135  0.0810  0.0709 -0.2298
 1691TIP3    H126488   5.123   4.874   3.146 -1.9484 -1.7208 -1.6712
 1691TIP3    H226489   5.154   4.727   3.170  1.6824 -0.8215 -0.4869
 1692TIP3   OH226490   0.788   1.235   1.407  0.1319 -0.2450 -0.0895
 1692TIP3    H126491   0.790   1.167   1.473  0.3407  1.0149  1.2140
 1692TIP3    H226492   0.879   1.262   1.397 -0.0766  0.5747  0.1761
 1693TIP3   OH226493   5.202   6.286  16.127 -0.4328 -0.0542  0.6827
 1693TIP3    H126494   5.172   6.376  16.113 -0.9221  0.1297  2.7668
 1693TIP3    H226495   5.130   6.244  16.176 -0.8371 -1.9902 -1.4718
 1694TIP3   OH226496   2.615   3.375   2.049 -0.7663  0.6556  0.1515
 1694TIP3    H126497   2.707   3.380   2.023 -1.0801  0.4032 -1.0422
 1694TIP3    H226498   2.611   3.299   2.108 -0.2485  0.5401  0.0399
 1695TIP3   OH226499   3.642   1.201  15.481  0.0677 -0.4944  0.4471
 1695TIP3    H126500   3.557   1.245  15.473  0.8048  1.0883  1.0636
 1695TIP3    H226501   3.676   1.199  15.392  0.4538  1.0872  0.5497
 1696TIP3   OH226502   2.955   5.214  16.917  0.3978  0.0451  0.3762
 1696TIP3    H126503   2.949   5.139  16.975  2.0067 -1.4390 -1.3019
 1696TIP3    H226504   2.912   5.186  16.836 -0.5182  1.5534  0.3155
 1697TIP3   OH226505   5.470   6.714  12.349 -0.7587  0.2543  0.1598
 1697TIP3    H126506   5.490   6.648  12.282 -0.3737  0.4147  0.1145
 1697TIP3    H226507   5.409   6.774  12.306 -3.0179 -1.3950  0.9619
 1698TIP3   OH226508   1.961   6.087  11.692  0.0333 -0.1279 -0.2242
 1698TIP3    H126509   1.977   6.180  11.675  0.4002 -0.1609 -0.0691
 1698TIP3    H226510   1.906   6.086  11.771  0.8588 -0.0675  0.3633
 1699TIP3   OH226511   5.711   2.853   3.070 -0.6441  0.2961  0.6324
 1699TIP3    H126512   5.703   2.866   2.975  0.2680  0.5201  0.5879
 1699TIP3    H226513   5.728   2.759   3.079 -4.6964 -0.5296  0.8173
 1700TIP3   OH226514   2.331   4.721   1.568 -0.4815  0.0991  0.4056
 1700TIP3    H126515   2.366   4.743   1.654  0.6119 -1.5146  0.4001
 1700TIP3    H226516   2.236   4.722   1.579 -0.3646  1.0933  1.3245
 1701TIP3   OH226517   3.696   2.284   1.459 -0.2546 -0.4025  0.5992
 1701TIP3    H126518   3.769   2.236   1.420 -0.0275  0.1059  0.4054
 1701TIP3    H226519   3.640   2.215   1.495  0.3237 -0.7927  0.7613
 1702TIP3   OH226520   1.357   3.940  13.399 -0.0860 -0.6884 -0.1333
 1702TIP3    H126521   1.382   3.860  13.446 -2.7441 -0.6815  1.3672
 1702TIP3    H226522   1.316   3.995  13.465 -2.0303  0.1883 -2.0410
 1703TIP3   OH226523   3.169   0.473   2.358  0.0287  0.4132 -0.0996
 1703TIP3    H126524   3.197   0.401   2.414 -0.1918  0.2809 -0.1614
 1703TIP3    H226525   3.164   0.548   2.417 -1.1699  0.0584  0.2635
 1704TIP3   OH226526   0.345   4.137  16.472 -0.0754 -0.0168  0.3620
 1704TIP3    H126527   0.424   4.176  16.509 -0.5619  0.3552  1.0238
 1704TIP3    H226528   0.322   4.192  16.398  1.1478 -1.0089 -0.7701
 1705TIP3   OH226529   1.058   4.845   3.109 -0.4089 -0.1387  0.0240
 1705TIP3    H126530   1.100   4.899   3.176  0.4077 -2.6358  1.6132
 1705TIP3    H226531   1.124   4.835   3.040  0.2912 -0.9808  0.7980
 1706TIP3   OH226532   4.052   6.015   0.751  0.6586  0.0051  0.4203
 1706TIP3    H126533   4.054   6.106   0.779 -0.8204  0.1647  0.0602
 1706TIP3    H226534   3.969   5.982   0.785 -0.1503 -0.3997 -1.8955
 1707TIP3   OH226535   5.922   2.679  12.985 -0.4890 -0.4516  0.8702
 1707TIP3    H126536   5.840   2.632  13.000 -0.8477 -0.2421 -0.3987
 1707TIP3    H226537   5.933   2.679  12.890  0.6873  0.0330  0.9947
 1708TIP3   OH226538   4.613   2.880   5.113 -1.2758  0.4703  0.6482
 1708TIP3    H126539   4.584   2.900   5.202 -2.5996  0.0080  0.3212
 1708TIP3    H226540   4.536   2.894   5.058 -0.9224 -0.8715 -0.2140
 1709TIP3   OH226541   3.253   1.230  16.071  0.2023  0.7443  0.1502
 1709TIP3    H126542   3.262   1.172  16.147  3.2564  0.4648 -0.3767
 1709TIP3    H226543   3.167   1.270  16.082  0.1260 -0.1181  3.1895
 1710TIP3   OH226544   4.340   5.460   6.120 -0.4622 -0.4221  0.3381
 1710TIP3    H126545   4.250   5.464   6.089 -1.0425 -0.5052  1.9419
 1710TIP3    H226546   4.386   5.407   6.055 -1.5849 -0.4173 -0.4674
 1711TIP3   OH226547   6.239   0.335  12.785  0.5413 -0.7244 -0.0518
 1711TIP3    H126548   6.165   0.330  12.725  0.8628  1.1176 -0.6375
 1711TIP3    H226549   6.202   0.315  12.871 -1.0488  1.9680 -0.0520
 1712TIP3   OH226550   0.726   5.997   0.596  0.2166 -0.0018 -0.0661
 1712TIP3    H126551   0.771   6.073   0.634  1.3014 -0.3667 -0.6027
 1712TIP3    H226552   0.691   5.950   0.671  0.3945  0.5057  0.3377
 1713TIP3   OH226553   5.466   1.399   5.565  0.0214  0.0654  0.3741
 1713TIP3    H126554   5.510   1.484   5.576 -1.3752  0.7833  0.5522
 1713TIP3    H226555   5.507   1.343   5.631  1.5741  0.3403 -0.3325
 1714TIP3   OH226556   5.582   1.624  16.502  0.2955 -0.1364  0.1353
 1714TIP3    H126557   5.514   1.635  16.569  0.2951 -0.5137  0.1954
 1714TIP3    H226558   5.631   1.707  16.505 -0.4709  0.3363 -0.2592
 1715TIP3   OH226559   0.485   0.422  14.190 -0.8534 -0.3121 -0.6244
 1715TIP3    H126560   0.542   0.345  14.193  0.5375  0.7152  0.0970
 1715TIP3    H226561   0.405   0.394  14.234 -0.2871 -1.2881 -0.1857
 1716TIP3   OH226562   3.011   4.687   0.663  0.1158 -0.4182 -0.4350
 1716TIP3    H126563   3.041   4.643   0.583  1.5676 -0.6477  0.2071
 1716TIP3    H226564   2.988   4.616   0.722 -1.8834 -0.2426 -0.9562
 1717TIP3   OH226565   2.630   6.399   1.895 -0.6915 -0.2489  0.2349
 1717TIP3    H126566   2.605   6.463   1.961  1.0138 -0.9137  1.5766
 1717TIP3    H226567   2.626   6.315   1.941 -0.7493 -0.8644 -0.8781
 1718TIP3   OH226568   3.694   4.026   6.259 -0.2944  0.5019 -0.2454
 1718TIP3    H126569   3.666   3.953   6.203  0.3271 -0.2016  0.3485
 1718TIP3    H226570   3.651   4.010   6.343 -1.0375  1.4285 -0.4487
 1719TIP3   OH226571   0.570   5.567  14.820  0.0147  0.3095 -0.3678
 1719TIP3    H126572   0.618   5.491  14.787 -0.0235 -0.7357  1.8944
 1719TIP3    H226573   0.614   5.588  14.903 -1.3368  1.4325  0.0710
 1720TIP3   OH226574   1.228   0.618  12.327 -0.0494 -0.0886 -0.2713
 1720TIP3    H126575   1.198   0.534  12.292  1.7440 -0.7995 -0.1671
 1720TIP3    H226576   1.257   0.667  12.251  2.6828 -1.1549  0.0126
 1721TIP3   OH226577   0.825   2.061  13.343 -0.3353 -0.1264 -0.2057
 1721TIP3    H126578   0.889   2.069  13.272 -0.1756  1.8368  0.1231
 1721TIP3    H226579   0.811   2.151  13.372 -1.6634 -0.7533  1.1385
 1722TIP3   OH226580   4.911   6.417  11.771 -0.0544 -0.7107  0.2760
 1722TIP3    H126581   4.879   6.504  11.750 -0.1283 -0.9870 -0.7542
 1722TIP3    H226582   4.833   6.364  11.785 -0.0590 -1.1218 -1.1903
 1723TIP3   OH226583   2.910   3.842  14.448 -0.1007  0.4018 -0.3218
 1723TIP3    H126584   2.925   3.904  14.519  2.1202  1.1580 -1.4186
 1723TIP3    H226585   2.997   3.811  14.424 -1.0497 -2.0754 -0.7790
 1724TIP3   OH226586   5.243   3.496  15.828  0.5726 -0.1021  0.4751
 1724TIP3    H126587   5.230   3.465  15.738  2.4151 -0.6121  0.3494
 1724TIP3    H226588   5.197   3.433  15.882  0.0396 -0.1881 -0.0734
 1725TIP3   OH226589   1.242   0.450   2.521 -0.0252 -0.2929 -0.1547
 1725TIP3    H126590   1.170   0.387   2.515 -0.6102 -0.1000  3.5312
 1725TIP3    H226591   1.210   0.528   2.476 -2.6030  0.1523  2.3058
 1726TIP3   OH226592   3.421   5.511   5.699  0.1577 -0.1616 -0.2192
 1726TIP3    H126593   3.466   5.547   5.776 -1.4468 -0.2494  0.7947
 1726TIP3    H226594   3.336   5.481   5.733 -0.7648  0.2104 -2.1108
 1727TIP3   OH226595   5.040   0.983  15.131 -0.0180  0.1693  0.2001
 1727TIP3    H126596   5.047   0.940  15.216  1.7509 -0.7102 -0.3614
 1727TIP3    H226597   5.052   1.076  15.149 -0.0929  0.0280  0.9760
 1728TIP3   OH226598   4.142   4.168  15.686  0.7864 -0.4136  0.2457
 1728TIP3    H126599   4.050   4.167  15.712  0.8841  0.3923  0.6396
 1728TIP3    H226600   4.167   4.076  15.684 -0.2639 -0.6929 -0.7247
 1729TIP3   OH226601   0.156   6.748   3.825 -0.3845 -0.2717 -0.3465
 1729TIP3    H126602   0.099   6.736   3.901 -1.2151 -0.7085 -1.0268
 1729TIP3    H226603   0.108   6.809   3.768 -0.1703 -0.6408 -0.9257
 1730TIP3   OH226604   3.713   0.008  17.076 -0.1193  0.4230  0.1036
 1730TIP3    H126605   3.714  -0.086  17.093  1.5104  0.2760 -0.6774
 1730TIP3    H226606   3.655   0.044  17.143 -1.9378 -1.2904 -0.4651
 1731TIP3   OH226607   5.863   5.014  14.088  0.2446  0.0878  0.0723
 1731TIP3    H126608   5.845   4.920  14.095 -3.3984  0.6828 -0.1242
 1731TIP3    H226609   5.866   5.031  13.994 -0.4537  0.3794  0.0990
 1732TIP3   OH226610   1.622   4.639  11.456 -0.1051 -0.8548  0.0352
 1732TIP3    H126611   1.698   4.581  11.449 -0.6675 -1.4072 -1.5785
 1732TIP3    H226612   1.578   4.611  11.536  1.5576 -0.2958  1.1921
 1733TIP3   OH226613   0.505   4.424   3.560 -0.4881  0.4690 -0.7611
 1733TIP3    H126614   0.476   4.455   3.645 -0.2093  1.0993 -0.8954
 1733TIP3    H226615   0.428   4.435   3.503 -0.3408  1.0829 -0.8485
 1734TIP3   OH226616   3.646   5.579  11.730  0.1444 -0.1531  0.8545
 1734TIP3    H126617   3.655   5.603  11.638  0.8974  1.4110  1.3188
 1734TIP3    H226618   3.735   5.568  11.761 -0.1448 -1.8685  1.1019
 1735TIP3   OH226619   3.663   4.410  12.676  0.0783  0.0807  0.3565
 1735TIP3    H126620   3.639   4.394  12.768  1.2882  0.3117  0.7183
 1735TIP3    H226621   3.705   4.496  12.677  2.3304 -0.9752 -0.0021
 1736TIP3   OH226622   6.372   2.336   0.896 -0.5942 -0.0541  0.0118
 1736TIP3    H126623   6.370   2.376   0.983 -1.1103 -1.1641  0.5334
 1736TIP3    H226624   6.327   2.252   0.908 -0.8586 -0.1276 -1.3759
 1737TIP3   OH226625   2.042   2.385  13.894 -0.4082  0.6880  0.5402
 1737TIP3    H126626   1.957   2.387  13.939 -0.4559 -0.8688  0.5349
 1737TIP3    H226627   2.043   2.466  13.842 -1.3430  1.3527  1.5221
 1738TIP3   OH226628   3.652   4.501  11.421  0.5567  0.0143  0.2630
 1738TIP3    H126629   3.605   4.510  11.338  1.8007  1.1118 -0.3374
 1738TIP3    H226630   3.744   4.503  11.396  0.9413 -1.0174  1.5405
 1739TIP3   OH226631   5.062   2.489   5.689  0.3713  0.0138  0.2347
 1739TIP3    H126632   4.991   2.542   5.724 -1.5792 -1.6972 -1.0018
 1739TIP3    H226633   5.139   2.547   5.690 -0.9754  1.8331  1.7546
 1740TIP3   OH226634   5.473   0.479   4.600 -0.4776 -0.1449 -0.4394
 1740TIP3    H126635   5.461   0.571   4.576 -1.3230 -0.5754 -1.7204
 1740TIP3    H226636   5.472   0.432   4.516  0.3439 -1.2812  0.1772
 1741TIP3   OH226637   0.081   6.578  17.232  0.2552  0.9015  0.2460
 1741TIP3    H126638   0.021   6.631  17.180  0.4661 -0.2487 -1.2103
 1741TIP3    H226639   0.059   6.487  17.208 -0.5682  0.2803  3.1845
 1742TIP3   OH226640   4.052   0.275   2.807  0.2815 -0.3780 -0.3554
 1742TIP3    H126641   4.120   0.221   2.767  1.6709 -1.1762  2.9411
 1742TIP3    H226642   4.100   0.336   2.862 -1.6915 -1.6984  2.9525
 1743TIP3   OH226643   2.039   2.875  11.026  0.1219 -0.2080 -0.3001
 1743TIP3    H126644   2.026   2.781  11.013  0.8323 -0.3243 -0.1502
 1743TIP3    H226645   1.955   2.914  11.002 -0.5943 -0.9965  0.8767
 1744TIP3   OH226646   5.346   0.939  13.491  0.0972  0.6048 -0.4293
 1744TIP3    H126647   5.258   0.916  13.461  0.2903  1.3496 -1.6012
 1744TIP3    H226648   5.332   0.993  13.568 -0.4441 -0.1905  0.0341
 1745TIP3   OH226649   5.764   1.190   4.138 -0.4715  0.0666  0.3138
 1745TIP3    H126650   5.842   1.191   4.084  0.1825  0.1708  1.2535
 1745TIP3    H226651   5.703   1.133   4.091  0.7357 -1.2815  0.3626
 1746TIP3   OH226652   0.010   0.436   1.287  0.0502 -0.1380  0.2244
 1746TIP3    H126653   0.075   0.429   1.217  0.2916 -1.8584  0.5826
 1746TIP3    H226654   0.061   0.460   1.365  0.0235  0.1746  0.1423
 1747TIP3   OH226655   1.050   2.743  14.086  0.3181  0.0962  0.6628
 1747TIP3    H126656   1.061   2.773  13.996 -1.7936  2.5285  1.1701
 1747TIP3    H226657   0.997   2.663  14.079  1.0554 -0.3243 -0.2887
 1748TIP3   OH226658   4.699   1.972  15.404  0.2351  0.4554  0.2763
 1748TIP3    H126659   4.795   1.970  15.409  0.2557 -0.4587 -0.4580
 1748TIP3    H226660   4.676   2.061  15.433  1.3443  0.9502 -0.3141
 1749TIP3   OH226661   2.349   1.224   1.895 -0.0452  0.2020 -0.1587
 1749TIP3    H126662   2.260   1.235   1.861 -0.3382  0.0985  0.5754
 1749TIP3    H226663   2.338   1.182   1.980  0.8215 -1.8943 -1.0490
 1750TIP3   OH226664   4.761   0.504  14.054 -0.5154  0.4023 -0.3272
 1750TIP3    H126665   4.684   0.447  14.044  0.9957 -1.4576 -1.8561
 1750TIP3    H226666   4.749   0.572  13.988 -1.1519  0.4377 -0.1723
 1751TIP3   OH226667   2.070   1.163  16.249  0.0491 -0.3023  0.3010
 1751TIP3    H126668   2.080   1.069  16.262 -0.1681 -0.1313  1.8436
 1751TIP3    H226669   2.159   1.196  16.237  0.3038 -0.4655  1.6258
 1752TIP3   OH226670   0.159   1.687   1.750 -0.9235  0.0960 -0.4995
 1752TIP3    H126671   0.181   1.778   1.772  0.6765 -0.3476 -0.1487
 1752TIP3    H226672   0.101   1.694   1.674 -2.5226  1.4650  0.8104
 1753TIP3   OH226673   6.393   0.930   0.643 -0.3616  0.1226 -0.6723
 1753TIP3    H126674   6.477   0.970   0.619 -1.2718  1.3288 -1.9223
 1753TIP3    H226675   6.371   0.874   0.569 -0.1428 -1.0766  0.1444
 1754TIP3   OH226676   1.454   2.188  12.094 -0.1858 -0.4248  0.2595
 1754TIP3    H126677   1.385   2.240  12.134  0.4964  0.7756 -0.0921
 1754TIP3    H226678   1.487   2.133  12.165 -0.1450  0.4413  0.9149
 1755TIP3   OH226679   6.638   5.646  17.134  0.2274  0.4741 -0.3767
 1755TIP3    H126680   6.574   5.594  17.086  0.5369  2.0840 -2.5835
 1755TIP3    H226681   6.722   5.624  17.094  1.0004 -0.9046  1.8750
 1756TIP3   OH226682   5.757   0.760   5.102 -0.1148  0.3179  0.2053
 1756TIP3    H126683   5.708   0.773   5.020 -1.7185 -1.0330  0.9199
 1756TIP3    H226684   5.696   0.713   5.159  1.6727 -0.4830  1.4918
 1757TIP3   OH226685   2.249   2.890  16.624  0.0926 -0.1715 -0.1671
 1757TIP3    H126686   2.310   2.820  16.600  1.4755  0.3776  1.6337
 1757TIP3    H226687   2.252   2.893  16.720  0.0109  2.2995 -0.2103
 1758TIP3   OH226688   2.720   5.105  11.330 -0.0795  0.1101  0.1040
 1758TIP3    H126689   2.666   5.140  11.401 -1.4152  2.0343 -1.7980
 1758TIP3    H226690   2.664   5.041  11.286  0.9595 -1.5355  1.0989
 1759TIP3   OH226691   5.699   1.449  16.007 -0.4592 -0.0926 -0.9949
 1759TIP3    H126692   5.785   1.467  16.046 -1.3631  1.9379  0.1520
 1759TIP3    H226693   5.719   1.406  15.924  1.6336 -0.4795 -0.3250
 1760TIP3   OH226694   3.603   1.970  15.975  0.1804  0.2648 -0.4410
 1760TIP3    H126695   3.541   1.930  16.036  1.0024 -2.1202 -1.1075
 1760TIP3    H226696   3.548   2.018  15.914 -1.0124 -1.3613 -0.6909
 1761TIP3   OH226697   6.522   6.296   1.238 -0.5569  0.8796 -0.1742
 1761TIP3    H126698   6.431   6.273   1.256 -0.6915  0.1733 -1.6933
 1761TIP3    H226699   6.526   6.391   1.252 -0.6102  0.3860  3.6010
 1762TIP3   OH226700   1.484   0.147   4.954 -0.0284 -0.4818  0.0287
 1762TIP3    H126701   1.440   0.173   5.035  0.0452 -0.1482 -0.0355
 1762TIP3    H226702   1.495   0.229   4.906 -0.5240 -0.7441 -0.5441
 1763TIP3   OH226703   3.490   2.756   5.532  0.1059  0.2166  0.4279
 1763TIP3    H126704   3.553   2.742   5.602  1.9230 -0.5822 -1.3303
 1763TIP3    H226705   3.501   2.848   5.507  0.5368  0.0981  0.1752
 1764TIP3   OH226706   2.827   0.369  12.587  0.0812 -0.6593  0.1896
 1764TIP3    H126707   2.769   0.444  12.570  1.2989  0.2966  0.2152
 1764TIP3    H226708   2.888   0.401  12.653  2.4410 -0.7084 -1.8750
 1765TIP3   OH226709   6.468   5.743  12.445  0.3307  0.0596  0.2168
 1765TIP3    H126710   6.415   5.760  12.367  2.0367 -0.3510 -1.0471
 1765TIP3    H226711   6.556   5.774  12.422  1.8088 -3.6810  0.5110
 1766TIP3   OH226712   1.646   2.950  12.814  0.3288  0.4512 -0.1479
 1766TIP3    H126713   1.571   2.933  12.871 -0.9480  0.9516 -1.6587
 1766TIP3    H226714   1.682   2.863  12.795 -0.2405  0.1612  0.0888
 1767TIP3   OH226715   1.517   1.852  11.771  0.3713 -0.1877  0.2026
 1767TIP3    H126716   1.580   1.796  11.816 -0.2713 -1.1559 -0.0708
 1767TIP3    H226717   1.450   1.791  11.739  1.1946  0.3661 -2.7288
 1768TIP3   OH226718   4.272   4.571   0.832 -0.2600 -0.4114  0.6239
 1768TIP3    H126719   4.360   4.534   0.822 -0.2955 -0.2699 -0.3063
 1768TIP3    H226720   4.231   4.517   0.898  0.0052 -1.4781 -0.0669
 1769TIP3   OH226721   1.285   3.127  17.204  0.0458  0.7008  0.0658
 1769TIP3    H126722   1.264   3.034  17.195  2.0188  0.1611  0.6949
 1769TIP3    H226723   1.287   3.142  17.299 -0.7063  1.5121 -0.0367
 1770TIP3   OH226724   0.511   2.317   2.808 -0.2469  0.1726 -0.6795
 1770TIP3    H126725   0.464   2.254   2.862 -1.1039  1.1787 -0.2379
 1770TIP3    H226726   0.542   2.384   2.869  0.4265  0.3210 -1.1763
 1771TIP3   OH226727   6.488   1.650   2.502 -0.4669 -0.3596 -0.4322
 1771TIP3    H126728   6.565   1.612   2.543 -0.9850 -0.0288  0.8745
 1771TIP3    H226729   6.434   1.680   2.575 -0.3869  2.2770 -1.3909
 1772TIP3   OH226730   0.213   3.727  12.800 -0.6079  0.6844 -0.3247
 1772TIP3    H126731   0.244   3.816  12.781  1.3304  0.1037  0.0041
 1772TIP3    H226732   0.209   3.723  12.895  2.0556 -0.4374 -0.2076
 1773TIP3   OH226733   0.936   4.693  13.678 -0.0535  0.4882  0.1277
 1773TIP3    H126734   0.910   4.728  13.763 -0.3188  1.3138 -0.2825
 1773TIP3    H226735   0.861   4.711  13.621  0.3426  0.4571 -0.4125
 1774TIP3   OH226736   4.947   1.559  10.557  1.0780  0.1306 -1.1004
 1774TIP3    H126737   4.909   1.625  10.616 -0.9386 -1.6032 -0.3868
 1774TIP3    H226738   4.927   1.591  10.469 -3.8911 -1.6107 -0.7685
 1775TIP3   OH226739   6.004   6.293  11.414  0.6994 -0.2557  0.3365
 1775TIP3    H126740   6.069   6.242  11.366  1.9559  2.2529 -0.7268
 1775TIP3    H226741   5.921   6.272  11.371  1.7052  1.4432 -2.6863
 1776TIP3   OH226742   6.181   3.002  12.390  0.4413  0.6382  0.5262
 1776TIP3    H126743   6.231   3.082  12.410 -0.0832  1.1946 -0.3460
 1776TIP3    H226744   6.211   2.976  12.303  0.2261  0.1924  0.5887
 1777TIP3   OH226745   0.282   0.159  12.614  0.1409  0.0986  0.4301
 1777TIP3    H126746   0.243   0.245  12.597  0.5737  0.2346  0.0940
 1777TIP3    H226747   0.377   0.176  12.611  0.2510  0.1034  2.8559
 1778TIP3   OH226748   5.124   6.243  17.197  0.1925 -0.0074 -0.6242
 1778TIP3    H126749   5.107   6.303  17.124  0.0948  0.9570  0.1791
 1778TIP3    H226750   5.037   6.221  17.231  0.3175  1.2267  0.5301
 1779TIP3   OH226751   3.671   4.040  13.784 -0.6907 -0.6390  0.0315
 1779TIP3    H126752   3.689   3.964  13.728 -0.7236 -0.1665 -0.6275
 1779TIP3    H226753   3.745   4.098  13.769 -1.1562 -0.1086 -0.2150
 1780TIP3   OH226754   5.855   4.104  14.935  0.5833  0.3139  0.7388
 1780TIP3    H126755   5.850   4.096  15.030 -0.4048 -0.7736  0.6074
 1780TIP3    H226756   5.813   4.188  14.915 -0.7602 -0.2471  1.1382
 1781TIP3   OH226757   4.550   3.942   5.532 -0.2351  0.2837  0.3330
 1781TIP3    H126758   4.642   3.917   5.520 -0.5731 -0.6949 -0.3283
 1781TIP3    H226759   4.512   3.935   5.444 -0.4507  2.7712  0.1948
 1782TIP3   OH226760   3.325   2.234  11.406  0.1368  0.1241  0.1011
 1782TIP3    H126761   3.381   2.235  11.483 -0.3835  0.3256  0.4788
 1782TIP3    H226762   3.338   2.146  11.369 -1.5362 -0.9220  1.8600
 1783TIP3   OH226763   0.396   3.220  13.822  0.3243  0.0731 -0.1314
 1783TIP3    H126764   0.397   3.144  13.881 -0.4030  0.1600 -0.0107
 1783TIP3    H226765   0.335   3.196  13.752  0.0923  0.5443 -0.0932
 1784TIP3   OH226766   1.603   0.296  15.204 -0.1209  0.3778  0.1383
 1784TIP3    H126767   1.621   0.375  15.152  1.6420  0.1168  0.3220
 1784TIP3    H226768   1.575   0.231  15.140  1.8889  0.1016 -0.5243
 1785TIP3   OH226769   0.923   3.520   5.199  0.0454 -0.4903 -0.0626
 1785TIP3    H126770   0.923   3.609   5.234  3.1820 -0.3403 -0.2181
 1785TIP3    H226771   0.943   3.464   5.274  0.0840 -0.8502 -0.3370
 1786TIP3   OH226772   2.503   4.455   2.843 -0.8827  0.0598 -0.3229
 1786TIP3    H126773   2.484   4.549   2.851  1.4936  0.6758 -1.3794
 1786TIP3    H226774   2.579   4.451   2.785  0.8454 -2.3656  1.9948
 1787TIP3   OH226775   2.551   1.289   1.142 -0.3811  0.2409 -0.3209
 1787TIP3    H126776   2.523   1.295   1.051  1.2657  0.0590 -0.8527
 1787TIP3    H226777   2.535   1.198   1.166  1.4716 -0.3280 -1.1993
 1788TIP3   OH226778   0.118   2.844  15.022  0.0203  0.6050 -0.1423
 1788TIP3    H126779   0.213   2.858  15.030  0.2792 -0.2452 -1.4762
 1788TIP3    H226780   0.089   2.826  15.111  1.1613  0.6207  0.2453
 1789TIP3   OH226781   0.839   0.720   2.136  0.9440  0.2955 -0.1221
 1789TIP3    H126782   0.910   0.659   2.152  0.3802 -0.4481 -0.4566
 1789TIP3    H226783   0.792   0.726   2.220 -0.7305 -1.9654 -0.8405
 1790TIP3   OH226784   0.606   6.509  14.460  0.2108  0.2210 -0.4258
 1790TIP3    H126785   0.627   6.434  14.516 -2.4753  1.0120  1.7742
 1790TIP3    H226786   0.668   6.577  14.487  0.5860 -0.2033 -0.2135
 1791TIP3   OH226787   2.451   5.592   0.864 -0.0865  0.0007 -0.4463
 1791TIP3    H126788   2.527   5.632   0.821  0.2167  0.6609  0.6809
 1791TIP3    H226789   2.483   5.508   0.897  0.2839  0.4643  0.3994
 1792TIP3   OH226790   2.848   0.893  17.046 -0.4286 -0.0739  0.6153
 1792TIP3    H126791   2.905   0.905  16.970 -0.6713  1.0074  0.5975
 1792TIP3    H226792   2.792   0.818  17.023 -0.0869 -0.1409 -0.0073
 1793TIP3   OH226793   6.598   3.038  16.084  0.1288 -0.1950 -0.6603
 1793TIP3    H126794   6.511   2.997  16.077  1.1250 -2.7310  1.1004
 1793TIP3    H226795   6.581   3.131  16.070 -2.4357 -0.9575 -3.4724
 1794TIP3   OH226796   5.138   0.919   0.804 -0.4976 -0.1546 -0.2259
 1794TIP3    H126797   5.147   0.833   0.844 -0.4915 -0.5041 -0.9813
 1794TIP3    H226798   5.216   0.928   0.749  0.5870  1.1943  1.4340
 1795TIP3   OH226799   3.444   1.067  13.822 -0.1618  0.1662 -0.3040
 1795TIP3    H126800   3.400   1.148  13.846  1.0921  0.7048  0.2339
 1795TIP3    H226801   3.532   1.094  13.796  0.1148 -0.9655 -0.5715
 1796TIP3   OH226802   0.934   1.661  13.615 -0.6861  0.0284  0.1903
 1796TIP3    H126803   0.863   1.683  13.676 -0.4752 -2.5242  1.4286
 1796TIP3    H226804   0.891   1.618  13.542 -0.4431 -1.4720  0.9156
 1797TIP3   OH226805   1.449   4.249   5.219  0.3853 -0.6263  0.1311
 1797TIP3    H126806   1.459   4.344   5.213 -1.7465 -0.3609  0.2219
 1797TIP3    H226807   1.486   4.226   5.303 -1.2133  0.4762  1.1742
 1798TIP3   OH226808   1.331   3.554  12.738  0.3063  0.3147 -0.1737
 1798TIP3    H126809   1.282   3.493  12.684  0.2976  0.4282 -0.2935
 1798TIP3    H226810   1.408   3.577  12.685 -0.3542  1.4163 -0.6642
 1799TIP3   OH226811   4.887   3.634  16.666  0.2735  0.0036  0.2438
 1799TIP3    H126812   4.961   3.654  16.609  0.6873 -0.8064  0.4835
 1799TIP3    H226813   4.810   3.650  16.612  0.6211  0.7600 -0.0420
 1800TIP3   OH226814   4.393   0.523   2.800 -0.2933 -0.6939  0.8050
 1800TIP3    H126815   4.322   0.522   2.864 -1.3920  1.0768 -0.3356
 1800TIP3    H226816   4.354   0.561   2.721  1.0294 -2.7966 -0.9330
 1801TIP3   OH226817   5.349   2.251   5.162  0.6647 -0.3593  0.0794
 1801TIP3    H126818   5.307   2.281   5.082  0.6851 -1.8694 -0.5153
 1801TIP3    H226819   5.297   2.289   5.233  0.4315  0.6790 -0.6396
 1802TIP3   OH226820   5.370   0.691  13.357  0.4009  0.2422 -0.3580
 1802TIP3    H126821   5.406   0.772  13.392  0.2918 -0.1568  0.6811
 1802TIP3    H226822   5.319   0.719  13.281  0.1868  1.1691  0.1162
 1803TIP3   OH226823   3.757   1.817  11.487 -0.1839  0.4356 -0.7947
 1803TIP3    H126824   3.839   1.865  11.480 -0.0292  0.1540 -0.9361
 1803TIP3    H226825   3.699   1.875  11.535  1.0035 -0.5150  1.8843
 1804TIP3   OH226826   6.111   2.149   5.166 -0.1024  0.1704 -0.3246
 1804TIP3    H126827   6.194   2.106   5.186 -0.3356  0.3614  1.0879
 1804TIP3    H226828   6.134   2.219   5.105  0.7018 -0.0411 -0.2646
 1805TIP3   OH226829   2.062   2.723   0.273 -0.0485  0.1757 -0.2487
 1805TIP3    H126830   2.154   2.740   0.293  0.0684 -1.4024  0.6355
 1805TIP3    H226831   2.061   2.704   0.179  0.7563 -1.1699 -0.0012
 1806TIP3   OH226832   5.436   6.521  12.161 -0.0484  0.0593  0.3204
 1806TIP3    H126833   5.422   6.441  12.212 -1.4531  0.8618  1.2176
 1806TIP3    H226834   5.348   6.548  12.134  0.6663 -0.3281 -2.5177
 1807TIP3   OH226835   3.496   4.861   1.998  0.6984 -0.4614  0.2413
 1807TIP3    H126836   3.418   4.844   2.051  0.1319 -2.0566 -1.0744
 1807TIP3    H226837   3.479   4.817   1.914  1.5864  1.9619 -1.2703
 1808TIP3   OH226838   0.397   5.446  11.454 -0.4545 -0.1898  0.2918
 1808TIP3    H126839   0.453   5.369  11.456 -1.3140 -0.8460 -0.7317
 1808TIP3    H226840   0.392   5.474  11.546 -1.0004 -1.9812  0.8137
 1809TIP3   OH226841   2.457   0.918  14.663  0.5920 -0.0960  0.0302
 1809TIP3    H126842   2.424   0.907  14.752  0.2353 -0.1599 -0.1094
 1809TIP3    H226843   2.545   0.954  14.675  0.0214  1.2337  0.3743
 1810TIP3   OH226844   4.008   5.797   4.265  0.5240  0.3189 -0.1136
 1810TIP3    H126845   3.914   5.813   4.265  0.3410 -0.5549  2.1110
 1810TIP3    H226846   4.027   5.763   4.353  2.8029 -0.1475 -0.7407
 1811TIP3   OH226847   2.278   5.089   4.086 -0.5508  0.2394  0.4023
 1811TIP3    H126848   2.338   5.034   4.035  0.2305 -0.5122  2.1013
 1811TIP3    H226849   2.324   5.173   4.094 -0.1931  0.0062  0.7958
 1812TIP3   OH226850   3.765   4.281  12.468  0.0013 -0.4766  0.1983
 1812TIP3    H126851   3.710   4.321  12.535  0.3242  0.5993 -0.1821
 1812TIP3    H226852   3.705   4.222  12.421 -0.3595 -0.7887  1.0437
 1813TIP3   OH226853   0.312   5.880  13.756  1.0967  0.1553  0.5565
 1813TIP3    H126854   0.251   5.953  13.767  0.8979 -0.0162  0.5973
 1813TIP3    H226855   0.261   5.803  13.780  0.8987 -0.1351 -0.7627
 1814TIP3   OH226856   6.394   5.222  12.373  0.6135 -0.2526  0.0669
 1814TIP3    H126857   6.437   5.298  12.412  0.5409 -0.9855  1.6230
 1814TIP3    H226858   6.339   5.259  12.304  0.0900  1.1849  1.2195
 1815TIP3   OH226859   5.074   2.041  14.544 -0.3486  0.4528  0.5170
 1815TIP3    H126860   4.992   2.018  14.587  0.6036 -0.6436  1.7785
 1815TIP3    H226861   5.100   1.962  14.497  0.1795  0.6815  0.4133
 1816TIP3   OH226862   2.932   1.079   2.903  0.3289  0.1786  0.0269
 1816TIP3    H126863   2.876   1.149   2.870  1.1626  0.4144 -0.9151
 1816TIP3    H226864   2.879   1.034   2.969 -1.0371  0.2599 -1.0031
 1817TIP3   OH226865   2.422   1.835  11.758  0.3631  0.6552  0.2953
 1817TIP3    H126866   2.358   1.815  11.690 -0.2174  2.6988  0.1856
 1817TIP3    H226867   2.501   1.861  11.711  1.4272 -2.2100  0.4327
 1818TIP3   OH226868   3.207   3.453   6.871  0.5113 -0.1688 -0.3060
 1818TIP3    H126869   3.141   3.385   6.880  1.3973 -0.9773  0.2150
 1818TIP3    H226870   3.281   3.409   6.828  0.8565  0.6186 -0.5310
 1819TIP3   OH226871   4.339   5.154   5.867  0.3178 -0.1230 -0.2298
 1819TIP3    H126872   4.322   5.090   5.937 -0.8376 -0.0531 -0.4492
 1819TIP3    H226873   4.310   5.111   5.787  0.4685  0.2950 -0.5126
 1820TIP3   OH226874   5.574   6.118  15.888  0.0576  0.3062  0.2876
 1820TIP3    H126875   5.618   6.203  15.887 -1.0398  0.8708  0.4303
 1820TIP3    H226876   5.592   6.082  15.801  1.7965  0.0139  0.7369
 1821TIP3   OH226877   0.398   3.390   1.656  0.1222 -0.3253  0.3565
 1821TIP3    H126878   0.455   3.314   1.664  0.5788 -0.0242  0.0354
 1821TIP3    H226879   0.310   3.353   1.648  0.4927 -0.9009 -1.4166
 1822TIP3   OH226880   0.530   0.753   0.113 -0.8189 -0.0538  0.2050
 1822TIP3    H126881   0.556   0.843   0.135  0.8030 -0.5631  0.4612
 1822TIP3    H226882   0.537   0.705   0.196 -0.6094 -0.6512 -0.1536
 1823TIP3   OH226883   6.419   0.022  16.101  0.0893 -0.0715 -0.1115
 1823TIP3    H126884   6.485  -0.004  16.037  1.3334  0.5513  0.9017
 1823TIP3    H226885   6.432  -0.038  16.175 -1.5371 -0.9882 -0.5342
 1824TIP3   OH226886   4.921   6.509  15.416  0.1472  0.0406 -0.1219
 1824TIP3    H126887   5.008   6.484  15.383 -0.0099 -2.1360  1.0202
 1824TIP3    H226888   4.861   6.482  15.346  0.1912 -0.5194  0.0557
 1825TIP3   OH226889   0.734   5.093  13.741 -0.4572 -0.2198 -0.6728
 1825TIP3    H126890   0.823   5.083  13.776 -1.1000  0.2418  1.1876
 1825TIP3    H226891   0.744   5.154  13.668  0.9008 -1.0064 -1.1682
 1826TIP3   OH226892   0.404   1.879   3.747  0.5312  0.3162  0.2327
 1826TIP3    H126893   0.466   1.935   3.701 -0.9581  1.2910 -0.6517
 1826TIP3    H226894   0.331   1.937   3.769 -1.9343 -1.6197 -2.4199
 1827TIP3   OH226895   1.094   2.176   5.701 -0.0024  0.5626  0.3840
 1827TIP3    H126896   1.046   2.097   5.725  0.5983  0.3451  0.8787
 1827TIP3    H226897   1.185   2.150   5.701  0.3074  1.5699  1.8292
 1828TIP3   OH226898   4.853   1.971   3.463  0.1751  0.1224 -0.5723
 1828TIP3    H126899   4.889   1.926   3.387  0.2384 -1.5909  0.4480
 1828TIP3    H226900   4.925   2.028   3.494  1.0477 -1.1256 -0.2562
 1829TIP3   OH226901   2.254   0.221   2.527 -0.4054  0.5862  0.2067
 1829TIP3    H126902   2.348   0.230   2.541 -0.6269  1.5409  1.1529
 1829TIP3    H226903   2.222   0.177   2.606 -0.3770 -2.2019 -1.2866
 1830TIP3   OH226904   4.004   0.108   2.266  0.1413 -0.3320  0.1784
 1830TIP3    H126905   4.003   0.088   2.172 -0.5219  0.2997  0.0448
 1830TIP3    H226906   4.038   0.197   2.271 -0.0370 -0.2849  0.5212
 1831TIP3   OH226907   6.784   6.326   0.355 -0.6368  0.1088  0.5845
 1831TIP3    H126908   6.834   6.254   0.394 -0.1761 -0.2827 -0.6840
 1831TIP3    H226909   6.783   6.305   0.261 -0.9940  1.4666  0.2841
 1832TIP3   OH226910   5.787   1.856  12.296  0.6940  0.7270  0.5594
 1832TIP3    H126911   5.835   1.774  12.287 -1.0759 -0.2725  0.0121
 1832TIP3    H226912   5.813   1.889  12.382  1.3508 -0.4421  0.8241
 1833TIP3   OH226913   1.305   3.301   4.644  0.3249 -0.2783  0.3530
 1833TIP3    H126914   1.285   3.313   4.551 -2.1210 -3.0442  0.4869
 1833TIP3    H226915   1.395   3.269   4.644  0.0763 -1.0428 -1.1039
 1834TIP3   OH226916   1.563   5.059   5.517  0.3071 -0.3366  0.1573
 1834TIP3    H126917   1.645   5.103   5.496 -0.6680  1.1423 -0.6664
 1834TIP3    H226918   1.505   5.083   5.445 -1.2984 -0.1001  1.5073
 1835TIP3   OH226919   3.342   3.094   5.048  0.0114  0.4972  0.4216
 1835TIP3    H126920   3.338   3.097   5.144  0.0139  0.0067  0.4349
 1835TIP3    H226921   3.429   3.059   5.029  0.0363  0.6592  0.2393
 1836TIP3   OH226922   2.732   1.263  11.544  0.2181  0.2108 -0.5745
 1836TIP3    H126923   2.767   1.327  11.605 -1.2754  1.2352 -0.7472
 1836TIP3    H226924   2.786   1.271  11.465 -1.8484  3.5349 -1.7713
 1837TIP3   OH226925   4.996   1.195  12.660  0.1532  0.3055 -0.3447
 1837TIP3    H126926   5.005   1.124  12.724 -2.2392  0.5186  0.2978
 1837TIP3    H226927   4.976   1.151  12.578  0.8899  0.1383 -0.4356
 1838TIP3   OH226928   1.445   4.549  15.845 -0.8635 -0.2745  0.0683
 1838TIP3    H126929   1.392   4.489  15.898 -0.0786 -0.4811  0.6211
 1838TIP3    H226930   1.502   4.491  15.794  1.0371  0.0513  1.8011
 1839TIP3   OH226931   5.129   1.869   5.760 -0.1322  0.0240 -0.5820
 1839TIP3    H126932   5.132   1.804   5.830 -0.5104  0.3354 -0.2751
 1839TIP3    H226933   5.040   1.904   5.763  0.2225  0.9268 -0.4076
 1840TIP3   OH226934   1.698   5.780  16.932  0.5093  0.4179 -0.4503
 1840TIP3    H126935   1.783   5.803  16.968  1.1369 -2.0934 -0.2931
 1840TIP3    H226936   1.718   5.728  16.854 -0.8155 -3.0900  1.4368
 1841TIP3   OH226937   1.162   5.861  16.563 -0.2718 -0.0628 -0.1103
 1841TIP3    H126938   1.083   5.812  16.584 -0.8060  0.7893 -0.1199
 1841TIP3    H226939   1.233   5.811  16.603 -0.7291 -1.2138 -0.7141
 1842TIP3   OH226940   3.783   1.614  12.386 -0.6367 -0.4934  0.2948
 1842TIP3    H126941   3.814   1.681  12.326  0.2914 -0.8704  0.3366
 1842TIP3    H226942   3.715   1.657  12.437 -0.5346  0.2090 -0.1540
 1843TIP3   OH226943   2.493   4.519   6.007 -0.0344  0.2008  0.0379
 1843TIP3    H126944   2.528   4.608   6.010 -0.7401  0.5098 -0.5945
 1843TIP3    H226945   2.412   4.527   5.957 -0.6801 -0.6078  0.9334
 1844TIP3   OH226946   5.899   1.410  13.071 -0.3736  0.1999  0.5360
 1844TIP3    H126947   5.806   1.415  13.092 -0.6679  0.6728 -0.8196
 1844TIP3    H226948   5.918   1.316  13.070 -0.8295  0.1032  0.8657
 1845TIP3   OH226949   0.067   0.259   3.445  0.0284  0.2053 -0.3198
 1845TIP3    H126950   0.044   0.187   3.504 -1.6141 -0.0455 -1.2537
 1845TIP3    H226951   0.046   0.338   3.494  0.2116  0.0284  0.0479
 1846TIP3   OH226952   1.439   3.703   0.494 -0.3238 -0.3975  0.4330
 1846TIP3    H126953   1.470   3.729   0.408  1.1982  0.6241  1.2577
 1846TIP3    H226954   1.404   3.615   0.482 -1.0554  0.1205 -1.4146
 1847TIP3   OH226955   1.307   5.042   3.891 -1.0614 -0.1946  0.9978
 1847TIP3    H126956   1.364   5.023   3.965 -1.0833  0.8827  1.2886
 1847TIP3    H226957   1.298   5.137   3.890 -1.1169 -0.1973 -0.3445
 1848TIP3   OH226958   2.394   6.241  11.732 -0.2156 -0.4575  0.5463
 1848TIP3    H126959   2.358   6.293  11.804  0.5564 -1.2430  1.4922
 1848TIP3    H226960   2.317   6.218  11.679 -0.8859 -0.5668  1.5564
 1849TIP3   OH226961   3.552   3.782  16.512  0.5402 -0.6242 -0.4283
 1849TIP3    H126962   3.567   3.751  16.601 -0.2546  0.1958 -0.0064
 1849TIP3    H226963   3.618   3.850  16.499 -0.3187  0.3167  0.0780
 1850TIP3   OH226964   5.481   4.383   4.571 -0.4497 -0.2281 -0.0053
 1850TIP3    H126965   5.391   4.361   4.544 -0.4806 -0.8335  0.5934
 1850TIP3    H226966   5.478   4.382   4.666  0.4794 -1.4153  0.0167
 1851TIP3   OH226967   3.553   1.683  15.567 -0.1251  0.3808 -0.2286
 1851TIP3    H126968   3.475   1.730  15.598  1.2765  2.4261  0.2496
 1851TIP3    H226969   3.615   1.689  15.639  0.1356 -2.1827 -0.1975
 1852TIP3   OH226970   2.191   0.351   1.957 -0.0610 -0.4310  0.2317
 1852TIP3    H126971   2.270   0.390   1.920  0.1385 -1.3425 -0.3096
 1852TIP3    H226972   2.217   0.263   1.983 -0.7934 -0.5916  0.4314
 1853TIP3   OH226973   6.104   5.805  13.339  0.7743  0.0459  0.0245
 1853TIP3    H126974   6.053   5.826  13.261  0.0725 -0.0739  0.4507
 1853TIP3    H226975   6.183   5.858  13.331 -0.1588  1.4743  0.1838
 1854TIP3   OH226976   0.915   1.404   0.394 -0.3239 -0.3425  0.1661
 1854TIP3    H126977   0.962   1.343   0.337 -0.9261 -1.2156  0.5736
 1854TIP3    H226978   0.839   1.432   0.342  0.1721  0.3725 -0.1687
 1855TIP3   OH226979   0.510   2.540   1.617  0.3110  0.0650  0.5844
 1855TIP3    H126980   0.456   2.515   1.692 -0.1382  0.3814  0.3654
 1855TIP3    H226981   0.588   2.484   1.624 -0.4559 -1.0419  0.3850
 1856TIP3   OH226982   2.710   0.421   0.198 -0.0766  0.0510  0.3061
 1856TIP3    H126983   2.645   0.361   0.235 -0.6706  1.5382  1.7338
 1856TIP3    H226984   2.727   0.484   0.268  2.1568  0.2832 -0.4189
 1857TIP3   OH226985   3.712   4.163  15.532 -0.0487 -0.1769 -0.4098
 1857TIP3    H126986   3.620   4.189  15.526 -0.7799 -2.5578  0.2383
 1857TIP3    H226987   3.711   4.079  15.577  2.4978 -0.0291  0.0179
 1858TIP3   OH226988   3.322   4.971   3.309  0.4261 -0.6552  0.3295
 1858TIP3    H126989   3.417   4.982   3.303  0.2604 -0.0309 -1.6853
 1858TIP3    H226990   3.288   5.020   3.234 -1.3719 -2.4105 -0.0370
 1859TIP3   OH226991   5.440   2.117   0.601  0.4375 -0.6510 -0.0346
 1859TIP3    H126992   5.375   2.107   0.670 -0.4440 -0.1610 -0.7832
 1859TIP3    H226993   5.456   2.028   0.570 -0.8932 -0.6326 -0.7740
 1860TIP3   OH226994   0.477   2.070  16.734  0.6988  0.2689  0.1924
 1860TIP3    H126995   0.385   2.080  16.711  0.6475  1.1365  0.7402
 1860TIP3    H226996   0.483   2.102  16.824  1.5016  0.0621  0.2217
 1861TIP3   OH226997   0.065   5.304  11.321 -0.3015  0.3820 -0.5131
 1861TIP3    H126998   0.045   5.398  11.322 -0.1574  0.4299 -2.0635
 1861TIP3    H226999   0.110   5.289  11.405 -2.8711  1.1111  1.0475
 1862TIP3   OH227000   4.965   0.465   0.785 -0.1962 -0.2944 -0.0654
 1862TIP3    H127001   5.030   0.404   0.821  0.1646 -0.5712 -1.1556
 1862TIP3    H227002   4.894   0.408   0.754 -0.3454 -0.0855 -0.1029
 1863TIP3   OH227003   6.124   6.202   5.019 -0.2995 -0.2614  0.0556
 1863TIP3    H127004   6.043   6.219   5.068 -1.2310  0.8468 -1.8157
 1863TIP3    H227005   6.114   6.112   4.988 -0.4629 -0.3950  0.4868
 1864TIP3   OH227006   1.330   0.859  13.044 -0.5697  0.2900 -0.0833
 1864TIP3    H127007   1.361   0.832  12.958  0.0004  2.0405 -0.4557
 1864TIP3    H227008   1.400   0.914  13.079 -1.0679  0.1234  1.2258
 1865TIP3   OH227009   1.243   2.958  12.216  1.2286  0.1060 -0.3842
 1865TIP3    H127010   1.158   2.913  12.219  0.6134  1.3123  0.8795
 1865TIP3    H227011   1.229   3.032  12.157  1.6850 -0.2704 -0.9599
 1866TIP3   OH227012   6.381   3.492  11.957 -0.0467 -0.1606  0.2518
 1866TIP3    H127013   6.443   3.554  11.919  0.6288 -1.0000 -0.0316
 1866TIP3    H227014   6.436   3.427  12.000 -0.7574 -0.4130  0.7800
 1867TIP3   OH227015   6.240   3.336   1.671 -0.0727  0.1448  0.3666
 1867TIP3    H127016   6.178   3.379   1.611  0.7256 -2.8205 -2.7566
 1867TIP3    H227017   6.209   3.245   1.675  1.0734 -0.1597  2.9453
 1868TIP3   OH227018   2.836   3.239   5.968  0.0330  0.1816  0.3782
 1868TIP3    H127019   2.775   3.199   6.030 -0.9129  1.7995  0.5260
 1868TIP3    H227020   2.800   3.217   5.882  1.5738 -2.4130  0.3671
 1869TIP3   OH227021   3.814   0.387   3.243 -0.7137 -0.0021  0.7033
 1869TIP3    H127022   3.723   0.378   3.274 -0.9747  0.6331  0.1389
 1869TIP3    H227023   3.806   0.387   3.148 -0.2068  0.9650  0.6619
 1870TIP3   OH227024   6.564   2.357   3.705  0.4594 -0.2843 -0.2339
 1870TIP3    H127025   6.500   2.373   3.775  0.0997  0.2691 -0.6854
 1870TIP3    H227026   6.527   2.400   3.628  0.8010 -0.9800 -0.7979
 1871TIP3   OH227027   0.672   4.944  14.369 -0.2588 -0.2015 -0.0710
 1871TIP3    H127028   0.608   4.982  14.429 -1.4937 -1.4812 -0.5391
 1871TIP3    H227029   0.622   4.924  14.290  0.9376 -0.3128 -0.8113
 1872TIP3   OH227030   5.396   0.670  10.791  0.9371 -0.1941 -0.1906
 1872TIP3    H127031   5.328   0.661  10.857  0.8691 -1.6504 -0.4448
 1872TIP3    H227032   5.462   0.606  10.815  0.4657 -1.4101 -2.0634
 1873TIP3   OH227033   1.415   1.943   3.643  0.1093 -0.0694 -0.8826
 1873TIP3    H127034   1.457   2.014   3.693  1.1740 -1.2288 -0.0858
 1873TIP3    H227035   1.478   1.871   3.647 -0.8535 -0.9870 -1.8898
 1874TIP3   OH227036   6.147   2.049  17.010 -0.5815  0.5501 -0.4468
 1874TIP3    H127037   6.215   2.111  16.984  0.4018 -0.4061 -0.1542
 1874TIP3    H227038   6.113   2.084  17.092  0.1184  0.5750 -0.1713
 1875TIP3   OH227039   0.597   3.992   1.072 -0.1184 -0.1268  0.5886
 1875TIP3    H127040   0.604   3.905   1.032 -1.3345 -0.9270  2.0378
 1875TIP3    H227041   0.504   4.013   1.068 -0.0850  0.3298  1.7954
 1876TIP3   OH227042   5.680   3.816   4.365 -0.2509  0.1679  0.2329
 1876TIP3    H127043   5.714   3.875   4.432 -1.5114 -1.3586  2.2716
 1876TIP3    H227044   5.705   3.729   4.394 -1.7912 -0.6080 -0.6675
 1877TIP3   OH227045   4.554   5.453   1.814  0.4912  0.1430 -0.5470
 1877TIP3    H127046   4.528   5.375   1.765  1.1522  0.1098 -0.8498
 1877TIP3    H227047   4.645   5.437   1.837 -0.2919 -0.6550  2.2639
 1878TIP3   OH227048   6.410   4.996   1.498 -0.0270 -1.0608  0.0159
 1878TIP3    H127049   6.419   4.916   1.446 -2.0461 -1.3747  0.1026
 1878TIP3    H227050   6.324   4.988   1.539 -0.4040  1.3125 -0.2539
 1879TIP3   OH227051   5.085   3.255  16.363  0.7049 -0.1099 -0.1958
 1879TIP3    H127052   5.165   3.208  16.340  2.1104  1.4381  1.2687
 1879TIP3    H227053   5.113   3.347  16.368 -1.8396  0.8540 -2.5422
 1880TIP3   OH227054   6.451   3.027  11.773 -0.1605  0.4564 -0.4983
 1880TIP3    H127055   6.430   3.118  11.753 -0.9723  0.1275 -1.1379
 1880TIP3    H227056   6.476   2.988  11.689  1.0936  0.3122 -0.0850
 1881TIP3   OH227057   2.611   4.734  16.190 -0.4351 -0.0207  0.3835
 1881TIP3    H127058   2.612   4.668  16.121  1.8720  0.3967 -0.0338
 1881TIP3    H227059   2.691   4.785  16.175  0.1445  0.0502  3.3739
 1882TIP3   OH227060   1.799   5.701   4.203  0.1106  0.3479 -0.6441
 1882TIP3    H127061   1.856   5.658   4.267  0.3612 -1.6831 -2.1892
 1882TIP3    H227062   1.859   5.748   4.146  0.1069 -0.2194 -1.1183
 1883TIP3   OH227063   6.467   1.842  15.647 -0.4890 -0.2261  0.5768
 1883TIP3    H127064   6.415   1.922  15.649 -1.1213 -0.6021 -0.5112
 1883TIP3    H227065   6.539   1.858  15.708  1.5219  2.6528 -2.3926
 1884TIP3   OH227066   0.564   6.413  12.716 -0.0505 -0.2352  0.4371
 1884TIP3    H127067   0.483   6.463  12.720 -0.4721 -0.8039 -0.8626
 1884TIP3    H227068   0.579   6.399  12.623  1.6436  0.0189  0.6586
 1885TIP3   OH227069   3.029   3.902   0.139  0.2956 -0.1949 -0.0614
 1885TIP3    H127070   3.053   3.814   0.110  0.8163 -0.6327  1.6236
 1885TIP3    H227071   2.953   3.889   0.197 -1.0574  0.7035 -1.5953
 1886TIP3   OH227072   4.242   3.134  14.949 -0.4433 -0.3419 -0.2489
 1886TIP3    H127073   4.183   3.173  14.884 -0.7608 -0.4780 -0.0413
 1886TIP3    H227074   4.329   3.165  14.924 -0.3940 -1.4701 -1.5478
 1887TIP3   OH227075   2.549   1.366   6.176 -0.2115  0.6665 -0.4353
 1887TIP3    H127076   2.461   1.352   6.140  0.6605 -1.0532 -2.0217
 1887TIP3    H227077   2.560   1.295   6.239  0.0160  0.9264 -0.1816
 1888TIP3   OH227078   5.551   5.377   5.494  0.4254  0.5280  0.2450
 1888TIP3    H127079   5.514   5.344   5.576  2.6619 -0.0372  1.0718
 1888TIP3    H227080   5.557   5.299   5.439  0.0180  0.6859 -0.0185
 1889TIP3   OH227081   6.340   0.625   4.674 -0.4896  0.3027 -0.0515
 1889TIP3    H127082   6.340   0.707   4.722 -0.8152  0.4641 -0.3253
 1889TIP3    H227083   6.391   0.643   4.595  0.3816 -0.0735  0.4153
 1890TIP3   OH227084   1.708   3.196  11.240  0.3561  0.1606 -0.1887
 1890TIP3    H127085   1.738   3.249  11.314 -0.2985 -0.0004  0.1944
 1890TIP3    H227086   1.649   3.253  11.192 -1.2424 -0.5893  0.8607
 1891TIP3   OH227087   5.112   3.010   0.337 -0.1926 -0.2879  0.4384
 1891TIP3    H127088   5.019   2.996   0.352  0.0322 -0.6957  1.4723
 1891TIP3    H227089   5.155   2.931   0.369  0.6409  0.5704  1.5047
 1892TIP3   OH227090   2.706   3.044   0.575 -0.6717 -0.5707 -0.0108
 1892TIP3    H127091   2.776   2.979   0.583  0.3753  0.6991  1.2938
 1892TIP3    H227092   2.706   3.068   0.482  1.0174 -0.1335  0.0893
 1893TIP3   OH227093   2.780   2.717   0.420  0.8626 -0.5000 -0.0457
 1893TIP3    H127094   2.871   2.687   0.425  0.1732 -2.5843  0.0619
 1893TIP3    H227095   2.749   2.715   0.510  0.9213  0.9829  0.0289
 1894TIP3   OH227096   6.170   5.565  16.528  0.2287  0.1058 -0.0342
 1894TIP3    H127097   6.262   5.566  16.554  0.2664  0.2024 -0.1728
 1894TIP3    H227098   6.143   5.657  16.530  0.3082  0.1440 -0.6078
 1895TIP3   OH227099   2.524   5.423   5.792 -0.0309  0.2005  0.1579
 1895TIP3    H127100   2.566   5.506   5.812  0.6297  0.0193 -0.4431
 1895TIP3    H227101   2.573   5.358   5.844  0.7298 -0.0692 -0.8822
 1896TIP3   OH227102   5.702   1.540  15.233  0.3515 -0.0132  0.0122
 1896TIP3    H127103   5.767   1.605  15.205 -0.2038  0.6689  0.3091
 1896TIP3    H227104   5.681   1.564  15.324 -3.3388  2.2686 -1.3272
 1897TIP3   OH227105   3.349   6.378  11.217  0.3150  0.7714 -0.5511
 1897TIP3    H127106   3.370   6.408  11.129  1.4959  2.3811  0.2549
 1897TIP3    H227107   3.294   6.448  11.254  1.5306  1.0876  0.6974
 1898TIP3   OH227108   1.529   3.011  13.407  0.3402 -0.2880 -0.4665
 1898TIP3    H127109   1.484   2.978  13.329 -1.6338 -1.9529  1.2963
 1898TIP3    H227110   1.528   2.937  13.467  0.6059  1.4059  1.6635
 1899TIP3   OH227111   6.013   3.535   6.608  0.1293  0.4245  0.1679
 1899TIP3    H127112   5.985   3.626   6.619 -1.0604 -0.2754  3.7505
 1899TIP3    H227113   5.941   3.494   6.560 -1.0366  0.5960  1.7248
 1900TIP3   OH227114   2.529   0.880   4.665  0.1865  0.0614 -0.6359
 1900TIP3    H127115   2.581   0.805   4.694  0.8806  1.2308  1.2773
 1900TIP3    H227116   2.445   0.843   4.639  1.2074 -1.5940 -1.6162
 1901TIP3   OH227117   1.455   6.603  16.848  0.1704 -0.2775  0.1067
 1901TIP3    H127118   1.518   6.666  16.883  2.8856 -1.4356 -2.4678
 1901TIP3    H227119   1.466   6.525  16.902  1.6707 -0.7860 -0.8911
 1902TIP3   OH227120   0.910   0.150  12.449 -0.5684 -0.0002 -0.0707
 1902TIP3    H127121   0.926   0.107  12.533  1.9577 -1.2632 -1.1250
 1902TIP3    H227122   0.929   0.242  12.465  4.1007 -0.7972 -0.1605
 1903TIP3   OH227123   2.441   0.055  16.651  0.4035 -0.2775 -0.0893
 1903TIP3    H127124   2.421   0.080  16.560  3.5343 -0.7618 -0.9487
 1903TIP3    H227125   2.356   0.062  16.696 -1.3720 -0.7579 -3.1985
 1904TIP3   OH227126   2.137   1.229   1.192  0.1671 -0.4234  0.0258
 1904TIP3    H127127   2.173   1.298   1.249 -1.0576 -1.0700  1.6069
 1904TIP3    H227128   2.198   1.226   1.118  1.4750  0.8300  1.0062
 1905TIP3   OH227129   3.222   1.335  16.950 -0.4443  0.2109 -0.1190
 1905TIP3    H127130   3.277   1.257  16.948 -1.2302 -0.4162  1.6215
 1905TIP3    H227131   3.270   1.398  17.003 -1.1471 -0.1576  0.9749
 1906TIP3   OH227132   4.293   5.889  15.824 -1.0080  0.0576 -0.4301
 1906TIP3    H127133   4.287   5.960  15.888  0.4917 -0.1454 -0.0470
 1906TIP3    H227134   4.226   5.909  15.759  0.9071  3.0766 -1.5646
 1907TIP3   OH227135   3.915   0.008   6.483  0.0827  0.1467  0.2328
 1907TIP3    H127136   3.976  -0.066   6.481  1.2073  1.0579  0.0874
 1907TIP3    H227137   3.845  -0.021   6.541  0.2409 -1.2347 -0.2305
 1908TIP3   OH227138   1.428   6.370   1.908  0.8940 -0.0150  0.0864
 1908TIP3    H127139   1.415   6.276   1.896 -1.2512  0.4431 -1.4113
 1908TIP3    H227140   1.522   6.379   1.927  1.5426 -2.2694 -1.7862
 1909TIP3   OH227141   5.873   6.162  16.773 -0.4016  0.2456 -0.4972
 1909TIP3    H127142   5.892   6.088  16.831  0.4438  1.1099  0.3469
 1909TIP3    H227143   5.810   6.215  16.822 -0.8066  0.2226 -0.9852
 1910TIP3   OH227144   3.992   1.652   1.767 -0.2222 -0.2855  0.0777
 1910TIP3    H127145   3.933   1.662   1.842 -1.6198  2.4253 -1.3281
 1910TIP3    H227146   4.056   1.722   1.777  0.1176 -0.4637 -0.7852
 1911TIP3   OH227147   0.012   0.859  11.470 -0.1695 -0.5666  0.1930
 1911TIP3    H127148  -0.059   0.859  11.534 -0.9730 -0.6218 -0.6933
 1911TIP3    H227149   0.036   0.951  11.461  0.7226 -0.6689  1.4188
 1912TIP3   OH227150   5.548   2.717   2.792 -0.1259  0.0421 -0.1628
 1912TIP3    H127151   5.470   2.690   2.744 -0.1419 -1.3623  0.6312
 1912TIP3    H227152   5.516   2.741   2.879  0.0312  1.6460 -0.5337
 1913TIP3   OH227153   5.963   2.682   4.147  0.0727  0.1094  0.1322
 1913TIP3    H127154   5.988   2.603   4.099  0.3492  0.3424 -0.1176
 1913TIP3    H227155   5.884   2.713   4.102  1.4069  1.3965 -1.4394
 1914TIP3   OH227156   3.897   5.729   0.915  0.2077 -0.1936  0.0973
 1914TIP3    H127157   3.869   5.794   0.979 -1.6870 -1.3010  0.4041
 1914TIP3    H227158   3.963   5.678   0.961  0.6758  0.5922  0.3222
 1915TIP3   OH227159   2.244   1.621   3.637 -0.2044 -0.0095  0.0144
 1915TIP3    H127160   2.231   1.556   3.568  0.5534 -0.5337  0.3513
 1915TIP3    H227161   2.290   1.573   3.707 -3.3738 -0.2067  2.0531
 1916TIP3   OH227162   0.719   6.279  14.609 -0.3816  0.1552  0.6424
 1916TIP3    H127163   0.806   6.262  14.643 -0.3585 -2.7475 -0.7132
 1916TIP3    H227164   0.660   6.243  14.675 -0.5262  0.9414  0.9444
 1917TIP3   OH227165   2.757   4.112  16.331 -0.2862  0.3822  0.1256
 1917TIP3    H127166   2.762   4.054  16.255 -1.8725 -1.2692  1.2380
 1917TIP3    H227167   2.728   4.196  16.295 -0.9117 -0.3435 -1.1121
 1918TIP3   OH227168   5.028   3.578   0.428 -0.0799  0.3373 -0.7769
 1918TIP3    H127169   5.091   3.613   0.491 -0.8118 -1.5700  1.0781
 1918TIP3    H227170   5.079   3.516   0.375 -0.7089 -2.7882  2.0691
 1919TIP3   OH227171   4.377   6.692  16.484 -0.1495 -0.9901  0.0516
 1919TIP3    H127172   4.462   6.726  16.512 -0.0470 -0.2848 -1.1234
 1919TIP3    H227173   4.330   6.768  16.450 -0.4901 -1.7308 -1.1607
 1920TIP3   OH227174   2.850   4.633   2.276  0.1344 -0.1348  0.3737
 1920TIP3    H127175   2.867   4.540   2.260 -0.0336 -0.3388  1.3334
 1920TIP3    H227176   2.859   4.643   2.371 -1.3192  0.5259  0.4516
 1921TIP3   OH227177   4.638   6.600  15.230  0.0955  1.0371  0.3603
 1921TIP3    H127178   4.546   6.601  15.203 -0.7228  0.6621  3.0088
 1921TIP3    H227179   4.667   6.511  15.210 -1.0190  0.2109  2.2789
 1922TIP3   OH227180   6.035   2.452   1.073 -0.4435 -0.1542 -0.2710
 1922TIP3    H127181   5.967   2.465   1.140  0.0639 -0.1384  0.2405
 1922TIP3    H227182   5.986   2.432   0.993 -1.0574 -0.0381  0.0724
 1923TIP3   OH227183   3.197   3.614   3.047  0.0787 -0.1996  0.4076
 1923TIP3    H127184   3.176   3.682   3.112 -0.3369  0.2519 -0.1899
 1923TIP3    H227185   3.282   3.640   3.011  0.0376 -0.1307  0.3596
 1924TIP3   OH227186   6.248   3.727  14.224 -0.0849  0.0949  0.1946
 1924TIP3    H127187   6.335   3.725  14.265 -0.0146  2.0685  0.1955
 1924TIP3    H227188   6.192   3.769  14.290 -0.6916  0.2688 -0.4315
 1925TIP3   OH227189   1.283   0.439   6.248  0.4703  0.4090 -0.1104
 1925TIP3    H127190   1.348   0.499   6.283 -0.3810  0.4648  1.3921
 1925TIP3    H227191   1.316   0.352   6.269  0.8079  0.3983 -0.6858
 1926TIP3   OH227192   2.872   4.582   6.560 -0.4240 -0.6066  0.4070
 1926TIP3    H127193   2.944   4.555   6.617 -0.7586 -3.1713 -0.3252
 1926TIP3    H227194   2.902   4.561   6.471 -0.7224  1.4546 -0.1975
 1927TIP3   OH227195   5.264   3.956  15.051 -0.4487  0.1850 -0.0239
 1927TIP3    H127196   5.265   3.864  15.078 -0.8595  0.3807  0.6947
 1927TIP3    H227197   5.325   3.961  14.978  1.1148 -0.2674  1.2408
 1928TIP3   OH227198   5.812   0.466   4.896 -0.2321  0.2784 -0.0604
 1928TIP3    H127199   5.842   0.450   4.985  1.1094 -0.4612 -0.6332
 1928TIP3    H227200   5.783   0.558   4.896 -0.2598  0.2771  1.1228
 1929TIP3   OH227201   1.638   0.502  15.004  0.5599  0.2277  0.2536
 1929TIP3    H127202   1.621   0.428  14.946 -1.8434  1.0813 -0.1658
 1929TIP3    H227203   1.701   0.556  14.957  0.6204 -0.4141 -0.4060
 1930TIP3   OH227204   1.140   0.915   1.512  0.0443 -0.4135 -0.0034
 1930TIP3    H127205   1.165   1.007   1.515  0.4619 -0.4770 -1.2374
 1930TIP3    H227206   1.069   0.907   1.576  0.3236  0.6599  0.4449
 1931TIP3   OH227207   6.333   5.734  14.621  0.2081 -0.4891  0.4094
 1931TIP3    H127208   6.242   5.722  14.649 -0.3734 -0.8017 -1.5881
 1931TIP3    H227209   6.366   5.645  14.606  0.7373 -0.3568  0.7715
 1932TIP3   OH227210   2.108   5.675   0.070  1.1048  0.0181  0.4291
 1932TIP3    H127211   2.160   5.682   0.151 -0.5406 -0.6331  1.5727
 1932TIP3    H227212   2.018   5.664   0.101  0.6932 -2.1603 -1.4964
 1933TIP3   OH227213   4.297   3.278   6.219  0.0922 -0.6481 -0.0512
 1933TIP3    H127214   4.383   3.318   6.233 -0.5980  0.8379  0.1056
 1933TIP3    H227215   4.305   3.189   6.253  2.2064 -1.2745 -2.0357
 1934TIP3   OH227216   1.545   4.053   3.630 -0.4559  0.7358  0.7270
 1934TIP3    H127217   1.509   4.102   3.705  2.1955  1.7991  1.3734
 1934TIP3    H227218   1.512   4.099   3.553 -1.2403  1.1088  1.2797
 1935TIP3   OH227219   1.542   2.441   4.351 -0.5119  0.8229  0.0141
 1935TIP3    H127220   1.633   2.418   4.330 -0.2215  1.4036  0.5807
 1935TIP3    H227221   1.492   2.362   4.332  0.4214 -0.2340  1.7449
 1936TIP3   OH227222   5.292   1.819  10.794  0.3013 -0.3783 -0.1115
 1936TIP3    H127223   5.350   1.889  10.826 -0.3917  1.0074 -1.7973
 1936TIP3    H227224   5.217   1.822  10.853  0.7649 -0.4261  0.4857
 1937TIP3   OH227225   2.739   4.197   3.447  1.0055  0.1710  0.3605
 1937TIP3    H127226   2.800   4.141   3.399  0.0155 -0.2224 -0.4707
 1937TIP3    H227227   2.743   4.165   3.537  0.8927 -0.8523  0.0118
 1938TIP3   OH227228   5.147   6.650   0.769  0.0014  0.1601 -0.6431
 1938TIP3    H127229   5.191   6.572   0.737 -1.2828 -0.3360 -1.2269
 1938TIP3    H227230   5.175   6.658   0.860  0.9822 -0.3579 -0.8999
 1939TIP3   OH227231   2.899   4.086   2.031  0.3599 -0.2940 -0.5852
 1939TIP3    H127232   2.925   4.141   2.104 -1.1380  0.8341 -0.8856
 1939TIP3    H227233   2.981   4.060   1.989  1.1540  0.0834  0.7339
 1940TIP3   OH227234   1.287   1.963  15.891 -0.1688  0.5722  0.3566
 1940TIP3    H127235   1.320   1.911  15.965 -1.4696  0.9638  1.2408
 1940TIP3    H227236   1.193   1.946  15.890  0.0138 -0.4684 -2.0663
 1941TIP3   OH227237   4.141   6.603  10.865  0.1282  0.1605 -0.3265
 1941TIP3    H127238   4.230   6.569  10.866 -0.0142 -0.1766  1.5243
 1941TIP3    H227239   4.138   6.661  10.789  2.1617  0.8380  0.1034
 1942TIP3   OH227240   5.031   1.776   4.427  0.1961 -0.7238 -0.7192
 1942TIP3    H127241   5.111   1.829   4.434  0.3987 -1.2176  0.8207
 1942TIP3    H227242   4.998   1.771   4.516 -1.1891 -1.1061 -1.2517
 1943TIP3   OH227243   4.038   0.888  11.770  0.0772  0.4385 -0.0313
 1943TIP3    H127244   4.048   0.961  11.831  0.0569  1.3421 -1.0835
 1943TIP3    H227245   3.947   0.894  11.741  0.2868  0.4635 -0.6930
 1944TIP3   OH227246   1.052   0.265   2.553 -0.6348 -0.7455 -0.1298
 1944TIP3    H127247   1.029   0.178   2.586 -2.0219 -0.6413 -0.8150
 1944TIP3    H227248   0.969   0.312   2.547 -0.0361  0.2423 -0.8759
 1945TIP3   OH227249   0.708   4.120   2.706 -0.3039 -0.0304  0.2208
 1945TIP3    H127250   0.621   4.112   2.745 -0.9389  3.0895 -0.4757
 1945TIP3    H227251   0.719   4.040   2.654 -2.3431 -0.8748  1.0570
 1946TIP3   OH227252   6.124   6.753   4.886  0.0280 -0.2529 -0.3996
 1946TIP3    H127253   6.040   6.735   4.845 -0.0147 -0.6999 -0.1250
 1946TIP3    H227254   6.109   6.830   4.940 -0.0278  0.0772 -0.8819
 1947TIP3   OH227255   3.522   5.841   2.099  0.2019  0.0812 -0.5096
 1947TIP3    H127256   3.434   5.803   2.099 -0.5160  1.6965 -0.8091
 1947TIP3    H227257   3.515   5.917   2.041  1.1319  1.7289  1.4822
 1948TIP3   OH227258   2.089   1.318   1.834  0.0930  1.2979 -0.3821
 1948TIP3    H127259   2.030   1.300   1.761 -1.2723 -0.4283  1.1006
 1948TIP3    H227260   2.067   1.407   1.861 -1.3613  0.9397 -0.3126
 1949TIP3   OH227261   0.487   2.346  11.971  0.6256  0.1389  0.4751
 1949TIP3    H127262   0.520   2.381  11.888 -0.3221  0.7218  0.3371
 1949TIP3    H227263   0.527   2.259  11.977  0.2584 -0.1341 -0.8689
 1950TIP3   OH227264   5.956   2.441  15.543  0.0676 -0.3717  0.1667
 1950TIP3    H127265   6.035   2.474  15.500  0.5477  0.2240  1.4889
 1950TIP3    H227266   5.913   2.518  15.579 -0.4412 -0.8365  0.5723
 1951TIP3   OH227267   1.488   2.998   0.738 -1.1188  0.2415  0.3688
 1951TIP3    H127268   1.483   3.086   0.775 -2.3458  0.5408 -0.5006
 1951TIP3    H227269   1.557   3.004   0.672  1.1819 -0.3313  2.6350
 1952TIP3   OH227270   0.808   2.549   0.011 -0.2811  0.3377  0.3360
 1952TIP3    H127271   0.798   2.503   0.093  0.9558  1.0339  0.8976
 1952TIP3    H227272   0.843   2.635   0.035 -0.1857  0.6592 -0.8756
 1953TIP3   OH227273   4.617   2.441   0.074 -0.0767 -0.2019 -0.1533
 1953TIP3    H127274   4.639   2.531   0.050 -0.8409 -0.2061 -0.8712
 1953TIP3    H227275   4.532   2.425   0.033  0.5176 -1.5924 -0.8521
 1954TIP3   OH227276   2.176   3.927   2.381  0.2886  0.0608  0.3443
 1954TIP3    H127277   2.183   3.915   2.286 -0.4207 -1.8511  0.5213
 1954TIP3    H227278   2.082   3.939   2.396  0.2082 -1.3031  0.9820
 1955TIP3   OH227279   5.776   1.830  15.208 -0.3017 -0.3502 -0.1258
 1955TIP3    H127280   5.812   1.906  15.162  0.1217 -0.7598 -0.4643
 1955TIP3    H227281   5.832   1.818  15.284 -0.3655 -0.3244 -0.0749
 1956TIP3   OH227282   6.215   4.409  10.563 -0.5151 -0.0254 -0.2441
 1956TIP3    H127283   6.184   4.451  10.643 -2.9432 -0.4966 -0.9096
 1956TIP3    H227284   6.250   4.325  10.591  0.8792  0.8371  0.6163
 1957TIP3   OH227285   4.244   0.088   2.985  0.6897  0.0319  0.2451
 1957TIP3    H127286   4.207   0.116   3.068  0.2610  1.6155 -0.4630
 1957TIP3    H227287   4.332   0.058   3.007  0.8871  1.2414  1.1464
 1958TIP3   OH227288   3.806   2.242  13.667 -0.1028  0.3376  0.0994
 1958TIP3    H127289   3.739   2.184  13.632 -0.2866  0.8977 -0.4699
 1958TIP3    H227290   3.781   2.255  13.758 -0.9423  0.8100 -0.1999
 1959TIP3   OH227291   4.488   1.794   1.889 -0.0128 -0.1097  0.1796
 1959TIP3    H127292   4.568   1.828   1.848  0.1362 -1.8703 -1.0436
 1959TIP3    H227293   4.520   1.742   1.963 -0.0358 -0.6401 -0.1825
 1960TIP3   OH227294   0.110   5.264   5.666 -0.4417 -0.3886 -0.0123
 1960TIP3    H127295   0.015   5.255   5.659 -0.8421  2.4130  1.0599
 1960TIP3    H227296   0.132   5.225   5.750 -1.0127  1.1947  0.8909
 1961TIP3   OH227297   1.975   2.152  12.883 -0.1727 -0.0181  0.1540
 1961TIP3    H127298   2.045   2.163  12.947  0.7022  1.3301 -0.9843
 1961TIP3    H227299   1.994   2.069  12.840  0.6140  0.2373  0.0027
 1962TIP3   OH227300   2.590   6.614   4.474  0.2623  0.1994  0.1731
 1962TIP3    H127301   2.542   6.534   4.453  0.8835 -0.3456  0.8157
 1962TIP3    H227302   2.540   6.684   4.431 -0.3557 -0.5139 -0.2764
 1963TIP3   OH227303   3.690   5.104  16.156 -0.3585 -0.2760  0.3235
 1963TIP3    H127304   3.759   5.095  16.090 -0.6861 -0.4233 -0.0015
 1963TIP3    H227305   3.608   5.103  16.105 -0.6606 -1.3395  0.8061
 1964TIP3   OH227306   5.544   3.314  16.732  0.1647 -0.1500  0.1525
 1964TIP3    H127307   5.470   3.264  16.697 -1.6438  1.0217  2.1643
 1964TIP3    H227308   5.551   3.390  16.674 -1.1051  0.4108  0.6931
 1965TIP3   OH227309   5.783   2.298   3.924 -0.1836  0.5896 -0.5473
 1965TIP3    H127310   5.746   2.217   3.888 -1.0681  0.1050  1.3777
 1965TIP3    H227311   5.720   2.366   3.900  0.4960  0.7214 -2.0557
 1966TIP3   OH227312   1.911   3.110  13.722  0.1859  0.2464 -0.0633
 1966TIP3    H127313   1.987   3.154  13.684 -0.2399  0.9857 -0.0662
 1966TIP3    H227314   1.892   3.160  13.802  0.8022 -1.0219  0.8956
 1967TIP3   OH227315   1.362   6.548  11.920  0.1198 -0.0690  0.6458
 1967TIP3    H127316   1.277   6.515  11.892  0.8163 -3.2789  2.0162
 1967TIP3    H227317   1.352   6.567  12.013  1.0896 -1.3673  1.0463
 1968TIP3   OH227318   0.349   1.394  16.104 -0.5511  0.3536  0.2455
 1968TIP3    H127319   0.429   1.392  16.156 -0.9354 -0.2307  0.8262
 1968TIP3    H227320   0.350   1.312  16.054 -0.7635  0.3568  0.2348
 1969TIP3   OH227321   2.423   4.176   3.925  0.2408  0.1142  0.1308
 1969TIP3    H127322   2.421   4.262   3.883 -0.0655  0.8366  1.6006
 1969TIP3    H227323   2.510   4.171   3.964 -1.3678  1.8097  4.1763
 1970TIP3   OH227324   3.930   5.868  11.713  0.1432 -0.0722  0.3235
 1970TIP3    H127325   3.893   5.950  11.679 -0.2744 -0.3117  0.1984
 1970TIP3    H227326   3.885   5.854  11.796  0.7179  0.1876  0.6884
 1971TIP3   OH227327   3.312   3.901  16.821  0.2021  0.7894 -0.7666
 1971TIP3    H127328   3.293   3.875  16.911 -1.4964  0.0973 -1.3132
 1971TIP3    H227329   3.286   3.992  16.816  1.4011  1.1766 -0.2504
 1972TIP3   OH227330   6.197   5.741   3.674  0.3914 -0.0044 -0.2558
 1972TIP3    H127331   6.194   5.832   3.704 -0.1762 -0.3594  0.7878
 1972TIP3    H227332   6.237   5.693   3.747 -1.0490 -0.8842 -0.0097
 1973TIP3   OH227333   2.491   5.898  16.607 -0.1030  0.5300  0.5033
 1973TIP3    H127334   2.550   5.916  16.534 -0.0293  0.4989  0.5555
 1973TIP3    H227335   2.531   5.944  16.681  0.7581 -0.8927  0.9333
 1974TIP3   OH227336   2.522   5.056   5.258 -0.1542  0.2170 -0.3635
 1974TIP3    H127337   2.487   5.131   5.306 -0.7052  0.6890 -1.4796
 1974TIP3    H227338   2.454   5.035   5.193  0.8310 -0.0193 -1.3345
 1975TIP3   OH227339   3.906   3.007   2.840 -0.3494  0.3307 -0.2092
 1975TIP3    H127340   3.849   2.970   2.908 -1.0124  2.8101  0.6291
 1975TIP3    H227341   3.882   2.960   2.760  0.1073 -2.2978  1.1292
 1976TIP3   OH227342   4.260   5.038  15.018 -0.3460  0.8792 -0.1256
 1976TIP3    H127343   4.220   5.125  15.013  0.7196  1.5382  1.9283
 1976TIP3    H227344   4.286   5.030  15.110 -1.0867 -1.9185 -0.1193
 1977TIP3   OH227345   6.154   2.760   2.167 -0.5901 -0.2886 -0.3966
 1977TIP3    H127346   6.135   2.674   2.131  0.5029 -0.4042 -0.7040
 1977TIP3    H227347   6.215   2.744   2.239 -0.6305  0.1951 -0.2496
 1978TIP3   OH227348   4.119   4.874  14.571 -0.5466 -0.0946  0.0942
 1978TIP3    H127349   4.061   4.936  14.615  0.3003  0.3661  0.5709
 1978TIP3    H227350   4.197   4.871  14.626 -0.0488 -0.5791 -0.6310
 1979TIP3   OH227351   1.908   6.163  10.942 -0.1684  0.3337 -0.7950
 1979TIP3    H127352   1.860   6.221  10.883 -1.2574  0.9301  0.6591
 1979TIP3    H227353   1.894   6.075  10.906  0.9256  0.8705 -2.6150
 1980TIP3   OH227354   1.092   2.961   1.316 -0.3792 -0.1040  0.8603
 1980TIP3    H127355   1.001   2.971   1.345 -0.4518  1.9608  0.0661
 1980TIP3    H227356   1.085   2.935   1.224 -0.1913  1.5875  0.3535
 1981TIP3   OH227357   3.033   5.053  16.442  0.6778 -0.3580  0.5296
 1981TIP3    H127358   3.119   5.078  16.476  0.1670 -0.3206  1.8191
 1981TIP3    H227359   3.049   4.974  16.391  1.9092  1.1274 -1.4919
 1982TIP3   OH227360   4.839   1.447   2.859  0.5136  0.2473  0.2576
 1982TIP3    H127361   4.754   1.430   2.818 -0.0544  1.6318  0.8390
 1982TIP3    H227362   4.873   1.525   2.814  2.8118 -1.9119 -1.9557
 1983TIP3   OH227363   2.830   2.827  14.896 -0.1324 -0.0593 -0.2800
 1983TIP3    H127364   2.817   2.907  14.947  0.4102  0.5292 -1.0488
 1983TIP3    H227365   2.779   2.842  14.816 -0.2401 -0.5901 -0.3060
 1984TIP3   OH227366   2.212   0.991  15.277 -0.3688 -0.4035  0.3801
 1984TIP3    H127367   2.229   0.904  15.241 -2.0367 -0.3835 -0.4871
 1984TIP3    H227368   2.186   1.044  15.202 -2.0767  0.1202  1.3132
 1985TIP3   OH227369   0.456   3.562  13.603  0.5433 -0.4454 -0.6617
 1985TIP3    H127370   0.456   3.517  13.687  1.0710 -3.0309 -2.0112
 1985TIP3    H227371   0.546   3.590  13.590  0.3454  0.4859 -0.1323
 1986TIP3   OH227372   2.489   2.352  13.184 -0.3287 -0.4867 -0.2532
 1986TIP3    H127373   2.497   2.396  13.100  0.4891  0.2396  0.1976
 1986TIP3    H227374   2.526   2.264  13.168 -1.3163 -0.7796 -0.9625
 1987TIP3   OH227375   4.812   1.252  16.116 -0.5683  0.2033  0.8738
 1987TIP3    H127376   4.773   1.227  16.201  0.5915  1.7607  1.8810
 1987TIP3    H227377   4.885   1.309  16.139  0.5769 -0.4154 -1.1418
 1988TIP3   OH227378   0.107   2.186  14.240  0.4451 -0.6376  0.2801
 1988TIP3    H127379   0.018   2.155  14.224  0.6807 -1.2967  0.2320
 1988TIP3    H227380   0.162   2.131  14.184  0.6498  1.6042 -1.8211
 1989TIP3   OH227381   2.571   6.427  13.433 -0.1599  0.1714  0.2974
 1989TIP3    H127382   2.636   6.482  13.387 -0.1975  0.7111  0.8912
 1989TIP3    H227383   2.569   6.346  13.382  0.1210  0.6005 -0.4109
 1990TIP3   OH227384   1.289   5.000   4.263 -0.1549  0.6740  0.0643
 1990TIP3    H127385   1.298   5.059   4.338  0.2194  0.2301  0.3776
 1990TIP3    H227386   1.363   5.020   4.207 -0.9839  1.6955 -0.6842
 1991TIP3   OH227387   6.499   1.794  14.035  0.4677  0.2604  0.2721
 1991TIP3    H127388   6.547   1.857  13.982 -1.4495  1.1264 -0.5057
 1991TIP3    H227389   6.515   1.820  14.125  0.5189  1.2416 -0.0124
 1992TIP3   OH227390   2.087   1.662  15.670  0.3884 -0.0591  0.2245
 1992TIP3    H127391   2.026   1.706  15.729  0.1281  0.0702 -0.1347
 1992TIP3    H227392   2.048   1.575  15.655 -0.0313  0.2368 -0.4801
 1993TIP3   OH227393   1.950   0.753  15.983  0.9068  0.0447  0.0784
 1993TIP3    H127394   2.042   0.754  16.008  1.0040 -0.8765 -0.2436
 1993TIP3    H227395   1.949   0.789  15.894  0.6926  2.1859  0.9048
 1994TIP3   OH227396   4.210   1.286  16.634  0.2098 -0.1740  0.7583
 1994TIP3    H127397   4.182   1.318  16.720 -0.6459 -2.3894  1.3453
 1994TIP3    H227398   4.159   1.205  16.621  0.4505  0.0444 -1.7539
 1995TIP3   OH227399   1.965   6.585   4.577  0.5639  0.1936  0.0117
 1995TIP3    H127400   1.874   6.578   4.549 -0.0236  2.0160  1.3816
 1995TIP3    H227401   1.981   6.504   4.626  0.3557 -1.1219 -2.0710
 1996TIP3   OH227402   1.441   5.615  13.692  0.2092  0.0890  0.5828
 1996TIP3    H127403   1.449   5.582  13.603 -2.7090  0.2334  0.2283
 1996TIP3    H227404   1.391   5.547  13.739  0.8185  0.4874  1.8492
 1997TIP3   OH227405   1.039   4.664   0.205  0.5553 -0.1831 -0.3331
 1997TIP3    H127406   0.976   4.607   0.160 -1.6846  0.7013  1.5538
 1997TIP3    H227407   1.101   4.603   0.245  0.2837 -1.1337 -1.3180
 1998TIP3   OH227408   3.553   5.380   3.562 -0.0178  0.0247  0.4818
 1998TIP3    H127409   3.573   5.288   3.577  0.3214  0.0100 -0.0371
 1998TIP3    H227410   3.515   5.410   3.644 -1.6500 -0.9955  0.1054
 1999TIP3   OH227411   4.975   2.386   3.323  0.0222 -0.5087 -0.1483
 1999TIP3    H127412   4.958   2.424   3.409  0.9653  2.8623 -1.3533
 1999TIP3    H227413   4.907   2.424   3.267 -0.9524 -3.1450 -0.7925
 2000TIP3   OH227414   1.438   2.998   1.172 -0.1627 -0.0821  0.0422
 2000TIP3    H127415   1.383   2.934   1.127  0.1321 -1.1476  1.1986
 2000TIP3    H227416   1.516   2.949   1.198  0.9601  1.2076 -0.8121
 2001TIP3   OH227417   3.074   3.664  13.486 -0.3496  0.3047  0.6690
 2001TIP3    H127418   3.030   3.589  13.446 -0.3006  0.3956  0.4459
 2001TIP3    H227419   3.168   3.646  13.475 -0.3467  0.7468 -0.0251
 2002TIP3   OH227420   3.410   4.552   2.260 -0.0744 -0.3705  0.5544
 2002TIP3    H127421   3.413   4.641   2.293  0.2306  0.4204 -1.5701
 2002TIP3    H227422   3.329   4.548   2.208  0.1337 -1.1999  0.2784
 2003TIP3   OH227423   0.888   4.712   0.882  0.1207 -0.8180 -0.3628
 2003TIP3    H127424   0.827   4.672   0.945  1.6945 -0.0193  1.7128
 2003TIP3    H227425   0.860   4.803   0.875  0.8725 -0.5198  0.3808
 2004TIP3   OH227426   2.423   2.015   0.928 -0.3446 -0.1697 -0.3722
 2004TIP3    H127427   2.496   1.953   0.929 -0.7929 -0.7146  2.0498
 2004TIP3    H227428   2.363   1.983   0.995 -2.7712  0.3551 -2.2305
 2005TIP3   OH227429   4.191   3.440   4.340 -0.1642  0.7137  0.7392
 2005TIP3    H127430   4.209   3.363   4.285 -0.3588  0.9949  0.2733
 2005TIP3    H227431   4.236   3.422   4.422 -0.3785  0.0057  0.7058
 2006TIP3   OH227432   5.765   6.503  13.381  0.1726  0.0638  0.0001
 2006TIP3    H127433   5.789   6.593  13.402  0.2539  0.0556 -0.0557
 2006TIP3    H227434   5.679   6.510  13.339 -0.2811  0.0219  0.9053
 2007TIP3   OH227435   4.884   0.271  14.191 -0.0339 -0.3760 -0.1220
 2007TIP3    H127436   4.852   0.338  14.131  2.2045  0.0298 -0.8888
 2007TIP3    H227437   4.846   0.189  14.159  1.4106 -0.2119 -2.3231
 2008TIP3   OH227438   5.730   6.292   0.453  0.1813  0.2016 -0.3474
 2008TIP3    H127439   5.636   6.288   0.472  0.0277  1.0327 -0.9086
 2008TIP3    H227440   5.760   6.201   0.462 -0.5578  0.0260  0.4255
 2009TIP3   OH227441   3.401   1.057  15.613 -0.2154 -0.2124  0.7207
 2009TIP3    H127442   3.332   1.110  15.652  0.0336  0.2208  0.5844
 2009TIP3    H227443   3.408   1.089  15.523 -0.1346 -0.5524  0.6034
 2010TIP3   OH227444   6.760   4.398   5.099  0.0120  0.1668  0.1574
 2010TIP3    H127445   6.691   4.339   5.128  1.2270 -1.3997 -0.0017
 2010TIP3    H227446   6.802   4.428   5.179 -0.5975  0.8117  0.2391
 2011TIP3   OH227447   5.092   5.533  15.849 -0.4091 -0.6611 -0.0297
 2011TIP3    H127448   5.043   5.596  15.901 -0.3507  1.1130 -2.0668
 2011TIP3    H227449   5.175   5.577  15.829 -0.3930 -1.3458 -1.5396
 2012TIP3   OH227450   5.828   0.297   2.790 -0.3171 -0.6945 -0.4584
 2012TIP3    H127451   5.807   0.233   2.858  0.7506 -0.6735 -0.0923
 2012TIP3    H227452   5.769   0.276   2.717 -1.0255 -1.1191  0.2391
 2013TIP3   OH227453   0.302   0.795   5.730 -0.0358 -0.3612  0.0045
 2013TIP3    H127454   0.213   0.827   5.714 -0.2015 -0.3825  0.8485
 2013TIP3    H227455   0.296   0.747   5.813  0.6902 -0.6612 -0.1066
 2014TIP3   OH227456   1.132   4.080  10.550  0.1062 -0.4569 -0.3573
 2014TIP3    H127457   1.196   4.035  10.494 -0.5754  0.9122 -2.3031
 2014TIP3    H227458   1.076   4.128  10.488 -1.3877  0.1866  1.4512
 2015TIP3   OH227459   1.444   0.495   3.137 -0.2930  0.6343 -0.6143
 2015TIP3    H127460   1.460   0.523   3.227  0.0657 -0.7124 -0.2459
 2015TIP3    H227461   1.396   0.568   3.097 -0.2102  1.3538  0.5813
 2016TIP3   OH227462   6.363   6.355   3.368 -0.3879  0.0333  0.2592
 2016TIP3    H127463   6.317   6.332   3.449  1.4276  1.1348  1.6326
 2016TIP3    H227464   6.296   6.400   3.315 -1.6014 -0.7380  1.1001
 2017TIP3   OH227465   4.558   2.958   3.354  0.7650  0.6057  0.0433
 2017TIP3    H127466   4.568   2.899   3.429 -1.7426  1.0517  0.7794
 2017TIP3    H227467   4.639   3.009   3.352  0.4465  1.3485  3.1567
 2018TIP3   OH227468   1.471   4.610   3.971 -0.1886  0.6331  0.1419
 2018TIP3    H127469   1.387   4.652   3.990 -0.4727  0.0428  0.2090
 2018TIP3    H227470   1.450   4.545   3.904 -0.2146 -1.1396  1.8448
 2019TIP3   OH227471   5.924   4.093   4.382  0.9917  0.2975  0.0752
 2019TIP3    H127472   5.982   4.155   4.339  0.0101  0.5922 -0.8600
 2019TIP3    H227473   5.960   4.082   4.470  2.5877  0.2890 -0.5663
 2020TIP3   OH227474   4.884   4.807   5.121 -0.6982 -0.2370  0.8167
 2020TIP3    H127475   4.899   4.842   5.209  0.9038  0.5742  0.2340
 2020TIP3    H227476   4.796   4.771   5.125 -0.6614 -0.1706  2.7481
 2021TIP3   OH227477   2.578   5.305   0.871  0.8080  0.0773 -0.2026
 2021TIP3    H127478   2.566   5.211   0.883 -1.1801  0.2638 -0.5397
 2021TIP3    H227479   2.665   5.313   0.833  2.3565 -1.3561  2.8813
 2022TIP3   OH227480   4.907   0.747  11.121 -0.3119  0.3946  0.1335
 2022TIP3    H127481   4.896   0.652  11.116 -0.6050  0.5044 -1.8381
 2022TIP3    H227482   4.998   0.760  11.145 -0.3744 -0.3937  0.7944
 2023TIP3   OH227483   3.598   2.574  15.428 -0.1848  0.2827 -0.2176
 2023TIP3    H127484   3.655   2.641  15.465 -1.8366  1.1611  0.7798
 2023TIP3    H227485   3.579   2.605  15.339 -0.8116  1.0439  0.1859
 2024TIP3   OH227486   6.632   4.820   4.185  0.2229  0.3271 -0.2168
 2024TIP3    H127487   6.652   4.910   4.161 -0.0982  1.0061  1.8982
 2024TIP3    H227488   6.540   4.821   4.211 -0.0179 -0.7882 -0.9710
 2025TIP3   OH227489   0.873   5.426   2.149 -0.1503  0.0816  0.1176
 2025TIP3    H127490   0.797   5.479   2.126  1.3167  1.2172 -2.2649
 2025TIP3    H227491   0.859   5.402   2.241 -3.7520 -0.4139 -0.5134
 2026TIP3   OH227492   5.595   6.771  14.757  0.3609 -0.4653  0.1641
 2026TIP3    H127493   5.500   6.771  14.743  0.0449  0.6207  2.1004
 2026TIP3    H227494   5.623   6.683  14.734 -0.9720 -0.5186 -1.3235
 2027TIP3   OH227495   6.365   5.104  13.258  0.4354 -0.2669 -0.6544
 2027TIP3    H127496   6.455   5.129  13.276  0.4493 -0.5137 -0.3739
 2027TIP3    H227497   6.365   5.080  13.165  0.7584 -0.6971 -0.5448
 2028TIP3   OH227498   4.223   6.539   4.030 -1.0432  0.3549 -0.0127
 2028TIP3    H127499   4.205   6.482   4.105  1.4284  0.0211  0.3615
 2028TIP3    H227500   4.243   6.624   4.069  1.5232 -0.1461 -0.2037
 2029TIP3   OH227501   0.024   0.302   2.546 -0.0161  0.0300 -0.0104
 2029TIP3    H127502   0.020   0.326   2.453  0.1741  1.0040  0.2328
 2029TIP3    H227503   0.113   0.271   2.559 -0.6922 -2.2823 -0.6769
 2030TIP3   OH227504   6.235   4.007  12.227 -0.1809 -0.1529  0.3536
 2030TIP3    H127505   6.279   4.010  12.312  0.0854 -0.2702  0.2182
 2030TIP3    H227506   6.145   3.982  12.248 -0.1378 -0.0940  0.6107
 2031TIP3   OH227507   6.631   4.725  14.269 -0.2018  0.5939  0.1871
 2031TIP3    H127508   6.538   4.732  14.249 -0.3816 -1.2100  0.2484
 2031TIP3    H227509   6.636   4.651  14.330  1.4773 -0.6206 -1.3870
 2032TIP3   OH227510   4.742   5.773   3.286  0.2909  0.2651  1.0657
 2032TIP3    H127511   4.747   5.854   3.338 -1.7600  1.0452  0.1288
 2032TIP3    H227512   4.648   5.758   3.276  0.6703 -0.5678 -1.3546
 2033TIP3   OH227513   1.556   6.658   4.266  0.6346 -0.0494 -0.3751
 2033TIP3    H127514   1.467   6.622   4.267  0.3686  0.6257  0.8453
 2033TIP3    H227515   1.576   6.669   4.172 -0.3951 -0.6007 -0.6665
 2034TIP3   OH227516   6.056   0.969   1.130 -0.4847  0.4569  0.5380
 2034TIP3    H127517   5.961   0.977   1.136 -0.6097  0.4575 -1.1694
 2034TIP3    H227518   6.084   1.048   1.085  0.4136  0.8011  1.6829
 2035TIP3   OH227519   1.698   1.952   2.964  0.5009  0.3952  0.0021
 2035TIP3    H127520   1.766   2.020   2.955  0.3899  0.1336 -3.6700
 2035TIP3    H227521   1.735   1.876   2.919 -0.2906 -1.3259  2.1887
 2036TIP3   OH227522   2.653   2.156  12.592 -0.2015 -0.0116  0.0419
 2036TIP3    H127523   2.728   2.134  12.537 -0.9438 -0.3867 -0.8269
 2036TIP3    H227524   2.608   2.225  12.544  0.0690  0.8213  0.9854
 2037TIP3   OH227525   2.153   6.743   0.264 -1.1834 -0.1034  0.0847
 2037TIP3    H127526   2.237   6.750   0.310 -2.2418  0.6644  1.9788
 2037TIP3    H227527   2.159   6.806   0.192 -0.5676  0.8177  0.9268
 2038TIP3   OH227528   0.224   4.958   3.120  0.4665  0.0181  0.4417
 2038TIP3    H127529   0.152   5.013   3.090 -0.9027 -1.8521  0.1750
 2038TIP3    H227530   0.290   4.965   3.051  0.4128  1.4726  0.5236
 2039TIP3   OH227531   0.405   2.688  13.906  0.3218  0.2687  0.6832
 2039TIP3    H127532   0.359   2.698  13.990  0.4197 -0.2408  0.7967
 2039TIP3    H227533   0.411   2.594  13.893  0.5234  0.3476  0.2195
 2040TIP3   OH227534   1.862   1.326  13.849  0.2200 -0.2517  0.1727
 2040TIP3    H127535   1.822   1.239  13.841 -2.0326  0.8416 -1.0668
 2040TIP3    H227536   1.807   1.372  13.911 -0.7479  1.4129 -1.8494
 2041TIP3   OH227537   5.893   1.840   5.382 -0.1209  0.1492 -0.4287
 2041TIP3    H127538   5.896   1.771   5.316 -1.0218 -0.0214 -0.3091
 2041TIP3    H227539   5.831   1.807   5.448  1.5703 -0.1674  1.0538
 2042TIP3   OH227540   3.416   1.803  16.179  0.0908 -0.3738 -0.7617
 2042TIP3    H127541   3.336   1.799  16.127 -0.1236 -0.8033 -0.3989
 2042TIP3    H227542   3.388   1.834  16.265  0.6387  1.6695 -1.2931
 2043TIP3   OH227543   0.757   2.702  12.200 -0.3996  0.4721  0.2649
 2043TIP3    H127544   0.741   2.696  12.105 -0.0179  0.2556  0.2114
 2043TIP3    H227545   0.843   2.744  12.206 -0.8225  1.3109  0.5373
 2044TIP3   OH227546   5.316   6.554  12.506 -0.1987  0.1554 -0.2997
 2044TIP3    H127547   5.379   6.615  12.469 -0.2522 -0.0893 -0.7976
 2044TIP3    H227548   5.253   6.609  12.552  0.6294  0.3714  0.5915
 2045TIP3   OH227549   3.493   6.057  13.238 -0.2493  0.1586  0.4202
 2045TIP3    H127550   3.490   5.975  13.189  0.1221  0.1416  0.4289
 2045TIP3    H227551   3.548   6.038  13.314 -2.0014 -0.2469  1.6215
 2046TIP3   OH227552   3.797   2.734  13.993  0.4480 -0.0630 -0.2461
 2046TIP3    H127553   3.866   2.793  13.964 -0.2339  1.7352  1.6518
 2046TIP3    H227554   3.777   2.763  14.082  1.2811 -4.2339  1.4518
 2047TIP3   OH227555   1.501   3.046   3.670  0.2545 -0.4632 -0.2083
 2047TIP3    H127556   1.510   3.045   3.574  0.4762 -0.4872 -0.1870
 2047TIP3    H227557   1.487   2.954   3.693 -0.2445 -0.4009 -0.2597
 2048TIP3   OH227558   5.691   2.199  11.342 -0.2573  0.0531  0.2890
 2048TIP3    H127559   5.732   2.116  11.319  0.0061  0.6238 -1.3238
 2048TIP3    H227560   5.764   2.261  11.350 -0.6082  0.5430 -0.2959
 2049TIP3   OH227561   5.391   1.394  15.829 -0.5037 -0.7379  0.5950
 2049TIP3    H127562   5.299   1.398  15.801 -0.0697 -2.7249 -1.1772
 2049TIP3    H227563   5.420   1.306  15.807  2.2288  0.2652 -0.0914
 2050TIP3   OH227564   0.239   1.925   2.029  0.4548 -0.2758  0.6144
 2050TIP3    H127565   0.321   1.917   2.079  1.3746 -2.7446 -1.2086
 2050TIP3    H227566   0.255   1.996   1.968  1.1721 -0.6200  0.3954
 2051TIP3   OH227567   4.678   0.848   0.395  0.3804 -0.2890  0.2614
 2051TIP3    H127568   4.712   0.928   0.357 -0.4146  0.5679  1.3074
 2051TIP3    H227569   4.586   0.846   0.368  0.6224 -1.3004 -0.4912
 2052TIP3   OH227570   4.883   5.485   0.128 -0.2619 -0.1072 -0.3957
 2052TIP3    H127571   4.899   5.415   0.192 -0.5502 -0.0063 -0.2123
 2052TIP3    H227572   4.883   5.565   0.181  0.3076  0.0575 -0.6361
 2053TIP3   OH227573   0.997   3.110  12.682 -0.0641 -0.1941 -0.2205
 2053TIP3    H127574   0.928   3.175  12.671 -0.7233 -0.8533 -0.0526
 2053TIP3    H227575   0.955   3.027  12.660  0.9231 -0.4967 -0.9740
 2054TIP3   OH227576   5.622   6.779   1.335 -0.2580  0.3787  0.0505
 2054TIP3    H127577   5.594   6.859   1.379 -0.8396 -0.9708  2.2160
 2054TIP3    H227578   5.717   6.787   1.327  0.0661  0.0598  2.8924
 2055TIP3   OH227579   1.476   0.754   0.248 -0.5248  0.6783  0.2285
 2055TIP3    H127580   1.551   0.698   0.225 -1.5025  0.5893 -2.9713
 2055TIP3    H227581   1.400   0.697   0.237 -1.3264  1.8424 -0.2448
 2056TIP3   OH227582   4.297   4.554  12.034 -0.1380  0.2730 -0.0582
 2056TIP3    H127583   4.233   4.546  11.963  0.2490  2.2832 -0.6911
 2056TIP3    H227584   4.309   4.465  12.066 -1.0041 -0.5528 -1.9266
 2057TIP3   OH227585   3.887   1.925   0.479  0.2094  0.4221  0.4615
 2057TIP3    H127586   3.939   2.001   0.449  0.1260  0.4630  0.4207
 2057TIP3    H227587   3.951   1.855   0.488  0.2712  0.4707  0.4024
 2058TIP3   OH227588   1.841   0.870  16.631 -0.7557 -0.4234 -0.7043
 2058TIP3    H127589   1.882   0.809  16.692 -1.5079  0.4864  0.7333
 2058TIP3    H227590   1.906   0.883  16.562  0.6877 -0.3342  0.6477
 2059TIP3   OH227591   2.068   6.399   0.663 -0.0945  0.2132  0.1510
 2059TIP3    H127592   1.987   6.442   0.690  0.0315  0.5445  0.0049
 2059TIP3    H227593   2.077   6.421   0.570 -0.9298 -1.5572 -0.3561
 2060TIP3   OH227594   0.380   2.877  15.157  0.6751  0.4889  0.2740
 2060TIP3    H127595   0.436   2.940  15.111  1.3300  0.6157  1.2211
 2060TIP3    H227596   0.431   2.796  15.158  0.5144  0.3900  0.4713
 2061TIP3   OH227597   2.831   4.018  12.422  0.1181  0.1931 -0.0768
 2061TIP3    H127598   2.748   3.990  12.460  0.3988 -0.5556 -0.0069
 2061TIP3    H227599   2.891   3.945  12.438  0.7146  0.6103 -0.3766
 2062TIP3   OH227600   1.212   1.209  14.051 -0.0434 -0.6049 -0.1302
 2062TIP3    H127601   1.285   1.253  14.008  0.9485 -1.5836  0.5484
 2062TIP3    H227602   1.180   1.147  13.985 -0.9798  0.5725 -0.8190
 2063TIP3   OH227603   2.335   4.306  17.080 -0.2190  0.0977  0.6483
 2063TIP3    H127604   2.414   4.306  17.133  0.7580  0.5724 -0.7801
 2063TIP3    H227605   2.309   4.214  17.074  0.4460 -0.1013  0.7978
 2064TIP3   OH227606   0.789   2.988   3.561  0.5525 -0.7630 -0.2164
 2064TIP3    H127607   0.881   2.984   3.589  0.9128  0.6841 -1.1172
 2064TIP3    H227608   0.790   3.046   3.485 -0.8532 -2.1632 -1.3415
 2065TIP3   OH227609   3.570   5.888  11.486 -0.1039  0.0218 -0.2402
 2065TIP3    H127610   3.568   5.953  11.415  1.0181  1.5979  1.1153
 2065TIP3    H227611   3.528   5.932  11.560 -0.8564 -1.4416  0.2275
 2066TIP3   OH227612   5.089   4.993  15.083 -0.0993  0.3987  0.3960
 2066TIP3    H127613   5.156   4.926  15.071 -1.4992 -1.1022  0.7602
 2066TIP3    H227614   5.124   5.071  15.039  1.9180 -0.3235  0.7202
 2067TIP3   OH227615   4.979   1.765  16.230  0.1513  0.0312  0.4428
 2067TIP3    H127616   5.022   1.849  16.213  1.8834 -0.9062  0.0510
 2067TIP3    H227617   4.980   1.756  16.325 -0.9250  0.9092  0.5359
 2068TIP3   OH227618   1.558   1.136  15.104 -0.3759  0.5775 -0.0835
 2068TIP3    H127619   1.511   1.054  15.117 -0.2873  0.3736 -0.9947
 2068TIP3    H227620   1.504   1.185  15.042  0.6333  0.3137 -1.1949
 2069TIP3   OH227621   2.263   3.323  15.426  0.4314 -0.1101 -0.5717
 2069TIP3    H127622   2.201   3.395  15.432  2.6872  1.8619 -0.4491
 2069TIP3    H227623   2.226   3.264  15.360 -1.8320  0.7357 -0.0722
 2070TIP3   OH227624   4.773   3.161   0.841  0.1064  0.2781 -0.1909
 2070TIP3    H127625   4.765   3.251   0.808 -0.2915  0.2385 -0.2116
 2070TIP3    H227626   4.760   3.170   0.936 -1.1633  0.0976 -0.3314
 2071TIP3   OH227627   5.738   0.778  14.318 -0.7432 -0.1179  0.8948
 2071TIP3    H127628   5.795   0.702  14.309  0.2251  0.7109 -0.0877
 2071TIP3    H227629   5.669   0.750  14.378  0.0918 -1.4821  1.2221
 2072TIP3   OH227630   1.785   0.724   0.286  0.4454  0.5490 -0.0996
 2072TIP3    H127631   1.740   0.716   0.202  0.8837  1.2974 -0.4051
 2072TIP3    H227632   1.877   0.704   0.266  0.5647  0.8065  0.1854
 2073TIP3   OH227633   5.535   3.371   2.261 -0.5290  0.3293 -0.0086
 2073TIP3    H127634   5.529   3.425   2.340 -0.2945  0.3409  0.0036
 2073TIP3    H227635   5.602   3.305   2.283 -1.7199 -0.7532  0.4371
 2074TIP3   OH227636   5.781   5.424  15.013 -0.4719 -0.4734 -0.1204
 2074TIP3    H127637   5.772   5.420  15.109 -1.3723  0.3287 -0.1569
 2074TIP3    H227638   5.708   5.372  14.980 -1.1074  0.5480 -0.3706
 2075TIP3   OH227639   4.318   2.846   2.951 -0.4208 -0.4087  0.0753
 2075TIP3    H127640   4.245   2.789   2.976 -1.1756 -0.2947 -1.7330
 2075TIP3    H227641   4.364   2.796   2.884 -1.6707  1.4644 -2.2696
 2076TIP3   OH227642   1.403   5.467  13.434 -0.9058  0.2668  0.1739
 2076TIP3    H127643   1.376   5.375  13.432  0.4392 -0.1232 -0.7956
 2076TIP3    H227644   1.375   5.502  13.350  1.7675 -0.2168 -0.9662
 2077TIP3   OH227645   3.391   4.204  14.379  0.7058  0.0480  0.9826
 2077TIP3    H127646   3.301   4.187  14.406  0.6157 -0.6199  0.2391
 2077TIP3    H227647   3.444   4.178  14.455  0.1555  2.4390  2.2593
 2078TIP3   OH227648   6.648   2.405  16.582  0.1343  0.1714 -0.8025
 2078TIP3    H127649   6.604   2.384  16.664  0.2376  0.9474 -0.5483
 2078TIP3    H227650   6.583   2.454  16.532  0.5377  0.8801 -0.6316
 2079TIP3   OH227651   4.782   3.916  10.873 -0.0582 -0.0483 -0.1824
 2079TIP3    H127652   4.695   3.957  10.875 -0.5677 -0.9849 -2.0542
 2079TIP3    H227653   4.773   3.841  10.932  0.1411  1.0844  1.3149
 2080TIP3   OH227654   0.258   6.391  15.443 -0.4371 -0.5727 -0.0969
 2080TIP3    H127655   0.180   6.335  15.446 -0.9313  0.0492 -1.1805
 2080TIP3    H227656   0.250   6.439  15.361  1.5057 -1.0934 -0.6015
 2081TIP3   OH227657   1.152   2.485   3.303  0.3607  0.6489  0.3877
 2081TIP3    H127658   1.142   2.518   3.393  2.1799  0.4211  0.6983
 2081TIP3    H227659   1.103   2.403   3.302  1.1779  0.1338  1.4776
 2082TIP3   OH227660   2.501   1.747   3.851 -0.1543 -0.3212  0.5406
 2082TIP3    H127661   2.463   1.659   3.843 -1.5928  0.1388  1.9948
 2082TIP3    H227662   2.548   1.745   3.934  0.8470 -0.0868 -0.0177
 2083TIP3   OH227663   1.514   0.879   5.913 -0.1492 -0.8373 -0.2987
 2083TIP3    H127664   1.442   0.934   5.943 -0.2280 -1.0430 -0.1041
 2083TIP3    H227665   1.557   0.850   5.994  0.1453 -0.7213 -0.4156
 2084TIP3   OH227666   5.911   4.404  16.553  0.0085  0.7919 -0.2886
 2084TIP3    H127667   6.006   4.393  16.549 -0.1585 -1.2492  0.4361
 2084TIP3    H227668   5.878   4.357  16.476 -0.4642  0.5774  0.0391
 2085TIP3   OH227669   1.666   6.589   4.503  0.0065  0.0755 -0.5707
 2085TIP3    H127670   1.633   6.629   4.422  0.5080  1.6716  0.0022
 2085TIP3    H227671   1.628   6.501   4.503 -3.6257  1.5770 -0.3088
 2086TIP3   OH227672   4.318   6.672  10.606  0.1214 -0.6914 -0.3530
 2086TIP3    H127673   4.409   6.665  10.575  0.3497  0.7989 -0.0534
 2086TIP3    H227674   4.268   6.697  10.528  0.1800 -0.2181 -0.2419
 2087TIP3   OH227675   0.493   6.170   5.303 -0.5489  0.0242  0.0221
 2087TIP3    H127676   0.495   6.224   5.224  0.2210 -0.6007 -0.3893
 2087TIP3    H227677   0.477   6.232   5.374  1.1615  0.9139 -0.3466
 2088TIP3   OH227678   3.642   2.962   4.037 -0.2071  0.1381 -0.0323
 2088TIP3    H127679   3.622   3.046   4.080  0.5607 -0.4401  1.4883
 2088TIP3    H227680   3.643   2.983   3.944 -0.0340  1.8236  0.3220
 2089TIP3   OH227681   2.244   6.654   0.595  0.0789 -0.0341  0.8103
 2089TIP3    H127682   2.182   6.602   0.645  0.5975  0.0447  1.5475
 2089TIP3    H227683   2.203   6.740   0.588 -0.8993 -0.6075 -0.6402
 2090TIP3   OH227684   4.960   2.904   3.769  0.7418  0.3290 -0.7242
 2090TIP3    H127685   4.912   2.925   3.689 -2.4814 -0.6279  0.9014
 2090TIP3    H227686   5.000   2.987   3.795 -1.5876  1.6201 -1.0984
 2091TIP3   OH227687   5.734   1.232  12.059  0.2408 -0.0779 -1.0053
 2091TIP3    H127688   5.743   1.212  12.152  1.6235 -1.9398 -1.5219
 2091TIP3    H227689   5.821   1.263  12.033 -0.7931  2.9082 -1.1439
 2092TIP3   OH227690   1.923   1.103  15.642 -0.0227  0.1111 -0.4914
 2092TIP3    H127691   1.853   1.163  15.668  0.0046  0.3289 -0.9148
 2092TIP3    H227692   1.942   1.126  15.551  1.0570  0.5063 -0.1811
 2093TIP3   OH227693   4.873   2.357  13.566  0.0125 -0.0222 -0.0140
 2093TIP3    H127694   4.805   2.314  13.514  1.1800 -3.0571  0.8964
 2093TIP3    H227695   4.942   2.377  13.503  0.7635 -2.3058  0.0377
 2094TIP3   OH227696   5.727   4.304  15.629  0.1077 -0.3294 -0.0754
 2094TIP3    H127697   5.760   4.227  15.676  1.2444 -0.0641 -0.4359
 2094TIP3    H227698   5.633   4.304  15.647  0.2852 -1.1303  0.8996
 2095TIP3   OH227699   6.023   5.279   0.334 -0.5248 -0.1016 -0.4067
 2095TIP3    H127700   5.986   5.191   0.331 -0.1569 -0.2599 -0.3654
 2095TIP3    H227701   6.085   5.276   0.408 -1.0322  0.3941  0.0382
 2096TIP3   OH227702   1.278   0.551   5.773 -0.2069 -0.4111  0.4489
 2096TIP3    H127703   1.268   0.507   5.857  0.0682 -0.9329  0.2114
 2096TIP3    H227704   1.365   0.590   5.777  0.0903 -1.0262  0.1405
 2097TIP3   OH227705   6.207   0.811   3.539  1.2997  0.0348 -0.3382
 2097TIP3    H127706   6.237   0.732   3.584 -0.5026 -1.3492 -1.4975
 2097TIP3    H227707   6.113   0.814   3.557  1.1294  1.1930 -1.4159
 2098TIP3   OH227708   0.556   0.313   3.828 -0.0964  0.2267  0.3013
 2098TIP3    H127709   0.481   0.254   3.818  0.8898 -1.0699  0.5568
 2098TIP3    H227710   0.587   0.298   3.917  1.9025 -0.9475 -0.5609
 2099TIP3   OH227711   1.877   5.242   3.568 -0.2716  0.1289  0.1439
 2099TIP3    H127712   1.814   5.249   3.640 -0.8949 -0.9251 -0.2797
 2099TIP3    H227713   1.963   5.246   3.610 -0.6356 -0.2470  0.9222
 2100TIP3   OH227714   4.272   4.472  12.458 -0.1272  0.1717  0.0338
 2100TIP3    H127715   4.341   4.486  12.393 -0.7957  2.1830 -0.2664
 2100TIP3    H227716   4.274   4.550  12.514 -0.2495 -1.0681  1.8122
 2101TIP3   OH227717   0.400   5.005  10.956  0.5181  0.0133 -0.1583
 2101TIP3    H127718   0.338   4.969  10.893  0.0861  0.6241 -0.0848
 2101TIP3    H227719   0.356   4.998  11.041  0.4506  0.6520 -0.1353
 2102TIP3   OH227720   5.495   6.472  13.284  0.6721 -0.3516 -0.0007
 2102TIP3    H127721   5.440   6.539  13.244 -0.3335  0.1484  2.1137
 2102TIP3    H227722   5.458   6.389  13.253 -0.2357  0.0242  0.0423
 2103TIP3   OH227723   2.035   3.798  15.068 -0.0451  0.3859 -0.4969
 2103TIP3    H127724   2.011   3.873  15.123 -1.6502 -0.8024  0.4697
 2103TIP3    H227725   1.951   3.761  15.041  0.7343 -1.0701 -0.9448
 2104TIP3   OH227726   6.409   4.552  12.625  0.2078 -0.4960  0.2700
 2104TIP3    H127727   6.353   4.514  12.693  0.9297  0.3177  1.3157
 2104TIP3    H227728   6.356   4.623  12.588  0.8819  0.8765  1.8840
 2105TIP3   OH227729   0.649   4.646   0.236 -0.0532 -0.0893 -1.1535
 2105TIP3    H127730   0.697   4.718   0.279  0.0869 -0.5813 -0.4756
 2105TIP3    H227731   0.580   4.624   0.298 -1.0376  0.4720 -2.0322
 2106TIP3   OH227732   2.572   1.148   0.180 -0.0430  0.0781  0.1121
 2106TIP3    H127733   2.511   1.222   0.182  0.5972  0.7144 -2.1050
 2106TIP3    H227734   2.619   1.158   0.098  2.4399 -0.9264  1.3624
 2107TIP3   OH227735   0.609   3.782  11.306 -0.4353  0.0175 -0.4603
 2107TIP3    H127736   0.647   3.856  11.259  1.3288 -0.6176 -0.0627
 2107TIP3    H227737   0.557   3.736  11.240 -2.0233  1.9005 -0.5770
 2108TIP3   OH227738   2.186   3.916   0.386  0.0968  0.2756 -0.1467
 2108TIP3    H127739   2.201   3.936   0.293 -1.7925  0.9753 -0.3263
 2108TIP3    H227740   2.273   3.920   0.426  0.9312 -0.0483 -1.8908
 2109TIP3   OH227741   1.784   3.210  14.612 -0.5942 -0.6072  0.1373
 2109TIP3    H127742   1.855   3.238  14.670  0.4918 -1.1810 -0.9068
 2109TIP3    H227743   1.755   3.291  14.570  0.4968 -0.5936 -0.6035
 2110TIP3   OH227744   3.369   1.233  15.407 -0.0795 -0.2576  0.1761
 2110TIP3    H127745   3.398   1.212  15.318  0.2592 -1.7571  0.6194
 2110TIP3    H227746   3.302   1.300  15.395 -0.0329 -0.4336 -1.2080
 2111TIP3   OH227747   6.103   3.853  15.623  0.0730 -0.2146 -0.8469
 2111TIP3    H127748   6.072   3.832  15.534 -0.4889 -2.3131 -0.1815
 2111TIP3    H227749   6.191   3.816  15.627 -0.0313 -0.4231 -0.4357
 2112TIP3   OH227750   1.984   6.075   3.565 -0.2370  0.6657  0.4918
 2112TIP3    H127751   2.011   6.017   3.636  0.6599 -0.6048 -0.8729
 2112TIP3    H227752   1.929   6.021   3.509  1.8293  0.6961 -1.5963
 2113TIP3   OH227753   5.964   3.157   1.656  0.2919  0.5280 -0.7673
 2113TIP3    H127754   5.981   3.222   1.724 -2.0983  2.3322 -1.7925
 2113TIP3    H227755   5.930   3.081   1.703  0.8015  0.9232  0.2526
 2114TIP3   OH227756   6.093   4.692  12.093 -0.0764 -0.1435  0.0572
 2114TIP3    H127757   6.099   4.613  12.039 -0.2744  0.0599 -0.2656
 2114TIP3    H227758   6.175   4.694  12.143 -0.7173 -1.3472  1.1704
 2115TIP3   OH227759   5.672   2.354  12.826 -0.3238 -0.1588  0.1034
 2115TIP3    H127760   5.597   2.398  12.786 -0.5755 -2.0555 -1.5794
 2115TIP3    H227761   5.676   2.389  12.915 -1.7996  1.6536 -0.5157
 2116TIP3   OH227762   2.865   1.571  13.689 -0.2614  0.2030 -0.2875
 2116TIP3    H127763   2.822   1.571  13.604  1.0485 -2.2320 -0.9780
 2116TIP3    H227764   2.958   1.585  13.669  0.0772 -0.5395  0.7111
 2117TIP3   OH227765   2.194   0.580   0.065 -0.1348 -0.2804  0.1332
 2117TIP3    H127766   2.239   0.531   0.133 -2.4389 -1.3113  0.9550
 2117TIP3    H227767   2.262   0.601   0.001  1.9682  0.3215  2.5012
 2118TIP3   OH227768   2.565   6.092   1.287 -0.7069 -0.7085 -0.3430
 2118TIP3    H127769   2.488   6.149   1.287  0.3378  0.7258 -0.7133
 2118TIP3    H227770   2.573   6.064   1.379  0.0265  1.5066  0.3090
 2119TIP3   OH227771   3.952   4.134  10.771 -0.1395 -0.3424  0.1124
 2119TIP3    H127772   3.990   4.213  10.733  0.5435 -2.0293 -2.8286
 2119TIP3    H227773   3.859   4.137  10.747 -0.4260  0.2783  1.2669
 2120TIP3   OH227774   1.099   5.175  11.373 -0.3498  0.2994 -0.4830
 2120TIP3    H127775   1.176   5.118  11.367 -0.8574 -0.6721  1.8659
 2120TIP3    H227776   1.087   5.207  11.284  2.4481  0.0415 -1.0091
 2121TIP3   OH227777   0.041   5.664   4.929 -0.0699 -0.1751  0.1049
 2121TIP3    H127778   0.007   5.753   4.930  1.9668  0.6784 -2.1079
 2121TIP3    H227779  -0.032   5.611   4.896 -1.5277  0.5332  2.1143
 2122TIP3   OH227780   4.307   0.793   0.495 -0.2179 -0.1170 -0.1588
 2122TIP3    H127781   4.254   0.729   0.543  0.0763 -0.4958 -0.3335
 2122TIP3    H227782   4.299   0.874   0.545  1.4324 -0.9192  1.4338
 2123TIP3   OH227783   5.962   5.711  12.706  0.1619  0.0930 -0.1687
 2123TIP3    H127784   5.894   5.757  12.657 -0.5494 -1.2724 -0.4940
 2123TIP3    H227785   6.007   5.658  12.640 -0.2856 -1.1460  0.5083
 2124TIP3   OH227786   6.062   0.623   0.057 -0.0231 -0.9626 -0.4128
 2124TIP3    H127787   6.009   0.575  -0.007 -1.2761  1.4313 -1.2544
 2124TIP3    H227788   6.012   0.621   0.138 -0.8073  0.1627 -0.8532
 2125TIP3   OH227789   5.043   5.599  16.507  0.3896 -0.1365 -0.2069
 2125TIP3    H127790   5.134   5.628  16.501  0.0707  0.5944 -1.6330
 2125TIP3    H227791   5.032   5.536  16.436  0.0359 -0.9146  0.5311
 2126TIP3   OH227792   1.648   2.721  15.759  0.2785 -0.4325  0.3945
 2126TIP3    H127793   1.671   2.797  15.707 -4.0291  0.9668  0.3623
 2126TIP3    H227794   1.641   2.754  15.848  1.0847 -1.4184  0.8374
 2127TIP3   OH227795   1.191   1.274   0.262  0.4338 -0.3298 -0.3251
 2127TIP3    H127796   1.240   1.312   0.335  0.5571 -1.2732  0.0844
 2127TIP3    H227797   1.251   1.210   0.224  0.4861  0.3671 -1.4552
 2128TIP3   OH227798   3.001   4.484   4.425  0.5866 -0.1690 -0.1020
 2128TIP3    H127799   2.906   4.495   4.419  0.1709 -3.2015 -0.2357
 2128TIP3    H227800   3.031   4.484   4.334  0.8486  1.6836 -0.0227
 2129TIP3   OH227801   3.528   2.258  11.110 -0.2594  0.3589  0.3401
 2129TIP3    H127802   3.558   2.237  11.199 -1.0768  1.8149  0.9840
 2129TIP3    H227803   3.608   2.282  11.063 -0.1642  2.9243  1.6747
 2130TIP3   OH227804   1.377   5.433   0.200 -0.6470 -0.0986 -0.1241
 2130TIP3    H127805   1.463   5.396   0.180 -1.6828 -2.9352  0.4181
 2130TIP3    H227806   1.393   5.494   0.273  0.8814 -0.7178  0.0745
 2131TIP3   OH227807   1.959   6.730  13.039 -0.1608 -0.1374 -0.2289
 2131TIP3    H127808   1.876   6.723  13.086  0.4517  1.3192  1.1020
 2131TIP3    H227809   1.958   6.818  13.001  0.9099  0.0229  0.0868
 2132TIP3   OH227810   3.248   4.788   0.574  0.5342 -0.2100  0.1113
 2132TIP3    H127811   3.281   4.702   0.551  0.9656  0.2767 -1.1217
 2132TIP3    H227812   3.162   4.771   0.612  2.3043 -1.5044  3.6832
 2133TIP3   OH227813   5.966   0.787   2.205 -0.8453  0.0309  0.1027
 2133TIP3    H127814   5.984   0.696   2.183 -0.8407  0.9637 -4.1043
 2133TIP3    H227815   5.871   0.790   2.218 -1.0622 -0.2907 -1.3377
 2134TIP3   OH227816   5.825   3.791   0.434  0.0047 -0.1495  0.0884
 2134TIP3    H127817   5.864   3.730   0.496  0.1114 -0.5468 -0.3733
 2134TIP3    H227818   5.885   3.793   0.360 -0.5698 -0.3389 -0.3846
 2135TIP3   OH227819   0.000   6.005   1.530 -0.0422 -0.8678  0.1989
 2135TIP3    H127820   0.053   5.936   1.571  0.8398 -0.3755 -0.1084
 2135TIP3    H227821   0.061   6.050   1.471 -0.7855 -0.2454 -0.0925
 2136TIP3   OH227822   2.018   1.799  11.144  0.0850 -0.0436  0.3780
 2136TIP3    H127823   2.105   1.789  11.183 -0.1225 -1.3122  0.5287
 2136TIP3    H227824   2.034   1.792  11.050  0.0127 -1.2707  0.4561
 2137TIP3   OH227825   0.063   2.424   2.452  0.2938  1.1005 -0.4502
 2137TIP3    H127826  -0.025   2.443   2.485 -0.0155 -2.1412  0.7753
 2137TIP3    H227827   0.122   2.468   2.513 -0.3843 -1.9106  2.5166
 2138TIP3   OH227828   5.740   3.252   2.889  0.4754 -0.3837  0.0450
 2138TIP3    H127829   5.762   3.306   2.813 -0.1153 -0.4538 -0.1735
 2138TIP3    H227830   5.652   3.219   2.871  0.9502 -1.6769  0.0263
 2139TIP3   OH227831   4.115   6.643  12.849 -0.7750  0.0639  0.4583
 2139TIP3    H127832   4.091   6.632  12.757 -0.9198 -4.0596  0.8933
 2139TIP3    H227833   4.161   6.561  12.872 -0.3548  1.1783  3.9239
 2140TIP3   OH227834   3.651   5.458   4.507 -0.2591  0.3964 -0.0843
 2140TIP3    H127835   3.692   5.377   4.536 -1.0580 -0.5881 -1.6404
 2140TIP3    H227836   3.575   5.469   4.564  0.3168  0.5096  0.6747
 2141TIP3   OH227837   1.516   2.574  15.308  0.1103 -0.4433  0.4112
 2141TIP3    H127838   1.434   2.622  15.311  0.6404  0.6372 -1.4629
 2141TIP3    H227839   1.525   2.535  15.395 -1.7461  0.4752  1.0265
 2142TIP3   OH227840   2.682   5.120   3.492  0.0983  0.0095  0.6881
 2142TIP3    H127841   2.768   5.079   3.503 -0.0929 -0.8254 -0.7723
 2142TIP3    H227842   2.701   5.202   3.447  0.4886  1.6176  3.6735
 2143TIP3   OH227843   5.593   3.342   5.862 -0.3147  0.3735 -0.1807
 2143TIP3    H127844   5.649   3.419   5.870 -0.2602  0.5604 -2.0468
 2143TIP3    H227845   5.640   3.274   5.910 -0.4185  1.5130  1.5737
 2144TIP3   OH227846   0.338   1.509   1.440  0.1506 -0.3665 -0.0566
 2144TIP3    H127847   0.302   1.598   1.447 -0.8654 -0.6329 -1.6044
 2144TIP3    H227848   0.411   1.517   1.379 -1.3633 -0.9482 -2.0386
 2145TIP3   OH227849   1.569   5.547   4.702  0.5907  0.2611  0.3420
 2145TIP3    H127850   1.558   5.630   4.748 -0.3293 -0.1814  0.9377
 2145TIP3    H227851   1.664   5.535   4.697  0.7397  1.4826 -0.0144
 2146TIP3   OH227852   3.271   4.081  15.795  0.0080  0.2957 -0.1025
 2146TIP3    H127853   3.195   4.025  15.812  0.6758 -0.7668 -0.5198
 2146TIP3    H227854   3.290   4.067  15.702  2.0073 -1.1309  0.4847
 2147TIP3   OH227855   1.271   4.660  14.088 -0.1100  0.3158 -0.4568
 2147TIP3    H127856   1.223   4.583  14.117  1.3447 -0.1776  0.7207
 2147TIP3    H227857   1.313   4.633  14.006 -1.2193  0.5071 -1.0892
 2148TIP3   OH227858   4.656   3.565   5.917 -0.1768 -0.3998 -0.1893
 2148TIP3    H127859   4.602   3.608   5.851 -0.1022  1.0255  0.6653
 2148TIP3    H227860   4.742   3.606   5.907 -0.1803 -0.1430  0.8245
 2149TIP3   OH227861   6.786   6.030   3.386 -0.0602  0.0831  0.8467
 2149TIP3    H127862   6.747   5.996   3.466 -0.8275 -0.6865  0.1596
 2149TIP3    H227863   6.731   6.104   3.362 -0.8368 -0.7174  0.1292
 2150TIP3   OH227864   6.031   6.046   3.236 -0.5784 -0.2951  0.5878
 2150TIP3    H127865   5.968   6.027   3.305 -1.9481  1.8120 -0.0191
 2150TIP3    H227866   6.079   6.123   3.267  1.4577 -1.6544  0.8676
 2151TIP3   OH227867   3.163   0.252   0.238  0.0754 -0.7805 -0.0405
 2151TIP3    H127868   3.196   0.181   0.184  0.9858  0.8042 -1.6071
 2151TIP3    H227869   3.077   0.222   0.267  1.1565 -3.2441  0.7605
 2152TIP3   OH227870   4.397   2.893   1.418  0.5279 -0.3006  0.3945
 2152TIP3    H127871   4.423   2.821   1.476 -1.7286 -1.4019  0.0737
 2152TIP3    H227872   4.320   2.860   1.371 -0.6044  2.3571  0.3003
 2153TIP3   OH227873   0.914   4.956  14.490  0.2005 -0.4472  0.2604
 2153TIP3    H127874   0.829   4.960  14.445  0.9278  0.7094 -1.0468
 2153TIP3    H227875   0.974   4.918  14.426  1.1559  0.8392  0.3626
 2154TIP3   OH227876   5.299   0.070  14.053  0.0016 -0.9482 -0.4748
 2154TIP3    H127877   5.357   0.098  14.124 -0.9303 -0.4676  0.1071
 2154TIP3    H227878   5.233   0.140  14.047  0.0327 -1.0252 -1.7603
 2155TIP3   OH227879   2.808   2.335   3.775 -0.2667  0.2576 -0.6386
 2155TIP3    H127880   2.792   2.241   3.781 -0.0184  0.1133 -2.1197
 2155TIP3    H227881   2.891   2.348   3.822 -0.3985 -0.2368 -0.2658
 2156TIP3   OH227882   0.844   5.783  10.570  0.6039  0.0101  0.1535
 2156TIP3    H127883   0.806   5.747  10.650  1.7802 -2.2048 -0.2360
 2156TIP3    H227884   0.866   5.706  10.517  2.1071  1.3431 -1.2216
 2157TIP3   OH227885   4.431   2.502   3.346  0.1292 -0.0546 -0.2511
 2157TIP3    H127886   4.455   2.441   3.416  2.1283  0.3424 -0.5591
 2157TIP3    H227887   4.361   2.556   3.384 -0.3853 -1.3348  0.6444
 2158TIP3   OH227888   6.749   1.510   3.874  0.0096 -0.2905 -0.2740
 2158TIP3    H127889   6.734   1.605   3.882  1.3825 -0.0480 -0.5430
 2158TIP3    H227890   6.690   1.482   3.804  1.3880  0.7950 -1.8870
 2159TIP3   OH227891   1.527   4.687   1.379 -0.1999 -0.1072 -0.5782
 2159TIP3    H127892   1.439   4.651   1.373 -0.7447  0.8433  1.3178
 2159TIP3    H227893   1.556   4.695   1.288 -1.6704 -1.3614 -1.1745
 2160TIP3   OH227894   1.324   6.152   6.347  0.2373 -0.6514  0.1210
 2160TIP3    H127895   1.335   6.074   6.402  0.5627 -0.5472  0.2061
 2160TIP3    H227896   1.249   6.132   6.292  0.1271 -0.9003  0.3598
 2161TIP3   OH227897   3.655   3.705   4.722 -0.7711 -0.3403  0.1463
 2161TIP3    H127898   3.598   3.640   4.763  0.3918 -1.7282 -0.4026
 2161TIP3    H227899   3.690   3.755   4.796 -1.9114 -0.1291  0.5515
 2162TIP3   OH227900   4.517   1.204   2.651  0.2766 -0.3206  0.1525
 2162TIP3    H127901   4.514   1.108   2.656  0.7479 -0.2865  1.1189
 2162TIP3    H227902   4.609   1.225   2.643  0.1616  0.0525 -0.1908
 2163TIP3   OH227903   6.063   5.320  15.842 -0.2246  0.1226 -0.2561
 2163TIP3    H127904   6.149   5.343  15.809 -0.7398  3.5921  0.6052
 2163TIP3    H227905   6.081   5.269  15.921  1.0335 -0.5885 -0.9951
 2164TIP3   OH227906   4.222   3.115  12.195 -0.2925  0.3982 -0.0969
 2164TIP3    H127907   4.149   3.085  12.248  2.0477 -2.0970  1.8449
 2164TIP3    H227908   4.261   3.186  12.246  0.6178 -0.5049  0.4753
 2165TIP3   OH227909   2.021   3.510   5.824  0.5560 -0.3990 -0.4544
 2165TIP3    H127910   1.988   3.597   5.803  0.1922 -0.5351 -0.4541
 2165TIP3    H227911   1.942   3.456   5.834  0.7089 -0.3738  1.0989
 2166TIP3   OH227912   0.727   6.158   3.413 -0.3270  0.0089  0.0273
 2166TIP3    H127913   0.669   6.225   3.449 -1.8614 -0.3637 -1.6285
 2166TIP3    H227914   0.814   6.198   3.413 -1.1761  1.9389 -0.7163
 2167TIP3   OH227915   5.070   6.635   4.746  0.5053 -0.0662  0.4878
 2167TIP3    H127916   5.092   6.621   4.838  1.7689 -2.6156 -0.1537
 2167TIP3    H227917   5.122   6.711   4.720  0.3067  0.5339  1.8308
 2168TIP3   OH227918   4.505   1.126  17.238 -0.3645 -0.0128  0.2645
 2168TIP3    H127919   4.574   1.062  17.223 -0.8071 -0.8372  1.6437
 2168TIP3    H227920   4.552   1.207  17.258  0.2043  0.4369 -2.7282
 2169TIP3   OH227921   3.040   3.604   4.560  0.3869 -0.4223 -0.2520
 2169TIP3    H127922   2.985   3.647   4.495  0.6170 -0.3087 -0.3749
 2169TIP3    H227923   2.994   3.615   4.643 -0.8770 -2.2616 -0.6830
 2170TIP3   OH227924   2.191   0.372   3.441  0.0410 -0.0373  0.1696
 2170TIP3    H127925   2.250   0.297   3.437  1.6270  1.2050 -0.3602
 2170TIP3    H227926   2.243   0.442   3.481 -0.8646  1.2847 -0.9112
 2171TIP3   OH227927   1.859   2.194   2.595 -0.3490  0.4699 -0.1084
 2171TIP3    H127928   1.770   2.217   2.624 -1.3454 -1.2739 -1.6733
 2171TIP3    H227929   1.883   2.120   2.650  0.8284  1.9738  1.4468
 2172TIP3   OH227930   0.879   3.575   0.419 -0.2215 -0.0342  0.6036
 2172TIP3    H127931   0.920   3.542   0.499  0.1261 -0.4505  0.2612
 2172TIP3    H227932   0.929   3.653   0.397 -1.1187  0.7862  1.4804
 2173TIP3   OH227933   0.919   1.464  14.379  0.2038 -0.2008 -0.6985
 2173TIP3    H127934   0.829   1.464  14.346 -0.0190 -1.8096 -0.1406
 2173TIP3    H227935   0.916   1.519  14.457 -0.4697 -0.8161 -0.2795
 2174TIP3   OH227936   1.040   1.720  12.981 -0.5003 -0.6171  0.0652
 2174TIP3    H127937   1.101   1.718  12.907 -0.8587  1.1957 -0.3336
 2174TIP3    H227938   0.955   1.703  12.941 -0.4863 -1.2905  0.3244
 2175TIP3   OH227939   3.344   0.210   6.699 -0.5203  0.0102  0.7074
 2175TIP3    H127940   3.372   0.155   6.772  0.6738  0.1852  0.3893
 2175TIP3    H227941   3.390   0.174   6.623 -0.7301  0.6480  0.2793
 2176TIP3   OH227942   0.362   5.126  13.547  0.8027 -0.0148 -0.4774
 2176TIP3    H127943   0.392   5.041  13.579  1.7996 -0.2496 -1.9684
 2176TIP3    H227944   0.377   5.186  13.620 -0.5462 -1.2290  0.8265
 2177TIP3   OH227945   0.846   2.279   3.710 -0.0097  0.7147  0.0439
 2177TIP3    H127946   0.871   2.187   3.695  0.1347  0.6258  0.7999
 2177TIP3    H227947   0.775   2.274   3.773  0.0952  1.1371  0.1904
 2178TIP3   OH227948   1.275   2.473   2.660 -0.6613  0.0085  0.2377
 2178TIP3    H127949   1.288   2.500   2.569  2.4855  0.4200  0.7694
 2178TIP3    H227950   1.321   2.539   2.712  1.5175 -2.6936  1.8961
 2179TIP3   OH227951   3.041   1.601   3.092 -0.7308 -0.3835  0.5784
 2179TIP3    H127952   2.992   1.624   3.171 -1.5839 -0.7658  0.1673
 2179TIP3    H227953   3.005   1.658   3.024  1.0981  1.0889  0.7872
 2180TIP3   OH227954   1.980   5.083  11.725 -0.2249 -0.3494  0.1156
 2180TIP3    H127955   1.954   4.991  11.716  0.5797 -0.5950  0.2941
 2180TIP3    H227956   1.997   5.094  11.819  0.3033 -0.1836 -0.0002
 2181TIP3   OH227957   5.201   2.249  15.830  0.2954 -0.2003 -0.3098
 2181TIP3    H127958   5.123   2.196  15.840  0.9459 -1.3467 -1.2170
 2181TIP3    H227959   5.204   2.271  15.736  0.8570  0.1514 -0.2160
 2182TIP3   OH227960   5.792   5.878  12.562  0.4816  0.6264 -0.5035
 2182TIP3    H127961   5.850   5.947  12.595 -0.4254  0.9073  0.5553
 2182TIP3    H227962   5.825   5.859  12.474  1.8515  1.1458 -0.1266
 2183TIP3   OH227963   1.646   4.746   3.474 -0.5077  0.1564 -0.1556
 2183TIP3    H127964   1.690   4.717   3.394 -2.0926  0.3911 -1.1236
 2183TIP3    H227965   1.663   4.840   3.478  2.0247 -0.3017  1.3598
 2184TIP3   OH227966   2.075   2.289   1.719 -0.1160  0.5090  0.0291
 2184TIP3    H127967   2.092   2.383   1.711 -1.2612  0.7673  0.6342
 2184TIP3    H227968   2.157   2.248   1.690 -0.0934  1.6582 -1.5792
 2185TIP3   OH227969   6.414   2.142  14.543 -0.0287 -0.1488  0.5781
 2185TIP3    H127970   6.399   2.183  14.629  0.1266 -0.1299  0.5967
 2185TIP3    H227971   6.503   2.168  14.519 -0.3310  0.4414  0.0812
 2186TIP3   OH227972   1.416   5.710  15.768  0.0750  0.2450 -0.0122
 2186TIP3    H127973   1.505   5.695  15.736 -0.4125 -1.0497 -0.7734
 2186TIP3    H227974   1.366   5.734  15.690 -0.3486  0.5535  0.3475
 2187TIP3   OH227975   4.875   0.439   4.997  0.3755  0.4698 -0.2533
 2187TIP3    H127976   4.864   0.388   4.917 -2.2904 -1.7122  1.4131
 2187TIP3    H227977   4.939   0.390   5.048 -1.0121 -0.3890  0.6836
 2188TIP3   OH227978   4.820   1.052  16.684  0.0244  0.0138 -0.1146
 2188TIP3    H127979   4.758   1.124  16.681  0.5993  0.4907 -0.6251
 2188TIP3    H227980   4.900   1.087  16.646 -0.3001 -1.4773 -2.2638
 2189TIP3   OH227981   1.126   2.833   2.875 -0.0405  0.3301  0.4373
 2189TIP3    H127982   1.087   2.786   2.801 -0.7382  2.1604 -0.4014
 2189TIP3    H227983   1.122   2.771   2.947 -0.2647 -1.1454 -0.8091
 2190TIP3   OH227984   4.674   5.500   1.139  0.2916 -0.0897  0.3048
 2190TIP3    H127985   4.736   5.464   1.076  0.1103 -0.7106  0.4724
 2190TIP3    H227986   4.718   5.577   1.175  1.2725 -0.9405  0.9510
 2191TIP3   OH227987   6.182   2.431  15.844  0.1560  0.0359 -0.4172
 2191TIP3    H127988   6.207   2.510  15.796 -1.0835  1.9890  2.0504
 2191TIP3    H227989   6.091   2.415  15.818 -0.2230  0.5636  0.5901
 2192TIP3   OH227990   1.445   2.250   5.134 -0.7396 -0.0365 -0.2999
 2192TIP3    H127991   1.425   2.302   5.211 -0.9746  1.7038 -1.5008
 2192TIP3    H227992   1.533   2.278   5.108  0.0637 -1.8644  0.3073
 2193TIP3   OH227993   5.747   3.063  11.957  0.0111  0.4088  0.1224
 2193TIP3    H127994   5.717   3.084  12.045  2.2592 -0.1853  1.0696
 2193TIP3    H227995   5.784   3.145  11.924  0.5059  0.2517  0.2928
 2194TIP3   OH227996   4.458   2.586  10.567 -0.7187 -0.1920  0.6368
 2194TIP3    H127997   4.485   2.498  10.593 -0.2063 -0.2561 -0.0954
 2194TIP3    H227998   4.522   2.644  10.609  0.3941 -0.3239 -0.8237
 2195TIP3   OH227999   2.206   1.043   2.640 -0.3206 -0.3697 -0.2199
 2195TIP3    H128000   2.176   1.112   2.580  0.7295  0.5426  0.2726
 2195TIP3    H228001   2.133   0.982   2.645 -0.8128  0.0662 -1.6396
 2196TIP3   OH228002   6.658   3.562  12.354  0.1797  0.4377 -0.2049
 2196TIP3    H128003   6.678   3.543  12.446  1.6009 -0.6770 -0.7329
 2196TIP3    H228004   6.587   3.501  12.332 -1.0096  1.5357  0.4741
 2197TIP3   OH228005   6.639   5.124  13.257 -0.0419 -0.2464  0.4112
 2197TIP3    H128006   6.654   5.076  13.176  0.0885 -0.3943  0.5247
 2197TIP3    H228007   6.725   5.126  13.300 -0.2578 -0.7502  0.8703
 2198TIP3   OH228008   2.266   1.520   5.260  0.3831  0.3390  0.0260
 2198TIP3    H128009   2.228   1.496   5.345  1.5984  2.3683  1.1876
 2198TIP3    H228010   2.204   1.487   5.195 -0.5040 -1.3630  1.7031
 2199TIP3   OH228011   2.026   3.294  11.330  0.2087 -0.1571  0.6161
 2199TIP3    H128012   1.953   3.329  11.279 -0.0767 -1.1901  0.2968
 2199TIP3    H228013   2.077   3.243  11.268  1.2733  0.6565  0.8222
 2200TIP3   OH228014   6.732   4.316  10.839 -0.5873 -0.5483  0.3544
 2200TIP3    H128015   6.701   4.255  10.772 -0.3519  0.7227 -0.9331
 2200TIP3    H228016   6.699   4.401  10.812  1.0359  0.2800  0.8665
 2201TIP3   OH228017   0.225   4.706   6.030 -0.2333 -0.5422 -0.3548
 2201TIP3    H128018   0.186   4.700   6.118 -1.1948  0.2083 -0.7213
 2201TIP3    H228019   0.316   4.733   6.047 -0.4302 -0.3313  0.4099
 2202TIP3   OH228020   4.209   1.119   0.062 -0.0322 -0.0553 -0.8537
 2202TIP3    H128021   4.291   1.167   0.046  0.0468 -0.0397 -0.4097
 2202TIP3    H228022   4.220   1.082   0.149  0.2419 -1.5621 -1.5040
 2203TIP3   OH228023   2.836   2.543  14.669 -0.0562  0.0816 -0.1180
 2203TIP3    H128024   2.825   2.458  14.628  1.0502  0.2623 -0.8162
 2203TIP3    H228025   2.831   2.525  14.763  0.5782 -0.8233 -0.2461
 2204TIP3   OH228026   5.099   1.927  15.116  0.3962 -0.2332 -0.0042
 2204TIP3    H128027   5.093   1.969  15.030  0.2536 -0.7661 -0.2575
 2204TIP3    H228028   5.036   1.855  15.112 -0.1933  0.2216  0.8268
 2205TIP3   OH228029   0.658   0.920  13.705  0.2034  0.2168  0.2073
 2205TIP3    H128030   0.723   0.928  13.776  1.5117  1.1566 -1.0720
 2205TIP3    H228031   0.671   0.831  13.672  2.0186  0.9396 -1.1233
 2206TIP3   OH228032   1.150   2.750  15.842 -0.2077  0.6944 -0.9483
 2206TIP3    H128033   1.081   2.755  15.908 -0.0001 -0.7672 -0.6083
 2206TIP3    H228034   1.217   2.812  15.873  1.5058 -2.5723  2.1801
 2207TIP3   OH228035   2.382   4.559   3.511  0.0866  0.1551  0.2921
 2207TIP3    H128036   2.381   4.650   3.480  0.8594  0.2918  0.6624
 2207TIP3    H228037   2.384   4.507   3.430  0.2010  0.4792  0.0818
 2208TIP3   OH228038   2.779   6.204   0.551  0.2846 -0.7881  0.6847
 2208TIP3    H128039   2.856   6.184   0.498  1.4059 -0.8200  2.2986
 2208TIP3    H228040   2.735   6.119   0.564 -0.7229 -0.5924 -1.2607
 2209TIP3   OH228041   2.886   3.645  12.772 -0.0327 -0.6367 -0.0624
 2209TIP3    H128042   2.921   3.568  12.728 -0.8098 -0.8036 -0.4040
 2209TIP3    H228043   2.888   3.623  12.866 -0.3921 -1.1333 -0.1691
 2210TIP3   OH228044   0.828   1.326   5.763 -0.0028 -0.0568  0.0736
 2210TIP3    H128045   0.746   1.341   5.716 -0.7902 -0.9653  1.1160
 2210TIP3    H228046   0.873   1.410   5.762 -2.0383  1.1072  1.5307
 2211TIP3   OH228047   2.152   3.130  11.154 -0.2225 -0.1763  0.0569
 2211TIP3    H128048   2.233   3.113  11.107 -0.1096  1.4989 -0.3826
 2211TIP3    H228049   2.090   3.064  11.121  0.6846 -0.8609 -0.2782
 2212TIP3   OH228050   0.410   4.795   5.494  0.1491  0.5736  0.3086
 2212TIP3    H128051   0.344   4.770   5.430 -0.3343 -2.6710  2.0046
 2212TIP3    H228052   0.370   4.867   5.543 -0.2151  1.8050 -1.7146
 2213TIP3   OH228053   5.892   2.377   4.196 -0.0888  0.1416  0.0886
 2213TIP3    H128054   5.846   2.450   4.238  0.3166  0.9185 -0.7856
 2213TIP3    H228055   5.829   2.342   4.134 -1.6512 -2.7222  3.1419
 2214TIP3   OH228056   6.289   6.023   0.216  0.6049 -0.0116 -0.0204
 2214TIP3    H128057   6.358   6.044   0.279  1.1847 -1.2699 -0.2273
 2214TIP3    H228058   6.262   5.935   0.239  2.7050 -1.5734 -3.1813
 2215TIP3   OH228059   5.464   6.447   5.697  0.3568 -0.1027  0.6632
 2215TIP3    H128060   5.538   6.441   5.758  0.1620  0.5438  0.9739
 2215TIP3    H228061   5.478   6.376   5.635  1.1806 -0.0577  0.7894
 2216TIP3   OH228062   0.895   2.089  11.306 -0.2432  0.3044 -0.2373
 2216TIP3    H128063   0.809   2.125  11.325  0.1440  0.6901  0.8206
 2216TIP3    H228064   0.943   2.160  11.263 -0.5247  0.0212 -1.0159
 2217TIP3   OH228065   1.205   3.817  15.428 -0.0895 -1.0776 -0.2387
 2217TIP3    H128066   1.203   3.878  15.354  1.1628 -0.8780 -0.1153
 2217TIP3    H228067   1.246   3.738  15.392  0.8194 -0.8643  0.3243
 2218TIP3   OH228068   2.450   4.785   0.789  0.0568 -0.2953  0.2019
 2218TIP3    H128069   2.541   4.806   0.808  0.2366 -0.6783 -0.2168
 2218TIP3    H228070   2.399   4.839   0.849  0.5501  0.2954  0.0881
 2219TIP3   OH228071   2.951   3.838   3.161 -0.1650 -0.1195  0.2864
 2219TIP3    H128072   2.963   3.871   3.072 -0.9425 -0.9952 -0.1545
 2219TIP3    H228073   2.906   3.754   3.150  1.1370 -0.9809  1.4240
 2220TIP3   OH228074   2.328   6.241   2.588 -0.2751  0.4355 -0.0891
 2220TIP3    H128075   2.274   6.206   2.517 -1.6997  1.9743  0.1974
 2220TIP3    H228076   2.364   6.164   2.631  1.0406 -0.5295 -2.7779
 2221TIP3   OH228077   4.481   3.660  16.169 -0.1220 -0.4199 -0.2404
 2221TIP3    H128078   4.574   3.654  16.191 -0.0204 -0.1077 -0.5760
 2221TIP3    H228079   4.435   3.641  16.251  0.2494  0.5006  0.1782
 2222TIP3   OH228080   4.770   0.128  13.535  0.6757  0.4178 -0.1555
 2222TIP3    H128081   4.753   0.119  13.441 -1.6069 -3.1178  0.4913
 2222TIP3    H228082   4.836   0.062  13.555  0.8286  0.8415  0.7882
 2223TIP3   OH228083   0.447   1.894  12.787  0.4965  0.9540  0.2244
 2223TIP3    H128084   0.377   1.852  12.738  2.7824 -0.8301 -1.5924
 2223TIP3    H228085   0.433   1.988  12.773 -2.2681  0.6888  0.9783
 2224TIP3   OH228086   3.471   5.803   4.123  0.0343 -0.4027  0.3398
 2224TIP3    H128087   3.382   5.831   4.144 -1.3296 -2.8221 -1.9665
 2224TIP3    H228088   3.493   5.739   4.191 -1.0116 -1.6935 -0.4991
 2225TIP3   OH228089   0.689   5.675  10.776 -0.1564 -0.0823 -0.1777
 2225TIP3    H128090   0.626   5.622  10.727  0.6765  0.2127 -1.5931
 2225TIP3    H228091   0.745   5.612  10.819 -0.5974 -0.3476  0.0120
 2226TIP3   OH228092   2.321   3.702  16.744 -0.2388  0.2695  0.4475
 2226TIP3    H128093   2.392   3.705  16.680 -0.0732 -1.3804  0.5452
 2226TIP3    H228094   2.242   3.711  16.691 -0.0995 -1.0332  0.0121
 2227TIP3   OH228095   3.586   6.765  12.697  0.4669  0.8577  0.5876
 2227TIP3    H128096   3.674   6.736  12.672 -0.8377 -2.4560 -0.4788
 2227TIP3    H228097   3.544   6.787  12.614  0.1139  1.9360  1.0474
 2228TIP3   OH228098   5.056   0.146   0.753  0.2754 -0.6345 -0.5038
 2228TIP3    H128099   5.086   0.191   0.832  1.0354 -0.8531 -0.6706
 2228TIP3    H228100   5.077   0.054   0.767 -0.0016 -0.7396 -0.7678
 2229TIP3   OH228101   1.315   3.861  10.787 -0.2970 -0.4008  0.1640
 2229TIP3    H128102   1.386   3.801  10.765 -1.3957 -1.9342  0.7237
 2229TIP3    H228103   1.257   3.810  10.844 -2.3998  0.4677 -1.1426
 2230TIP3   OH228104   2.529   3.426   6.146 -0.0297  0.1966  0.5113
 2230TIP3    H128105   2.451   3.481   6.133  1.1095  1.7677  0.2440
 2230TIP3    H228106   2.516   3.354   6.085 -0.8468  0.9160 -0.1932
 2231TIP3   OH228107   5.836   1.756  16.172 -0.2911  0.2295 -0.0826
 2231TIP3    H128108   5.850   1.702  16.094  1.7170  1.0269 -0.3131
 2231TIP3    H228109   5.876   1.706  16.243  0.7667  0.9518 -0.1432
 2232TIP3   OH228110   5.146   5.641  10.704 -0.0619 -0.2598 -0.1588
 2232TIP3    H128111   5.238   5.630  10.680 -0.1591 -1.9295  0.1556
 2232TIP3    H228112   5.110   5.552  10.702 -1.6748  0.3736 -0.2906
 2233TIP3   OH228113   3.341   6.501   3.542  0.3671  0.0449  0.4727
 2233TIP3    H128114   3.309   6.427   3.593  0.1148  1.0057  1.7178
 2233TIP3    H228115   3.429   6.517   3.575 -0.2074  1.3759  1.4067
 2234TIP3   OH228116   2.095   3.190  15.587  0.0355  0.5822  0.2940
 2234TIP3    H128117   2.176   3.232  15.559  0.8060 -0.4724  0.9023
 2234TIP3    H228118   2.053   3.162  15.505  0.1329  1.3816 -0.0369
 2235TIP3   OH228119   4.069   6.425  12.369  0.4855 -0.1800 -0.2396
 2235TIP3    H128120   4.118   6.437  12.287  1.5444  0.8543  0.5332
 2235TIP3    H228121   4.107   6.346  12.408 -0.2031 -0.8290 -0.8655
 2236TIP3   OH228122   1.120   2.469   3.955 -0.3577 -0.1156 -0.3130
 2236TIP3    H128123   1.030   2.439   3.942 -0.4307 -0.0425  0.0147
 2236TIP3    H228124   1.146   2.428   4.038 -1.1280  2.2749  1.1609
 2237TIP3   OH228125   0.996   2.532   2.357  0.7736 -0.1260  0.2891
 2237TIP3    H128126   1.048   2.458   2.328  0.2422 -0.1983 -0.5070
 2237TIP3    H228127   0.985   2.586   2.279 -1.0857 -0.5647  0.2113
 2238TIP3   OH228128   2.465   5.708  14.499  0.0888  0.2418  0.5164
 2238TIP3    H128129   2.476   5.640  14.432 -1.2445  0.8387 -0.3295
 2238TIP3    H228130   2.425   5.781  14.452  0.8664  1.3669  1.5759
 2239TIP3   OH228131   1.941   6.503   2.722 -0.3190  0.0942  0.6232
 2239TIP3    H128132   1.959   6.409   2.726  1.7179  0.4943  1.8418
 2239TIP3    H228133   1.993   6.540   2.793  0.3583  2.3578 -0.9886
 2240TIP3   OH228134   3.170   5.255   0.897 -0.0127 -0.6161 -0.0652
 2240TIP3    H128135   3.137   5.320   0.959 -0.6109 -0.6299 -0.3629
 2240TIP3    H228136   3.211   5.307   0.828  0.2203 -0.5826  0.0979
 2241TIP3   OH228137   2.370   5.024   4.939  0.3268  0.0876  0.5005
 2241TIP3    H128138   2.405   5.089   4.878  1.2343  0.4476  1.3873
 2241TIP3    H228139   2.444   4.969   4.961 -0.0545 -0.2009  1.0796
 2242TIP3   OH228140   1.248   0.189   5.631  0.1452  0.1791 -0.3299
 2242TIP3    H128141   1.297   0.187   5.548 -1.2761  0.5347 -1.2101
 2242TIP3    H228142   1.220   0.280   5.639 -1.6596 -0.3320 -0.6398
 2243TIP3   OH228143   2.130   3.733  17.173 -0.3542  0.0083 -0.1351
 2243TIP3    H128144   2.064   3.790  17.133  0.6637  1.4171  0.1550
 2243TIP3    H228145   2.090   3.704  17.255 -0.8873  0.2785 -0.2996
 2244TIP3   OH228146   4.885   5.120   2.617 -0.4531 -0.3396  0.1719
 2244TIP3    H128147   4.838   5.160   2.690  0.7035  1.6470 -0.1485
 2244TIP3    H228148   4.861   5.172   2.540  1.8117  0.3638 -0.0892
 2245TIP3   OH228149   4.798   2.105   2.315  0.4412 -0.8012  0.2513
 2245TIP3    H128150   4.825   2.168   2.248 -0.1788 -1.7279 -0.8973
 2245TIP3    H228151   4.820   2.020   2.278 -3.7795 -1.6215 -0.6683
 2246TIP3   OH228152   6.579   2.062   3.383  0.6575  0.1318 -0.3354
 2246TIP3    H128153   6.562   2.016   3.301 -3.5622 -0.3069  0.6861
 2246TIP3    H228154   6.560   2.154   3.363 -1.5454 -0.1396  0.4161
 2247TIP3   OH228155   1.373   4.102   4.033 -0.1384  0.0358 -0.1945
 2247TIP3    H128156   1.448   4.117   3.975 -0.6012 -1.2306 -1.1441
 2247TIP3    H228157   1.341   4.189   4.053  1.1688  0.5697 -0.3360
 2248TIP3   OH228158   4.952   3.961  16.955 -0.1092 -0.0183  0.0238
 2248TIP3    H128159   4.941   3.867  16.944 -1.5076  0.0557  0.7188
 2248TIP3    H228160   4.882   4.000  16.902 -0.4647  0.5913  0.9339
 2249TIP3   OH228161   3.617   6.512   5.231  0.2831  0.4431  0.3673
 2249TIP3    H128162   3.614   6.598   5.273  2.2298  0.5439  0.3574
 2249TIP3    H228163   3.695   6.516   5.176  0.2684 -1.2656  0.2123
 2250TIP3   OH228164   5.195   3.426   0.274  0.3412  1.0410  0.1425
 2250TIP3    H128165   5.269   3.384   0.317 -1.0455  0.3411  1.9052
 2250TIP3    H228166   5.194   3.389   0.186  1.4277  0.2359  0.4648
 2251TIP3   OH228167   6.371   6.085   3.032  0.0128  0.2327 -0.5508
 2251TIP3    H128168   6.402   6.004   3.072 -1.0014  1.2812  2.5154
 2251TIP3    H228169   6.288   6.061   2.990 -1.3465  0.0325  2.1244
 2252TIP3   OH228170   5.783   6.181  15.557  0.1836  0.2189 -0.2847
 2252TIP3    H128171   5.714   6.122  15.589  0.0108  0.2803 -0.5435
 2252TIP3    H228172   5.736   6.248  15.507  0.2761  1.1284  0.8155
 2253TIP3   OH228173   6.692   2.182   4.239  0.4800  0.2186  0.2563
 2253TIP3    H128174   6.652   2.268   4.226  3.1125  1.3953 -0.3822
 2253TIP3    H228175   6.772   2.200   4.288  1.0889 -1.8572  0.0524
 2254TIP3   OH228176   0.903   5.541   5.474 -0.1883 -0.2889 -0.2772
 2254TIP3    H128177   0.986   5.512   5.437  0.1660  0.4584 -0.0790
 2254TIP3    H228178   0.854   5.460   5.490  0.0857 -0.6688 -1.3635
 2255TIP3   OH228179   4.490   6.014   1.006  0.4012 -0.6824 -0.1230
 2255TIP3    H128180   4.437   5.936   1.019 -0.4027  0.0996  1.5038
 2255TIP3    H228181   4.427   6.081   0.976  1.0866 -0.6650 -1.5587
 2256TIP3   OH228182   2.144   4.032   3.658  0.4583  0.2347  0.4913
 2256TIP3    H128183   2.118   3.952   3.611  0.7219 -0.0814  0.8816
 2256TIP3    H228184   2.227   4.009   3.700 -0.9517 -0.2470  3.0610
 2257TIP3   OH228185   3.408   4.252  15.089  0.7958 -0.0922  0.8656
 2257TIP3    H128186   3.457   4.208  15.159  2.1554  2.4822  1.6016
 2257TIP3    H228187   3.473   4.264  15.019  0.4418  0.6628  0.6599
 2258TIP3   OH228188   2.190   0.112  14.297 -0.1457  0.1804 -0.2886
 2258TIP3    H128189   2.225   0.038  14.248 -1.2875 -0.8684  0.4407
 2258TIP3    H228190   2.188   0.082  14.388  0.7596  1.6494  0.2326
 2259TIP3   OH228191   4.082   1.855   4.769 -0.1642  0.2883  0.2733
 2259TIP3    H128192   4.008   1.796   4.755  0.6526 -0.3637 -1.5114
 2259TIP3    H228193   4.091   1.903   4.686  1.7321 -0.0483  0.2427
 2260TIP3   OH228194   4.929   1.046   2.236 -0.4001 -0.0682  0.0996
 2260TIP3    H128195   4.921   1.055   2.141  2.5215  1.6395 -0.0319
 2260TIP3    H228196   4.840   1.024   2.265 -1.5442  0.3395 -2.8968
 2261TIP3   OH228197   4.731   5.343   1.434  1.0995  0.1600  0.6412
 2261TIP3    H128198   4.805   5.373   1.383 -0.3379  2.2886 -0.2782
 2261TIP3    H228199   4.760   5.348   1.525  2.6271 -0.6846  0.2083
 2262TIP3   OH228200   3.377   1.669  11.714 -0.6353 -0.0891 -0.1973
 2262TIP3    H128201   3.353   1.681  11.623 -0.5432 -0.0982 -0.2230
 2262TIP3    H228202   3.430   1.746  11.735  0.2976 -0.6465 -0.4747
 2263TIP3   OH228203   3.823   3.210  12.607 -0.2740 -0.6755  0.0619
 2263TIP3    H128204   3.780   3.293  12.625 -2.4374 -1.8922  0.6906
 2263TIP3    H228205   3.788   3.150  12.673  2.3760 -1.7311  0.5633
 2264TIP3   OH228206   0.891   1.874  16.663  0.3917  0.3595 -0.3234
 2264TIP3    H128207   0.904   1.899  16.571  1.4575  1.7447  0.2050
 2264TIP3    H228208   0.894   1.956  16.712 -1.0850 -0.2729  0.8688
 2265TIP3   OH228209   5.424   6.480  12.808 -0.2483  0.2200  0.4610
 2265TIP3    H128210   5.338   6.518  12.830 -0.1942  2.4488 -2.7315
 2265TIP3    H228211   5.404   6.391  12.778 -1.2604  0.2127  1.1256
 2266TIP3   OH228212   1.934   1.270   1.600 -0.1052 -0.0754 -0.5220
 2266TIP3    H128213   2.014   1.309   1.565 -0.9818 -0.8003 -3.4230
 2266TIP3    H228214   1.864   1.326   1.569 -0.9392 -0.8936 -0.1569
 2267TIP3   OH228215   6.757   2.643  15.577  0.4556 -0.1214 -0.2405
 2267TIP3    H128216   6.736   2.592  15.498 -0.8927  0.1212 -0.0480
 2267TIP3    H228217   6.809   2.582  15.631  1.3507 -0.3027 -1.2774
 2268TIP3   OH228218   5.024   0.432  15.629  0.2321 -0.0723 -0.2587
 2268TIP3    H128219   5.092   0.480  15.675  0.8303  1.5475 -2.7385
 2268TIP3    H228220   5.067   0.352  15.598  1.1249  1.0257 -1.9690
 2269TIP3   OH228221   1.136   3.313   5.887 -0.0023 -0.4060  0.3877
 2269TIP3    H128222   1.175   3.246   5.944  0.5066 -0.1183  0.3852
 2269TIP3    H228223   1.045   3.317   5.913  0.3917  0.2289  1.6705
 2270TIP3   OH228224   3.452   2.102   1.426 -0.7120  0.4555  0.4351
 2270TIP3    H128225   3.433   2.016   1.464  1.5663  0.3738  1.4812
 2270TIP3    H228226   3.385   2.114   1.358 -3.0181 -0.7083  2.4528
 2271TIP3   OH228227   0.841   5.067   5.263 -0.7200  0.4959 -0.2973
 2271TIP3    H128228   0.786   4.991   5.247 -1.2819  0.5471  1.2929
 2271TIP3    H228229   0.885   5.084   5.179 -1.1427 -1.1238 -0.8549
 2272TIP3   OH228230   3.391   0.792  15.942  0.4279 -0.3079  0.0564
 2272TIP3    H128231   3.332   0.811  15.869 -0.1731 -0.3357  0.5290
 2272TIP3    H228232   3.452   0.865  15.943 -1.2281  1.0983  1.2233
 2273TIP3   OH228233   3.755   1.552  14.311  0.5022 -0.3711  0.1823
 2273TIP3    H128234   3.837   1.517  14.346 -0.4440 -2.0219  0.8113
 2273TIP3    H228235   3.721   1.606  14.382  0.0726 -1.3056  0.7062
 2274TIP3   OH228236   6.149   6.059  14.934 -0.1196 -0.2220  0.4231
 2274TIP3    H128237   6.208   6.122  14.976  1.1291  0.1783 -1.8930
 2274TIP3    H228238   6.157   5.980  14.988  1.3392  0.3311  1.0568
 2275TIP3   OH228239   2.367   2.619   3.197 -0.2008  0.2769  0.0275
 2275TIP3    H128240   2.396   2.610   3.106 -0.2551  1.7341 -0.1484
 2275TIP3    H228241   2.284   2.572   3.201  1.6098 -3.0654  0.2803
 2276TIP3   OH228242   2.834   1.248   0.602  0.3281 -0.1053 -0.2678
 2276TIP3    H128243   2.861   1.319   0.659  0.1026 -0.8349  0.7505
 2276TIP3    H228244   2.804   1.291   0.522  0.8566  0.8992  0.0789
 2277TIP3   OH228245   3.543   1.696   4.268 -0.4935 -0.0722  0.2915
 2277TIP3    H128246   3.488   1.682   4.191 -2.1500  0.4815  1.3530
 2277TIP3    H228247   3.582   1.610   4.286  0.5142 -0.0263 -1.6065
 2278TIP3   OH228248   2.274   2.713   0.777 -0.1464 -0.5111  0.2210
 2278TIP3    H128249   2.243   2.678   0.861 -0.2808 -1.8832 -0.3930
 2278TIP3    H228250   2.207   2.688   0.714 -0.8337  1.8828 -0.0476
 2279TIP3   OH228251   4.331   5.187  13.273 -0.3857 -0.1081 -0.4267
 2279TIP3    H128252   4.402   5.252  13.279  0.3936 -0.9082 -0.9233
 2279TIP3    H228253   4.345   5.143  13.189 -1.8845  0.1930 -0.8472
 2280TIP3   OH228254   2.676   3.782  13.776 -0.6558  0.3515 -0.0283
 2280TIP3    H128255   2.690   3.689  13.792 -0.1898  0.6503  1.3339
 2280TIP3    H228256   2.705   3.795  13.686 -0.8623 -0.8427 -0.2809
 2281TIP3   OH228257   1.163   1.820  13.660 -0.1609  0.1821  0.4548
 2281TIP3    H128258   1.109   1.855  13.589 -1.8728  0.4423  1.8467
 2281TIP3    H228259   1.218   1.894  13.687  1.5897 -0.3340 -1.5665
 2282TIP3   OH228260   5.178   1.736   1.745 -0.6543 -0.4206  0.2419
 2282TIP3    H128261   5.188   1.796   1.818 -0.7069 -0.2705  0.1268
 2282TIP3    H228262   5.083   1.728   1.733 -0.6454  0.2091 -0.3390
 2283TIP3   OH228263   4.535   6.676   0.557 -0.3740 -0.1528  0.7499
 2283TIP3    H128264   4.479   6.630   0.619  1.2083 -1.9204  0.8816
 2283TIP3    H228265   4.588   6.608   0.516 -1.3384  0.9633 -2.5596
 2284TIP3   OH228266   0.444   1.036   0.378  0.4358  0.2882  0.6848
 2284TIP3    H128267   0.492   0.978   0.319  0.7054 -0.2037  1.3872
 2284TIP3    H228268   0.357   1.042   0.339  0.6563  0.0768  0.1557
 2285TIP3   OH228269   4.770   5.255  12.037  0.4178  1.1920  0.5729
 2285TIP3    H128270   4.818   5.191  11.986 -3.3973 -1.0016 -0.4292
 2285TIP3    H228271   4.726   5.310  11.972  0.6757  2.4927  1.4702
 2286TIP3   OH228272   4.244   1.713  14.759  0.7455  0.4404  0.6597
 2286TIP3    H128273   4.155   1.728  14.794  1.4071  1.0495  2.1367
 2286TIP3    H228274   4.301   1.727  14.835  1.9357 -2.5442  0.3525
 2287TIP3   OH228275   4.983   4.275  12.141 -0.7079 -0.3703 -0.5096
 2287TIP3    H128276   5.065   4.228  12.157 -0.2577  0.6884  0.2963
 2287TIP3    H228277   5.007   4.367  12.142 -2.0434 -0.0263  0.5339
 2288TIP3   OH228278   5.283   3.829   6.924  0.0296 -0.2963  0.1657
 2288TIP3    H128279   5.364   3.813   6.971  0.4700 -0.0480 -0.5037
 2288TIP3    H228280   5.248   3.910   6.962  0.4328 -0.0442 -0.0049
 2289TIP3   OH228281   6.513   3.556   1.733  0.2519 -0.3573 -0.2287
 2289TIP3    H128282   6.520   3.635   1.680 -0.0207 -0.9437 -1.1443
 2289TIP3    H228283   6.587   3.561   1.793  1.4373 -0.4286 -1.6654
 2290TIP3   OH228284   3.128   1.342  16.436 -0.0386  0.3552  0.3772
 2290TIP3    H128285   3.103   1.361  16.527 -1.6446  1.2990 -0.2448
 2290TIP3    H228286   3.198   1.404  16.417 -0.3782  0.8317  0.6657
 2291TIP3   OH228287   5.681   2.546  11.895 -0.4723 -0.1692 -0.8545
 2291TIP3    H128288   5.776   2.547  11.877 -0.5166 -0.6064 -1.1407
 2291TIP3    H228289   5.672   2.588  11.980  0.1430 -1.4761 -0.1221
 2292TIP3   OH228290   1.934   0.438  15.564  0.4523  0.0942 -0.0005
 2292TIP3    H128291   1.847   0.420  15.528  0.8626 -1.1276 -0.4207
 2292TIP3    H228292   1.923   0.434  15.658 -0.2006  1.1894 -0.0297
 2293TIP3   OH228293   3.069   2.261   0.018  0.1570 -0.1258  0.2226
 2293TIP3    H128294   3.033   2.347   0.041  0.8006  0.3086 -0.3861
 2293TIP3    H228295   2.995   2.201   0.028 -0.1700  0.4139  1.1407
 2294TIP3   OH228296   4.281   3.299   3.248 -0.1532 -0.3933 -0.0504
 2294TIP3    H128297   4.281   3.292   3.344  1.0267  0.8706  0.0551
 2294TIP3    H228298   4.339   3.228   3.219 -1.6374 -1.6710  0.0890
 2295TIP3   OH228299   4.295   2.771   2.031 -0.4983  0.1205  0.2422
 2295TIP3    H128300   4.295   2.743   1.939 -0.5747 -0.2515  0.3545
 2295TIP3    H228301   4.356   2.844   2.033 -0.0132 -0.2709  0.0125
 2296TIP3   OH228302   0.298   5.194  16.085 -0.0558 -0.1761 -0.3598
 2296TIP3    H128303   0.321   5.207  15.993 -0.0671 -0.2855 -0.3798
 2296TIP3    H228304   0.206   5.218  16.091  0.0981  0.4014 -0.2651
 2297TIP3   OH228305   1.892   1.925  11.355 -0.7215  0.0970 -0.0604
 2297TIP3    H128306   1.941   1.876  11.289 -1.2692  0.3844 -0.6864
 2297TIP3    H228307   1.958   1.958  11.415 -0.2530 -0.4964 -0.2490
 2298TIP3   OH228308   0.169   0.954  13.714  0.2153  0.2135 -0.5140
 2298TIP3    H128309   0.134   1.041  13.693 -0.5638 -0.1561 -0.7517
 2298TIP3    H228310   0.138   0.937  13.803  0.6586  0.3222 -0.3365
 2299TIP3   OH228311   4.031   2.081  12.434 -0.7422 -0.1943  0.0858
 2299TIP3    H128312   3.974   2.071  12.510 -0.7291  1.7024  0.3537
 2299TIP3    H228313   3.996   2.157  12.387  0.2476 -0.3525 -0.9343
 2300TIP3   OH228314   4.201   6.517  12.150 -0.6362  0.0977 -0.4998
 2300TIP3    H128315   4.224   6.461  12.075  0.7808 -2.2165  1.5895
 2300TIP3    H228316   4.280   6.568  12.166 -1.0643  0.8602 -0.7568
 2301TIP3   OH228317   2.617   5.966  13.131  0.1657 -0.4023 -0.8028
 2301TIP3    H128318   2.624   5.871  13.127  0.8338 -0.3091 -2.1823
 2301TIP3    H228319   2.537   5.986  13.084  0.1024 -0.2700 -0.6388
 2302TIP3   OH228320   4.917   6.753   5.085 -0.6080  0.5155 -0.1085
 2302TIP3    H128321   4.950   6.813   5.151  0.4549  2.0117 -1.9672
 2302TIP3    H228322   4.948   6.667   5.114  2.3882  1.5054 -0.2023
 2303TIP3   OH228323   2.160   0.666   2.018  0.4557 -0.2418 -0.2145
 2303TIP3    H128324   2.100   0.621   2.077 -1.7577 -1.4228 -3.2418
 2303TIP3    H228325   2.208   0.596   1.974  0.0430  0.4766 -1.8527
 2304TIP3   OH228326   4.082   0.967  16.467  0.1578 -0.2641  0.4411
 2304TIP3    H128327   4.087   0.968  16.371  1.0309  2.0320  0.4691
 2304TIP3    H228328   4.156   0.913  16.495  0.9787  0.5271 -0.1641
 2305TIP3   OH228329   2.150   6.638   4.795  0.6578  0.1126 -0.0542
 2305TIP3    H128330   2.091   6.663   4.724  1.7452 -0.2074 -1.0901
 2305TIP3    H228331   2.097   6.645   4.874 -0.9360 -0.7706 -1.0291
 2306TIP3   OH228332   6.605   6.699  14.674  0.3085 -0.0766  0.3900
 2306TIP3    H128333   6.659   6.654  14.739  1.4211 -0.5224 -0.8228
 2306TIP3    H228334   6.515   6.680  14.701  0.7534 -2.3748  0.3718
 2307TIP3   OH228335   5.950   6.583   1.353  0.1655 -0.4170  0.8823
 2307TIP3    H128336   5.936   6.659   1.410 -0.4743 -1.1426  1.7148
 2307TIP3    H228337   5.874   6.527   1.369  1.6978 -2.2778  1.9822
 2308TIP3   OH228338   5.897   3.612  11.283 -0.3602 -0.5355 -0.6298
 2308TIP3    H128339   5.847   3.694  11.284 -2.6572 -1.8953  1.1527
 2308TIP3    H228340   5.918   3.597  11.191 -1.3846  1.1677 -1.1520
 2309TIP3   OH228341   2.142   0.188  11.785  0.2925  0.1900 -0.1996
 2309TIP3    H128342   2.202   0.142  11.726  0.2552 -0.1665  0.0367
 2309TIP3    H228343   2.161   0.281  11.771  1.0915  0.0703  0.0854
 2310TIP3   OH228344   5.107   1.226   0.822  0.1980 -0.3464  0.3180
 2310TIP3    H128345   5.169   1.226   0.895  0.2662 -0.6635  0.2608
 2310TIP3    H228346   5.160   1.202   0.746 -0.1582 -1.4889  0.4152
 2311TIP3   OH228347   2.315   3.238  14.379  0.0448  0.2315 -0.4357
 2311TIP3    H128348   2.301   3.327  14.344 -1.4627  0.7843  1.5137
 2311TIP3    H228349   2.269   3.237  14.462 -1.3316 -2.9288 -1.1623
 2312TIP3   OH228350   3.431   5.847  13.048 -0.1164 -0.1419  0.1277
 2312TIP3    H128351   3.452   5.880  12.961 -0.2561 -0.6966 -0.1222
 2312TIP3    H228352   3.455   5.754  13.045 -0.9762 -0.3839  0.3804
 2313TIP3   OH228353   3.562   2.254   5.447  0.5783 -0.3028 -0.4008
 2313TIP3    H128354   3.613   2.317   5.497 -1.0267  0.7493 -0.0537
 2313TIP3    H228355   3.522   2.197   5.513  0.8915 -0.8027 -0.6406
 2314TIP3   OH228356   1.379   2.415   1.427  0.9784 -0.0118 -0.1106
 2314TIP3    H128357   1.392   2.443   1.336  0.2988 -2.7051 -1.0844
 2314TIP3    H228358   1.430   2.335   1.435  0.4221 -0.2087  1.6712
 2315TIP3   OH228359   3.089   5.749  14.837  0.1992  0.0422  0.1897
 2315TIP3    H128360   3.180   5.745  14.809 -0.1332 -1.0997 -0.7819
 2315TIP3    H228361   3.084   5.826  14.894  1.1018  1.8320 -2.1197
 2316TIP3   OH228362   1.176   4.803  16.737 -0.3156 -0.3484 -0.3294
 2316TIP3    H128363   1.137   4.888  16.760 -0.8896 -1.0030  1.1270
 2316TIP3    H228364   1.256   4.826  16.690  0.5652  1.0187  1.7783
 2317TIP3   OH228365   0.310   0.076  15.273  0.0380 -0.5385  0.0163
 2317TIP3    H128366   0.269   0.122  15.347  2.2647 -0.7315  1.4062
 2317TIP3    H228367   0.257   0.101  15.197 -1.3318  0.9383  1.4168
 2318TIP3   OH228368   1.913   1.225  17.137  0.4807  0.0443  0.2287
 2318TIP3    H128369   1.994   1.177  17.152  0.0193 -0.0657  2.4625
 2318TIP3    H228370   1.845   1.171  17.176 -0.3066  1.5073  0.9123
 2319TIP3   OH228371   6.764   4.297  15.908 -0.2001  0.2288  0.4463
 2319TIP3    H128372   6.805   4.378  15.877 -0.0681  0.0722  0.2121
 2319TIP3    H228373   6.829   4.256  15.964  0.3073 -0.4622 -0.6294
 2320TIP3   OH228374   5.831   3.585   4.439 -0.0840 -0.4377  0.0116
 2320TIP3    H128375   5.889   3.661   4.431 -2.9903  1.8418 -0.4211
 2320TIP3    H228376   5.867   3.534   4.511  1.8937  1.4084  0.3658
 2321TIP3   OH228377   2.057   1.190  13.106  0.4558  0.3851 -0.6129
 2321TIP3    H128378   1.977   1.139  13.114  1.3775 -1.1860 -1.1870
 2321TIP3    H228379   2.118   1.149  13.168  0.2825  2.6824  1.1613
 2322TIP3   OH228380   1.376   5.325   4.705  0.2517  0.0160  0.4511
 2322TIP3    H128381   1.345   5.385   4.773  1.3784  0.4066  0.6389
 2322TIP3    H228382   1.471   5.340   4.702  0.2556 -0.2604 -0.9636
 2323TIP3   OH228383   5.113   4.739  11.825  0.2690  0.1482  0.2938
 2323TIP3    H128384   5.102   4.834  11.820 -0.2661  0.1165  0.8158
 2323TIP3    H228385   5.042   4.704  11.771 -0.4506  0.0132  1.3095
 2324TIP3   OH228386   2.546   3.623  14.169  0.1422 -0.4233 -0.1778
 2324TIP3    H128387   2.578   3.546  14.216 -2.2835 -0.7322  1.0171
 2324TIP3    H228388   2.582   3.698  14.218 -1.0754 -0.7582  1.2373
 2325TIP3   OH228389   0.799   1.608   4.830  0.2642  0.9972  0.2420
 2325TIP3    H128390   0.840   1.694   4.839 -0.6198  1.2737  1.8819
 2325TIP3    H228391   0.706   1.624   4.848  0.2859 -0.4894  1.7565
 2326TIP3   OH228392   2.688   2.003   4.013 -0.4416 -0.3550 -0.5609
 2326TIP3    H128393   2.677   2.048   3.929  0.5139 -0.9141 -0.9898
 2326TIP3    H228394   2.783   1.996   4.025 -0.5693 -0.6069  0.3935
 2327TIP3   OH228395   1.725   4.594   4.088 -0.1613 -0.2129 -0.3040
 2327TIP3    H128396   1.643   4.601   4.037 -0.3845  1.8367  0.3238
 2327TIP3    H228397   1.708   4.522   4.149 -1.0937 -0.5273 -0.9122
 2328TIP3   OH228398   0.409   1.859  14.742  0.3145 -0.2821  0.3612
 2328TIP3    H128399   0.347   1.870  14.814 -0.1393  0.1218 -0.0866
 2328TIP3    H228400   0.495   1.860  14.784  0.2486  3.4414  0.5706
 2329TIP3   OH228401   1.086   1.707   3.338 -0.2272  0.1781  0.1938
 2329TIP3    H128402   1.044   1.636   3.386  0.7660 -0.0235  0.7961
 2329TIP3    H228403   1.121   1.666   3.259  2.1969 -0.4794  1.5516
 2330TIP3   OH228404   5.270   4.923  12.210  0.3267 -0.2693  0.0003
 2330TIP3    H128405   5.226   4.973  12.280 -0.6063 -2.1301  0.7683
 2330TIP3    H228406   5.204   4.914  12.142  1.1211  1.2145 -0.9979
 2331TIP3   OH228407   0.574   3.708  12.151 -0.0986 -0.0844 -0.6376
 2331TIP3    H128408   0.489   3.703  12.195  0.2001  1.1403  0.1164
 2331TIP3    H228409   0.580   3.627  12.100 -1.5940 -0.3063 -0.4796
 2332TIP3   OH228410   5.677   0.973  16.625 -0.3078  0.2285  0.2522
 2332TIP3    H128411   5.689   0.913  16.699  2.2245  0.5817  0.1549
 2332TIP3    H228412   5.644   1.053  16.665 -0.2717 -0.0406  0.8354
 2333TIP3   OH228413   1.004   6.190  11.985  0.1759 -0.6986  0.7385
 2333TIP3    H128414   0.988   6.135  12.062  1.2813 -1.6028  0.3325
 2333TIP3    H228415   1.097   6.178  11.966 -0.4425 -1.7927 -1.7487
 2334TIP3   OH228416   0.263   3.530   0.228 -0.1003  0.1870 -0.0580
 2334TIP3    H128417   0.332   3.573   0.279  2.9938 -1.9612 -2.2508
 2334TIP3    H228418   0.292   3.539   0.137 -2.3147 -1.4808 -0.9727
 2335TIP3   OH228419   4.372   1.888   1.478 -0.0171 -0.3439  0.2865
 2335TIP3    H128420   4.306   1.914   1.542 -0.9022 -0.5826 -0.5110
 2335TIP3    H228421   4.348   1.937   1.399  0.7902 -0.4051  0.0050
 2336TIP3   OH228422   5.397   3.505   3.809 -0.0271 -0.7317 -0.1879
 2336TIP3    H128423   5.354   3.423   3.787 -0.4894 -0.7711  0.8413
 2336TIP3    H228424   5.345   3.572   3.766  1.0913 -1.0627 -2.1037
 2337TIP3   OH228425   0.892   1.071   3.283  0.2026  0.5235 -0.2764
 2337TIP3    H128426   0.929   0.984   3.271  1.6594  1.4951 -3.1743
 2337TIP3    H228427   0.798   1.059   3.269  0.1655 -0.8320  0.9784
 2338TIP3   OH228428   5.404   1.022  10.979  0.7006  0.2657 -0.0910
 2338TIP3    H128429   5.317   0.985  10.992  0.9510 -0.2602  0.1209
 2338TIP3    H228430   5.411   1.037  10.885  0.9307 -1.0768 -0.2995
 2339TIP3   OH228431   3.701   1.170   4.190 -0.2972  0.7839 -0.0884
 2339TIP3    H128432   3.764   1.129   4.131 -0.9467 -0.1499 -0.1369
 2339TIP3    H228433   3.630   1.200   4.134 -2.2698 -2.6111  0.4636
 2340TIP3   OH228434   2.858   6.085   5.008 -0.3976  0.0333  0.0930
 2340TIP3    H128435   2.763   6.088   4.998 -0.4963  2.0990  1.4150
 2340TIP3    H228436   2.885   6.177   5.010  1.5643 -0.5223  0.3928
 2341TIP3   OH228437   2.975   1.024   0.631  0.2300 -0.1138  0.0451
 2341TIP3    H128438   2.948   1.023   0.723 -0.7780 -0.0240 -0.2460
 2341TIP3    H228439   2.954   1.112   0.601 -1.1308 -0.6981 -0.7606
 2342TIP3   OH228440   2.631   5.364   4.793  0.1344  0.4340 -0.3737
 2342TIP3    H128441   2.714   5.380   4.747 -0.3228 -0.5520 -1.5469
 2342TIP3    H228442   2.613   5.271   4.779 -1.5432  0.8069 -0.7501
 2343TIP3   OH228443   2.953   5.262  15.755 -0.0342  0.1335  0.3640
 2343TIP3    H128444   2.983   5.345  15.717 -0.4927 -0.0591 -0.4284
 2343TIP3    H228445   2.893   5.226  15.690 -0.2489 -0.5676  0.9431
 2344TIP3   OH228446   1.961   2.695   5.405 -0.3116  0.0254  0.2695
 2344TIP3    H128447   1.866   2.682   5.403 -0.3414  0.3250 -1.4753
 2344TIP3    H228448   1.997   2.612   5.375  0.0185 -0.2980  1.5313
 2345TIP3   OH228449   3.531   5.846  16.027  0.4651  0.1922  0.6217
 2345TIP3    H128450   3.446   5.817  16.061  0.5535  0.5493  1.1521
 2345TIP3    H228451   3.546   5.792  15.950 -0.4300  0.3976  0.3031
 2346TIP3   OH228452   4.903   1.882   0.194 -0.5509 -0.0657 -0.1276
 2346TIP3    H128453   4.899   1.910   0.286 -1.4572 -0.5538 -0.0038
 2346TIP3    H228454   4.925   1.961   0.145 -0.5199  0.3006  0.4702
 2347TIP3   OH228455   2.111   5.108  11.954 -0.3955  0.5214  0.2845
 2347TIP3    H128456   2.085   5.029  12.001  1.7694  0.5502  1.5936
 2347TIP3    H228457   2.204   5.095  11.934  0.4463  3.4640  2.0437
 2348TIP3   OH228458   0.951   3.373   1.400  0.3536 -0.1029  0.1479
 2348TIP3    H128459   0.921   3.411   1.483 -0.3642 -1.2069  0.4074
 2348TIP3    H228460   1.016   3.307   1.427  0.9746  0.3509 -0.2407
 2349TIP3   OH228461   1.060   4.977   4.595  0.1599 -0.4851  0.1163
 2349TIP3    H128462   1.125   5.041   4.566 -0.1356 -0.3272 -0.2009
 2349TIP3    H228463   1.111   4.899   4.617  0.4866 -0.2623  0.1639
 2350TIP3   OH228464   6.580   0.406  16.040  0.4000 -0.4757  0.1128
 2350TIP3    H128465   6.586   0.427  15.947 -1.1349  0.2260  0.1637
 2350TIP3    H228466   6.635   0.472  16.083 -0.2529  0.2597 -0.1626
 2351TIP3   OH228467   4.577   5.455  14.348  0.0690  0.3134  0.2363
 2351TIP3    H128468   4.522   5.424  14.276 -1.5399 -1.2789  2.0873
 2351TIP3    H228469   4.515   5.494  14.410  1.5158  2.3599  0.4184
 2352TIP3   OH228470   3.426   5.065  16.073  0.2625 -0.4483 -0.4621
 2352TIP3    H128471   3.364   4.994  16.054  1.2662 -1.4919  0.0893
 2352TIP3    H228472   3.380   5.145  16.048 -1.5816 -1.1561  0.6463
 2353TIP3   OH228473   5.726   3.393   4.889  0.6538  0.2375 -0.3024
 2353TIP3    H128474   5.792   3.381   4.821  0.0693 -0.3537 -0.7690
 2353TIP3    H228475   5.767   3.454   4.951  1.2365  0.6912 -1.1175
 2354TIP3   OH228476   4.097   0.656   3.495 -0.3721  0.0667  0.5477
 2354TIP3    H128477   4.144   0.698   3.567  2.0816  1.0677 -1.5679
 2354TIP3    H228478   4.165   0.606   3.448 -2.0256 -1.0017 -0.7579
 2355TIP3   OH228479   0.367   5.058   1.025  0.0919  0.3001  0.2384
 2355TIP3    H128480   0.273   5.037   1.029  0.5069 -2.0015 -0.9565
 2355TIP3    H228481   0.410   4.982   1.065  1.4340  1.4530  0.9972
 2356TIP3   OH228482   5.114   3.790   0.080 -0.4156 -0.3086  0.2093
 2356TIP3    H128483   5.020   3.772   0.075 -0.3235 -0.4449 -1.8732
 2356TIP3    H228484   5.125   3.872   0.031  0.3245  0.6618  1.9870
 2357TIP3   OH228485   6.356   4.618  16.655 -0.2678 -0.2834 -0.1709
 2357TIP3    H128486   6.440   4.629  16.698 -0.6682 -1.7335  1.0311
 2357TIP3    H228487   6.315   4.705  16.659 -0.5843 -0.5041  3.0286
 2358TIP3   OH228488   1.852   5.426   1.564 -0.5274 -0.4866  0.8732
 2358TIP3    H128489   1.896   5.447   1.482 -3.3888 -1.3161 -0.9330
 2358TIP3    H228490   1.789   5.497   1.576 -2.1935 -1.9140  0.7635
 2359TIP3   OH228491   1.833   5.664   2.534 -0.1685  0.8044  0.0636
 2359TIP3    H128492   1.906   5.630   2.586  0.4709 -0.6033 -1.7065
 2359TIP3    H228493   1.796   5.733   2.588  2.1681  1.2173  1.2241
 2360TIP3   OH228494   2.480   4.163  13.869  0.2797 -0.3062  0.0085
 2360TIP3    H128495   2.418   4.181  13.939  0.5303 -0.1945  0.2053
 2360TIP3    H228496   2.549   4.112  13.911  1.4104  1.4116  0.2974
 2361TIP3   OH228497   6.713   5.369  11.058 -0.1582  0.8610 -0.0287
 2361TIP3    H128498   6.763   5.428  11.114 -0.6099  0.8055  0.4322
 2361TIP3    H228499   6.743   5.282  11.082  0.9643  0.9324 -1.1501
 2362TIP3   OH228500   0.867   4.277   6.725 -0.6526 -0.4838 -0.0617
 2362TIP3    H128501   0.791   4.331   6.745 -0.8577 -0.7669 -0.0632
 2362TIP3    H228502   0.888   4.298   6.634 -0.7021 -0.3704 -0.0467
 2363TIP3   OH228503   1.620   4.498  15.463  0.4553  0.0731 -0.1301
 2363TIP3    H128504   1.667   4.536  15.389 -0.1471 -0.3655 -0.7424
 2363TIP3    H228505   1.667   4.417  15.482  1.0833  0.5713  0.4780
 2364TIP3   OH228506   3.540   1.519  12.853  0.3812 -0.1082 -1.1972
 2364TIP3    H128507   3.630   1.528  12.822  0.6368  0.7848 -0.2298
 2364TIP3    H228508   3.488   1.573  12.794  1.0534  2.7438  0.7248
 2365TIP3   OH228509   0.118   3.410   1.644 -0.7362 -0.3792  0.2441
 2365TIP3    H128510   0.103   3.493   1.599 -0.4143  0.0169  0.8615
 2365TIP3    H228511   0.065   3.347   1.596  0.7526 -0.2592 -1.5829
 2366TIP3   OH228512   1.302   0.104  13.070  0.0125  0.0284  0.2562
 2366TIP3    H128513   1.235   0.086  13.136  0.2793 -0.9231  0.2678
 2366TIP3    H228514   1.328   0.018  13.037  2.3603  0.2957  1.3581
 2367TIP3   OH228515   4.613   5.967  10.264  0.5895 -0.2761 -0.6459
 2367TIP3    H128516   4.544   5.913  10.302  0.4449  0.4400  0.1224
 2367TIP3    H228517   4.575   6.001  10.183 -0.7711  1.9000  0.8840
 2368TIP3   OH228518   6.481   0.911  15.925 -0.4275 -0.2245 -0.5095
 2368TIP3    H128519   6.524   0.839  15.880 -0.3607  0.2522 -1.2302
 2368TIP3    H228520   6.431   0.870  15.996  0.1991 -0.8945 -0.4559
 2369TIP3   OH228521   5.253   2.678   5.409  0.6320  0.0306  0.3234
 2369TIP3    H128522   5.241   2.728   5.490  2.0096  1.3266 -0.2375
 2369TIP3    H228523   5.346   2.689   5.388  0.9863 -2.7542  0.1493
 2370TIP3   OH228524   6.260   4.945   4.963 -0.2130  0.1519  0.2836
 2370TIP3    H128525   6.246   4.862   4.918 -0.2943  0.7773 -0.8456
 2370TIP3    H228526   6.297   4.920   5.048 -0.7907 -1.0641  0.1881
 2371TIP3   OH228527   4.122   5.537  15.348  0.1963 -0.9572  0.3585
 2371TIP3    H128528   4.032   5.504  15.343  0.4485 -1.3504 -2.1946
 2371TIP3    H228529   4.168   5.473  15.403 -0.8277 -1.2941  0.8430
 2372TIP3   OH228530   0.896   6.057  10.901 -0.2763 -0.2952 -0.7241
 2372TIP3    H128531   0.852   6.141  10.895 -0.6127 -0.2962  1.1490
 2372TIP3    H228532   0.847   5.999  10.843 -0.1618  0.7535 -1.8616
 2373TIP3   OH228533   3.123   1.574  13.061 -0.1575 -0.2529  0.1217
 2373TIP3    H128534   3.132   1.479  13.067  1.2386 -0.1246  0.2085
 2373TIP3    H228535   3.028   1.589  13.060 -0.3905 -1.5866  0.9631
 2374TIP3   OH228536   1.554   4.584  16.152  0.4145  0.2906 -0.4324
 2374TIP3    H128537   1.624   4.522  16.172  0.9748  0.8538 -0.6275
 2374TIP3    H228538   1.511   4.548  16.075 -0.6928 -1.0169  0.7681
 2375TIP3   OH228539   2.680   1.031   3.397 -0.0996  0.1899 -0.6191
 2375TIP3    H128540   2.640   1.036   3.484 -0.8184  0.8039 -0.9737
 2375TIP3    H228541   2.662   1.117   3.358  0.7435  0.1273 -1.1463
 2376TIP3   OH228542   4.847   4.084   2.934 -0.5693  0.0437 -0.1662
 2376TIP3    H128543   4.831   3.990   2.933 -0.8523  0.0892  0.0788
 2376TIP3    H228544   4.816   4.115   2.849  0.4184 -0.2335 -0.6347
 2377TIP3   OH228545   0.209   1.143  14.434  0.1073 -0.0359  0.8413
 2377TIP3    H128546   0.136   1.138  14.496 -0.4823 -2.4960  0.0251
 2377TIP3    H228547   0.248   1.229  14.449 -2.8663  1.2921  1.4028
 2378TIP3   OH228548   6.616   3.723   4.813 -0.2427 -0.1818  0.8593
 2378TIP3    H128549   6.615   3.640   4.764 -0.0624  0.4607 -0.2370
 2378TIP3    H228550   6.692   3.770   4.779 -0.0541  0.2235  1.8377
 2379TIP3   OH228551   3.575   6.454   0.925  0.8846 -0.0193  0.4318
 2379TIP3    H128552   3.504   6.480   0.866  0.9368  1.2594  0.9181
 2379TIP3    H228553   3.569   6.515   0.998  3.2652  0.9239 -0.1150
 2380TIP3   OH228554   4.292   1.106  10.887 -0.2457  0.5460  0.6129
 2380TIP3    H128555   4.235   1.117  10.963 -0.4698 -1.6519  0.8008
 2380TIP3    H228556   4.287   1.012  10.867 -1.7995  1.3926 -3.4020
 2381TIP3   OH228557   3.945   4.704   0.357 -0.1878 -1.0341  0.8617
 2381TIP3    H128558   4.013   4.663   0.303 -1.3330 -1.3087 -0.4182
 2381TIP3    H228559   3.939   4.647   0.434  2.8295  0.4445  2.2940
 2382TIP3   OH228560   3.512   6.460   0.098  0.5233  0.2599 -0.2007
 2382TIP3    H128561   3.433   6.485   0.145  0.4477 -0.0234 -0.1792
 2382TIP3    H228562   3.556   6.397   0.155  0.2140 -0.4113 -0.6988
 2383TIP3   OH228563   5.870   4.339  17.171  0.7461  0.1380  0.2351
 2383TIP3    H128564   5.864   4.339  17.266 -0.8146 -1.0742  0.1458
 2383TIP3    H228565   5.875   4.246  17.147 -1.8059  0.2889 -1.0141
 2384TIP3   OH228566   1.931   6.079   4.277 -0.6099  0.2089 -0.0811
 2384TIP3    H128567   1.931   6.104   4.185 -0.0051  0.8417  0.0908
 2384TIP3    H228568   2.022   6.091   4.306 -0.6148 -0.7654  0.3856
 2385TIP3   OH228569   6.270   2.477   5.198 -0.2317 -0.4093  0.1072
 2385TIP3    H128570   6.242   2.419   5.127  0.1254 -0.0425 -0.3330
 2385TIP3    H228571   6.309   2.552   5.154  0.0893 -0.2297  0.6951
 2386TIP3   OH228572   1.758   1.601   2.606  0.1423  0.2563  0.0460
 2386TIP3    H128573   1.699   1.576   2.677 -0.6497  3.4146  0.5605
 2386TIP3    H228574   1.845   1.577   2.638 -0.4201 -0.2631  1.2124
 2387TIP3   OH228575   2.098   6.132  16.294  0.5227  0.1211 -0.3114
 2387TIP3    H128576   2.035   6.070  16.332 -0.4625  0.5703 -1.2108
 2387TIP3    H228577   2.182   6.086  16.300 -0.0777 -0.9978 -0.2648
 2388TIP3   OH228578   3.024   3.883  13.333  0.2976 -0.1006 -0.5321
 2388TIP3    H128579   3.094   3.948  13.327  1.8627 -1.7408 -0.4733
 2388TIP3    H228580   3.061   3.812  13.386 -1.3149 -1.1123 -0.7258
 2389TIP3   OH228581   5.093   6.139  13.799 -0.0302  0.2585  0.5292
 2389TIP3    H128582   5.163   6.203  13.783 -0.6427  0.5528 -1.0600
 2389TIP3    H228583   5.065   6.113  13.711 -2.4529  0.7178  1.1369
 2390TIP3   OH228584   3.326   5.634   5.168  0.1057 -0.1367  0.0369
 2390TIP3    H128585   3.254   5.610   5.226  1.2317 -1.3153  0.9697
 2390TIP3    H228586   3.400   5.651   5.227  0.6732  0.7763 -0.9205
 2391TIP3   OH228587   5.031   2.884  15.475  0.3062 -0.2432 -0.7412
 2391TIP3    H128588   4.941   2.917  15.478  0.1755 -0.5975 -0.6751
 2391TIP3    H228589   5.062   2.906  15.388 -0.1837 -0.9956 -1.1070
 2392TIP3   OH228590   1.878   2.538  14.608  1.2098  0.7728  0.0728
 2392TIP3    H128591   1.807   2.588  14.567  0.9004  1.4897  1.4337
 2392TIP3    H228592   1.881   2.456  14.559 -1.4840  0.1657  0.8476
 2393TIP3   OH228593   3.079   5.229   3.207 -0.3273 -0.8890  0.0788
 2393TIP3    H128594   3.015   5.237   3.277 -0.5195 -0.7498 -0.1091
 2393TIP3    H228595   3.156   5.275   3.239 -1.3494  1.6185 -0.9075
 2394TIP3   OH228596   1.203   5.852  12.786  0.1896 -0.3286  0.2831
 2394TIP3    H128597   1.252   5.917  12.734 -0.2660  0.1528  0.4550
 2394TIP3    H228598   1.217   5.770  12.739  1.0390 -0.1701  0.2425
 2395TIP3   OH228599   0.390   3.482   0.806  0.1576 -0.7827 -0.3926
 2395TIP3    H128600   0.374   3.572   0.778 -0.2881 -1.2517 -1.6979
 2395TIP3    H228601   0.448   3.446   0.739  1.9484 -0.8929  1.1725
 2396TIP3   OH228602   4.959   5.050   0.447 -0.1540  0.2879 -0.1732
 2396TIP3    H128603   4.905   4.992   0.394  0.5768 -0.3861 -0.2020
 2396TIP3    H228604   5.025   4.992   0.486 -0.6254  0.7921  1.3907
 2397TIP3   OH228605   5.128   1.962   0.633 -0.4484 -0.0031  0.4044
 2397TIP3    H128606   5.107   2.036   0.691  2.5193  0.9873  0.3114
 2397TIP3    H228607   5.132   1.886   0.692 -0.9412  0.3793  0.9364
 2398TIP3   OH228608   1.429   4.703  15.021  0.0836  0.4001 -0.4952
 2398TIP3    H128609   1.463   4.777  15.071  0.2095 -0.1093  0.1903
 2398TIP3    H228610   1.360   4.739  14.966  0.9457  1.2401 -1.0417
 2399TIP3   OH228611   5.447   5.217  11.903  0.0307 -0.6093  0.5335
 2399TIP3    H128612   5.386   5.244  11.834  0.5057  0.1407  0.4022
 2399TIP3    H228613   5.446   5.121  11.899  3.2041 -0.5933 -3.3325
 2400TIP3   OH228614   5.215   0.492  14.198  0.1916 -0.8998  0.1330
 2400TIP3    H128615   5.257   0.455  14.120  2.6698 -0.9982  1.4528
 2400TIP3    H228616   5.215   0.420  14.262  1.3354  0.1424  1.3519
 2401TIP3   OH228617   2.021   6.328  15.250 -0.2091  0.2763 -0.3546
 2401TIP3    H128618   1.960   6.288  15.187  1.2366  0.5791 -2.0038
 2401TIP3    H228619   2.019   6.271  15.326 -1.6070 -0.3992 -0.8834
 2402TIP3   OH228620   6.529   3.321   5.301  0.6174 -0.5689  0.5412
 2402TIP3    H128621   6.486   3.266   5.234  1.2687 -0.8289  0.3348
 2402TIP3    H228622   6.569   3.392   5.251  0.0015 -0.0450  0.7851
 2403TIP3   OH228623   4.920   3.392   4.271 -0.1772 -0.1645 -0.4701
 2403TIP3    H128624   4.876   3.430   4.195  2.6958  0.7670 -1.7287
 2403TIP3    H228625   4.989   3.337   4.234  1.2962  0.3324  1.4724
 2404TIP3   OH228626   5.434   3.355   4.159  0.1283 -0.1717  0.8020
 2404TIP3    H128627   5.389   3.340   4.241 -0.1888  0.5909  0.7735
 2404TIP3    H228628   5.428   3.450   4.145 -0.6140 -0.4055 -0.5553
 2405TIP3   OH228629   4.453   5.685  10.263 -0.2559  0.1860 -0.1217
 2405TIP3    H128630   4.441   5.629  10.340  3.3580  0.0356  0.4118
 2405TIP3    H228631   4.478   5.625  10.194  0.0202  0.7508 -0.5120
 2406TIP3   OH228632   3.739   4.014  14.941  0.7050 -0.2884 -0.0924
 2406TIP3    H128633   3.731   3.939  14.881  1.7989 -0.9302  0.5376
 2406TIP3    H228634   3.833   4.024  14.953  0.5797  1.4791 -0.4931
 2407TIP3   OH228635   5.791   0.190  11.027  0.3975  0.5967 -0.0278
 2407TIP3    H128636   5.785   0.095  11.039 -1.2051  0.3959 -2.0044
 2407TIP3    H228637   5.704   0.222  11.051  0.7356  1.4834  0.0154
 2408TIP3   OH228638   2.916   5.334   5.456  0.2759 -0.2215  0.3955
 2408TIP3    H128639   2.983   5.278   5.416  0.9583 -0.4856  1.8671
 2408TIP3    H228640   2.903   5.405   5.394  1.1688 -0.7284 -0.3790
 2409TIP3   OH228641   1.184   4.973  11.961 -0.1303  0.6817  0.1963
 2409TIP3    H128642   1.100   4.966  12.006 -0.2277  0.7428  0.0237
 2409TIP3    H228643   1.197   5.067  11.948  0.3596  0.7217  0.9700
 2410TIP3   OH228644   3.031   0.151  10.696  0.0438  0.2553  0.4647
 2410TIP3    H128645   3.028   0.240  10.659 -2.0506  0.1731  0.4029
 2410TIP3    H228646   3.124   0.129  10.694  0.6593  2.6004  0.8401
 2411TIP3   OH228647   4.255   4.257  11.828 -0.4282  0.5811 -0.0562
 2411TIP3    H128648   4.163   4.269  11.806 -0.9190 -2.1617  0.4253
 2411TIP3    H228649   4.255   4.227  11.918  1.0379  1.9045  0.4129
 2412TIP3   OH228650   6.337   2.103  14.004  0.4325  0.2854 -0.0220
 2412TIP3    H128651   6.295   2.184  14.032 -0.8684 -0.6143  0.6717
 2412TIP3    H228652   6.396   2.080  14.076 -1.0231 -0.6677  0.9076
 2413TIP3   OH228653   0.834   0.864   4.784 -0.4716  0.3357 -0.4966
 2413TIP3    H128654   0.914   0.897   4.743  0.9766 -1.1783  1.0341
 2413TIP3    H228655   0.763   0.905   4.735  1.2482  2.8199 -0.9698
 2414TIP3   OH228656   4.106   2.936  16.949 -0.1430  0.0691  0.2120
 2414TIP3    H128657   4.108   2.846  16.917 -1.0246 -0.0690  0.5162
 2414TIP3    H228658   4.026   2.973  16.910  0.4299  0.8449 -0.2453
 2415TIP3   OH228659   4.557   3.372   4.638 -0.2312  0.1406 -0.2162
 2415TIP3    H128660   4.554   3.424   4.719  0.9841 -1.9143  1.1872
 2415TIP3    H228661   4.474   3.392   4.595 -0.3332  2.2817  0.8830
 2416TIP3   OH228662   1.538   5.769  12.643 -0.6030  0.4118 -0.9002
 2416TIP3    H128663   1.571   5.680  12.656 -0.4265  0.6313  0.2482
 2416TIP3    H228664   1.587   5.802  12.568  0.0766 -0.1106 -0.6937
 2417TIP3   OH228665   4.601   1.664   6.707  0.5549  0.4147 -0.2355
 2417TIP3    H128666   4.615   1.696   6.618  3.8623 -2.6473 -0.9117
 2417TIP3    H228667   4.678   1.694   6.756 -0.2039  0.2514  1.0776
 2418TIP3   OH228668   0.890   0.036  13.832 -0.0142  0.7609 -0.8101
 2418TIP3    H128669   0.920  -0.005  13.913 -0.6950 -0.2792 -1.0792
 2418TIP3    H228670   0.910  -0.028  13.764  0.0829  1.4134 -1.3970
 2419TIP3   OH228671   3.157   1.796   5.113  0.0945  0.0908  0.2340
 2419TIP3    H128672   3.141   1.702   5.105 -0.0671  0.0968  0.4539
 2419TIP3    H228673   3.076   1.836   5.081 -1.4115  0.0687  3.7894
 2420TIP3   OH228674   1.302   2.116   4.560 -0.0131 -0.5556 -0.4698
 2420TIP3    H128675   1.384   2.068   4.558 -0.7186 -1.8186  0.1044
 2420TIP3    H228676   1.262   2.098   4.475  0.4983  0.4140 -0.9182
 2421TIP3   OH228677   5.154   2.807  11.049 -0.7056  0.2613  0.3297
 2421TIP3    H128678   5.101   2.768  11.119  0.8632 -0.3900  1.1912
 2421TIP3    H228679   5.189   2.887  11.087  1.2515 -0.7907  0.7654
 2422TIP3   OH228680   5.317   0.325  11.193  0.9979  0.0211  0.2758
 2422TIP3    H128681   5.385   0.389  11.217  1.1259 -0.7480  2.1106
 2422TIP3    H228682   5.279   0.299  11.277 -0.0426 -1.2184 -0.5644
 2423TIP3   OH228683   1.533   3.027   1.512 -0.1294 -0.4238 -0.4274
 2423TIP3    H128684   1.591   3.014   1.437 -0.3153  0.3341 -0.7100
 2423TIP3    H228685   1.526   3.122   1.521 -2.1877 -0.4825 -1.0689
 2424TIP3   OH228686   1.064   3.721   5.768 -0.4104 -0.7395 -0.1118
 2424TIP3    H128687   1.037   3.671   5.845 -1.3113 -0.4014 -0.2014
 2424TIP3    H228688   0.983   3.755   5.731  0.2823  2.1693  0.8838
 2425TIP3   OH228689   5.012   3.564  11.990  0.4625  0.1192 -0.1255
 2425TIP3    H128690   4.992   3.519  12.072 -0.9083 -0.2699 -0.6673
 2425TIP3    H228691   5.061   3.642  12.017 -0.7653  0.4663  1.1304
 2426TIP3   OH228692   1.938   4.255  13.695  0.5829  0.0011  0.4907
 2426TIP3    H128693   1.941   4.339  13.651 -2.2173 -0.2814 -0.3128
 2426TIP3    H228694   2.020   4.212  13.671  1.8147  2.2623  0.5223
 2427TIP3   OH228695   6.004   1.084   3.989 -0.0482  0.1851  0.2292
 2427TIP3    H128696   6.069   1.076   4.058  0.6389  0.0780 -0.4158
 2427TIP3    H228697   6.050   1.129   3.918 -0.9953  1.0546  0.1551
 2428TIP3   OH228698   4.529   0.486  16.414 -0.3987 -0.2930 -0.0058
 2428TIP3    H128699   4.502   0.461  16.502  0.1592 -1.5912 -0.1873
 2428TIP3    H228700   4.610   0.534  16.426 -1.1604  0.9532  0.2957
 2429TIP3   OH228701   1.824   0.189  13.975  0.4863  0.5688  0.0683
 2429TIP3    H128702   1.799   0.256  13.912  1.3470  0.0068 -0.8991
 2429TIP3    H228703   1.906   0.153  13.940  0.3043 -0.6281  0.8419
 2430TIP3   OH228704   0.319   6.422   2.890  0.2359  0.4680 -0.2289
 2430TIP3    H128705   0.337   6.390   2.978  1.6872  0.9768 -0.3277
 2430TIP3    H228706   0.395   6.395   2.838 -0.8185 -0.2532 -1.4523
 2431TIP3   OH228707   1.144   1.811  14.699 -0.4161 -0.0691 -0.5608
 2431TIP3    H128708   1.086   1.800  14.623 -0.1331  0.1525 -0.8150
 2431TIP3    H228709   1.230   1.831  14.660  0.2664 -2.2757 -0.2326
 2432TIP3   OH228710   1.175   1.019  16.546 -0.6470  0.0934  0.0438
 2432TIP3    H128711   1.215   0.985  16.466 -0.7869 -0.1907  0.0947
 2432TIP3    H228712   1.224   1.099  16.566 -0.9844  0.4845 -0.6492
 2433TIP3   OH228713   0.955   2.303  14.851 -0.2455 -0.0203 -0.5859
 2433TIP3    H128714   0.885   2.241  14.828 -0.7887  0.9375 -1.6015
 2433TIP3    H228715   0.917   2.357  14.921 -0.3589  0.1960 -0.8130
 2434TIP3   OH228716   6.634   0.484  16.661  0.0201 -0.0548 -0.2821
 2434TIP3    H128717   6.689   0.483  16.582 -0.3598 -0.7629 -0.5448
 2434TIP3    H228718   6.689   0.523  16.728  1.0966 -1.3894 -0.3620
 2435TIP3   OH228719   6.392   4.144   4.873 -0.6958  0.5583 -0.3420
 2435TIP3    H128720   6.408   4.059   4.913  1.7505  1.2079  0.1295
 2435TIP3    H228721   6.362   4.200   4.945 -0.2125  0.6600 -0.2183
 2436TIP3   OH228722   1.789   2.504   2.707 -0.0199  0.5733 -0.7756
 2436TIP3    H128723   1.804   2.509   2.612  0.3784 -0.0999 -0.7476
 2436TIP3    H228724   1.876   2.505   2.746 -0.2161  2.0324 -0.3483
 2437TIP3   OH228725   3.385   1.372   6.082 -0.7201  0.1393  0.5698
 2437TIP3    H128726   3.380   1.333   6.169 -0.1309 -0.6928  0.2360
 2437TIP3    H228727   3.299   1.357   6.044 -0.9728  0.4879  1.0023
 2438TIP3   OH228728   2.468   6.526  12.678  0.2317 -0.0796 -0.3293
 2438TIP3    H128729   2.439   6.457  12.736 -1.5643  1.0309  0.1084
 2438TIP3    H228730   2.397   6.538  12.615 -0.0679  2.2338  0.3809
 2439TIP3   OH228731   5.850   5.032  13.429 -0.1460 -0.5707 -0.3720
 2439TIP3    H128732   5.848   5.048  13.335  1.3561 -1.6430 -0.6016
 2439TIP3    H228733   5.824   5.116  13.468  1.0940  0.4528 -1.7007
 2440TIP3   OH228734   5.800   2.690  16.078  0.5278  0.3106 -0.4315
 2440TIP3    H128735   5.862   2.660  16.012 -0.6493 -1.6177 -0.6847
 2440TIP3    H228736   5.821   2.639  16.156  0.7221  1.2834  0.1626
 2441TIP3   OH228737   0.068   5.095  11.065 -0.6325  0.0014 -0.3428
 2441TIP3    H128738   0.023   5.050  10.994  0.0888 -1.5448  0.1776
 2441TIP3    H228739   0.043   5.047  11.144  0.1295  0.5239  0.2238
 2442TIP3   OH228740   2.630   6.244   4.552  0.1409  0.2449  0.8624
 2442TIP3    H128741   2.569   6.245   4.626 -0.1420  0.4428  0.6287
 2442TIP3    H228742   2.579   6.207   4.480  0.3118  0.3627  0.6800
 2443TIP3   OH228743   3.922   2.217  14.431 -0.3570 -0.0728  0.1293
 2443TIP3    H128744   3.926   2.208  14.526  0.7200 -0.4134  0.0592
 2443TIP3    H228745   3.881   2.303  14.417 -1.9387 -0.6775  0.8767
 2444TIP3   OH228746   0.062   4.358  14.696 -0.1406  0.0104 -0.1943
 2444TIP3    H128747  -0.011   4.415  14.673 -1.7786 -1.8589  0.2026
 2444TIP3    H228748   0.136   4.391  14.645 -1.3010  1.8365 -0.7348
 2445TIP3   OH228749   6.404   5.847  11.806  0.2431  0.0289  0.3719
 2445TIP3    H128750   6.351   5.905  11.861 -0.2712  0.2070 -0.3004
 2445TIP3    H228751   6.430   5.902  11.732  0.2354 -0.4394  0.0181
 2446TIP3   OH228752   5.242   2.727   5.669 -0.4134  0.1435 -0.5555
 2446TIP3    H128753   5.291   2.712   5.750  1.1214  2.1633 -1.0442
 2446TIP3    H228754   5.193   2.808   5.686 -2.5831 -1.1357 -0.5531
 2447TIP3   OH228755   1.908   3.614   0.147 -0.2118  0.1918  0.7789
 2447TIP3    H128756   1.880   3.541   0.092 -1.3328  0.4904  0.9404
 2447TIP3    H228757   1.972   3.575   0.207 -0.7563 -0.6531  0.8293
 2448TIP3   OH228758   0.280   5.264   0.829 -0.1992 -0.0529 -0.5232
 2448TIP3    H128759   0.307   5.205   0.899  0.6068  0.9648  0.0255
 2448TIP3    H228760   0.352   5.326   0.820 -1.4881  1.4870 -0.3904
 2449TIP3   OH228761   4.335   5.331   3.970 -0.3014  0.1535 -0.0607
 2449TIP3    H128762   4.305   5.330   4.061 -2.3967 -1.2634 -0.7085
 2449TIP3    H228763   4.257   5.354   3.920  0.7532  0.5653 -1.5293
 2450TIP3   OH228764   4.370   3.635   5.041 -0.0575 -0.1651  0.1969
 2450TIP3    H128765   4.318   3.563   5.076 -0.0033  0.7958  2.3052
 2450TIP3    H228766   4.315   3.673   4.972 -0.8624 -1.0448  0.3507
 2451TIP3   OH228767   0.415   3.043   2.246  0.0404 -0.2818 -0.5406
 2451TIP3    H128768   0.337   3.026   2.192 -0.6887 -0.0632  0.4149
 2451TIP3    H228769   0.463   2.961   2.247 -1.0340 -0.9268  0.1956
 2452TIP3   OH228770   4.527   1.400   1.851 -0.2416 -0.0070 -0.4284
 2452TIP3    H128771   4.580   1.428   1.926 -1.1056  1.0177 -0.1809
 2452TIP3    H228772   4.591   1.368   1.787  0.5836  0.0887  0.3434
 2453TIP3   OH228773   1.331   0.532  14.709 -0.3282 -0.0971  0.1094
 2453TIP3    H128774   1.392   0.470  14.750 -2.4299 -2.1896  0.1591
 2453TIP3    H228775   1.246   0.511  14.748 -1.5185  1.1068 -1.7737
 2454TIP3   OH228776   2.572   1.368   3.519 -0.1639 -0.1613  0.3376
 2454TIP3    H128777   2.547   1.430   3.588  0.2549 -0.9579  1.2125
 2454TIP3    H228778   2.561   1.282   3.559 -0.4066 -0.6485 -0.7602
 2455TIP3   OH228779   0.430   6.010  15.503  0.0545 -0.1912 -0.1593
 2455TIP3    H128780   0.371   6.079  15.536  1.2825  0.9893 -0.3833
 2455TIP3    H228781   0.388   5.928  15.530 -1.6611  0.6241 -0.2720
 2456TIP3   OH228782   3.016   3.978  12.879  0.1202 -0.6450  0.5371
 2456TIP3    H128783   2.930   3.976  12.920 -0.2545  0.5124 -0.1485
 2456TIP3    H228784   3.075   3.937  12.942 -1.0443 -1.9922  0.7519
 2457TIP3   OH228785   4.320   1.441   0.209 -0.3509  0.0164 -0.0003
 2457TIP3    H128786   4.367   1.357   0.214 -0.5144 -0.0589  0.3188
 2457TIP3    H228787   4.343   1.476   0.123 -0.3994 -0.4255 -0.1959
 2458TIP3   OH228788   2.086   3.970  15.639 -0.1608  0.6779  0.2351
 2458TIP3    H128789   2.128   4.053  15.618  0.3531  0.5772  0.8337
 2458TIP3    H228790   2.149   3.925  15.696 -1.2671  0.7270  1.5322
 2459TIP3   OH228791   0.319   3.554  15.012  1.0702 -0.0328  0.0096
 2459TIP3    H128792   0.331   3.479  15.070  0.0893 -0.9200 -0.9377
 2459TIP3    H228793   0.408   3.579  14.986  1.2743 -2.5187 -1.7813
 2460TIP3   OH228794   6.181   2.595  13.618 -0.1553 -0.1294 -0.0525
 2460TIP3    H128795   6.145   2.536  13.684  1.0446 -1.9146 -0.9613
 2460TIP3    H228796   6.166   2.550  13.535  1.4068  0.5278 -0.6998
 2461TIP3   OH228797   4.900   1.737  11.683 -0.5421 -0.0296  0.5963
 2461TIP3    H128798   4.824   1.795  11.683 -0.9149 -0.4837 -1.2265
 2461TIP3    H228799   4.968   1.787  11.728 -0.9218  1.7668 -0.7628
 2462TIP3   OH228800   1.568   2.263  13.806  0.4682  0.2385  0.2599
 2462TIP3    H128801   1.584   2.355  13.825  2.4468  0.2170 -1.2290
 2462TIP3    H228802   1.472   2.256  13.803  0.2696  1.9206  1.8438
 2463TIP3   OH228803   0.533   2.217   0.617  0.1057  0.2470  0.3407
 2463TIP3    H128804   0.461   2.275   0.591 -1.9705 -2.3432 -0.0089
 2463TIP3    H228805   0.515   2.197   0.709  0.4530 -0.3023  0.2897
 2464TIP3   OH228806   3.955   4.334   5.375 -0.1536  0.2645  0.6061
 2464TIP3    H128807   4.001   4.308   5.295  0.2780 -0.2499  1.0149
 2464TIP3    H228808   3.951   4.429   5.370  1.3055  0.3455  0.7499
 2465TIP3   OH228809   5.161   6.479  15.276  0.5703  0.0764 -0.0349
 2465TIP3    H128810   5.153   6.545  15.207 -0.0192 -0.7685 -0.7916
 2465TIP3    H228811   5.190   6.400  15.230 -1.2910 -0.9038  0.4392
 2466TIP3   OH228812   2.586   2.161   1.452 -0.9855 -0.2297 -0.2137
 2466TIP3    H128813   2.626   2.177   1.537 -1.5299  0.1297 -0.0181
 2466TIP3    H228814   2.603   2.069   1.433  1.5902  0.3679 -1.0273
 2467TIP3   OH228815   1.715   2.298   3.539  0.0712 -0.5650  0.3256
 2467TIP3    H128816   1.673   2.247   3.608  3.5044 -4.0598  0.0357
 2467TIP3    H228817   1.809   2.294   3.559  0.7749  2.3237 -1.9874
 2468TIP3   OH228818   0.811   6.682   4.524  0.2442  0.0249  0.5333
 2468TIP3    H128819   0.846   6.599   4.556  0.4667 -0.3256 -0.5968
 2468TIP3    H228820   0.739   6.657   4.466  0.3869  0.6182  0.0918
 2469TIP3   OH228821   0.355   0.463   0.453  0.5651 -0.3442 -0.3941
 2469TIP3    H128822   0.434   0.454   0.507 -0.4706 -0.7130  1.1068
 2469TIP3    H228823   0.284   0.473   0.517 -0.8098 -1.7094 -1.6612
 2470TIP3   OH228824   1.435   4.196   4.686  0.4239 -0.2768 -0.1055
 2470TIP3    H128825   1.384   4.246   4.622 -0.3444  0.2227  0.8842
 2470TIP3    H228826   1.492   4.261   4.727  0.8581 -0.5800 -0.2269
 2471TIP3   OH228827   4.984   0.167  12.138  0.9950 -0.2396 -0.6765
 2471TIP3    H128828   4.920   0.237  12.140  1.9382  0.6109 -0.1922
 2471TIP3    H228829   5.047   0.194  12.072  0.6372 -1.2831 -1.4721
 2472TIP3   OH228830   5.075   4.167   3.892  0.0905  0.3215 -0.2307
 2472TIP3    H128831   5.035   4.176   3.978  0.3197 -0.4636 -0.0357
 2472TIP3    H228832   5.008   4.124   3.839  0.2925 -0.0585 -0.1817
 2473TIP3   OH228833   5.864   1.392  10.831  0.1129  0.4769  0.3728
 2473TIP3    H128834   5.799   1.355  10.771  1.3719  0.9114 -1.2817
 2473TIP3    H228835   5.948   1.382  10.785  1.0542  1.1729  1.8941
 2474TIP3   OH228836   5.369   1.298  16.921  0.3144 -0.4752  0.0465
 2474TIP3    H128837   5.387   1.255  17.005  1.5071 -1.6122 -0.7655
 2474TIP3    H228838   5.429   1.373  16.920  1.7677 -1.6091 -0.6322
 2475TIP3   OH228839   3.699   6.473  15.661 -0.4683  0.5874 -0.0521
 2475TIP3    H128840   3.651   6.409  15.713  0.4900 -0.2907 -0.2296
 2475TIP3    H228841   3.740   6.531  15.725  2.3274 -1.6621  0.2991
 2476TIP3   OH228842   5.905   1.732   0.794  0.6706 -0.5674 -0.4690
 2476TIP3    H128843   5.821   1.692   0.818  1.0216 -0.5269  0.8881
 2476TIP3    H228844   5.963   1.657   0.775  0.7516 -0.6428  0.0738
 2477TIP3   OH228845   5.437   5.387  16.761  0.0030  0.1483 -0.6360
 2477TIP3    H128846   5.467   5.415  16.675  1.0147  0.5739 -0.1515
 2477TIP3    H228847   5.468   5.297  16.769  0.6900  0.4091 -0.3532
 2478TIP3   OH228848   0.595   4.698  12.192 -0.1143  0.2090  0.0547
 2478TIP3    H128849   0.541   4.621  12.175 -0.1422  0.4784 -1.1012
 2478TIP3    H228850   0.577   4.721  12.283 -0.8628 -0.5513  0.0975
 2479TIP3   OH228851   6.043   2.806   3.025  0.3684 -0.3413  0.0475
 2479TIP3    H128852   5.976   2.872   3.006 -1.7341 -2.0878  1.1610
 2479TIP3    H228853   5.995   2.735   3.068  2.6848 -2.3368 -0.5702
 2480TIP3   OH228854   2.406   4.517  14.799  0.2749  0.7863  0.0329
 2480TIP3    H128855   2.374   4.602  14.829  3.2207  1.7833  0.5142
 2480TIP3    H228856   2.472   4.492  14.863 -0.5357 -1.9146 -0.1051
 2481TIP3   OH228857   1.064   2.525   6.223  0.0334  0.1290  0.4351
 2481TIP3    H128858   1.031   2.441   6.254 -0.5667 -0.0546 -0.6703
 2481TIP3    H228859   1.105   2.565   6.300  0.6837 -1.3414  0.8735
 2482TIP3   OH228860   6.573   2.530  13.330 -0.0125 -0.0636  0.1683
 2482TIP3    H128861   6.556   2.557  13.420  0.6048 -2.0528  0.9051
 2482TIP3    H228862   6.656   2.574  13.307 -0.8951  1.5869  0.0402
 2483TIP3   OH228863   4.630   3.835   4.077 -0.4625 -0.3230 -0.2355
 2483TIP3    H128864   4.656   3.834   4.169  0.9587 -1.9488 -0.6231
 2483TIP3    H228865   4.558   3.772   4.072 -0.5499 -0.2231 -0.2233
 2484TIP3   OH228866   5.945   3.940   3.341  0.2915  0.4600 -0.1378
 2484TIP3    H128867   5.931   3.906   3.430 -0.7042 -1.0879 -0.8607
 2484TIP3    H228868   5.989   3.869   3.295  0.5719  1.1606 -0.9555
 2485TIP3   OH228869   4.977   4.688   4.494  0.3629  0.3200  0.0664
 2485TIP3    H128870   4.913   4.618   4.506  0.7685  0.2075  1.6470
 2485TIP3    H228871   4.926   4.768   4.499 -0.0183  0.1761 -1.2041
 2486TIP3   OH228872   0.448   5.444   0.004  0.4918 -0.0788  0.5116
 2486TIP3    H128873   0.536   5.409  -0.002 -0.1895 -2.0374  1.5570
 2486TIP3    H228874   0.458   5.537  -0.016  2.6145 -0.4819 -0.4408
 2487TIP3   OH228875   2.298   6.025  17.112  0.4848 -0.3921 -0.1257
 2487TIP3    H128876   2.229   6.086  17.134  0.8534  0.5701 -1.6015
 2487TIP3    H228877   2.252   5.947  17.078  0.1018  0.0838 -0.7125
 2488TIP3   OH228878   1.768   2.943  15.645  0.5148 -0.2148 -0.2951
 2488TIP3    H128879   1.794   2.969  15.733  1.6289  0.1975 -0.7304
 2488TIP3    H228880   1.850   2.940  15.596 -0.4152  2.7059 -2.1579
 2489TIP3   OH228881   6.335   5.489  14.229  0.6847 -0.1954  0.1015
 2489TIP3    H128882   6.265   5.426  14.211  1.3844 -1.7084  2.3808
 2489TIP3    H228883   6.398   5.476  14.158 -1.6213  1.7134 -2.4070
 2490TIP3   OH228884   5.847   5.026  16.563 -0.3852 -0.7888 -0.7416
 2490TIP3    H128885   5.929   5.013  16.610 -1.7647  2.7182  2.8323
 2490TIP3    H228886   5.779   5.001  16.626 -2.2070  1.1093 -1.9091
 2491TIP3   OH228887   2.859   0.610  11.442 -0.5273 -0.0519 -0.3879
 2491TIP3    H128888   2.947   0.596  11.408 -1.2407 -1.9475 -1.5394
 2491TIP3    H228889   2.870   0.616  11.537  0.6836 -1.7594 -0.4018
 2492TIP3   OH228890   2.987   0.026  16.699 -0.0183 -0.1373 -0.3051
 2492TIP3    H128891   3.077   0.004  16.722  0.4246  0.8560 -1.0704
 2492TIP3    H228892   2.966  -0.032  16.625 -0.4746 -1.3238  0.7472
 2493TIP3   OH228893   0.009   6.404  10.938  0.2589  0.4452  0.0176
 2493TIP3    H128894  -0.068   6.441  10.982  0.8323  2.0785 -0.3302
 2493TIP3    H228895   0.082   6.424  10.996  0.3969 -1.4727  0.5536
 2494TIP3   OH228896   5.347   6.614   1.634  0.5140  0.3710 -0.3336
 2494TIP3    H128897   5.434   6.598   1.597  0.1608  0.8645 -1.3992
 2494TIP3    H228898   5.355   6.697   1.680  0.9280 -0.1943  0.6389
 2495TIP3   OH228899   2.084   5.272   1.283 -0.3051 -0.2285 -0.8286
 2495TIP3    H128900   2.104   5.287   1.376 -1.3153 -0.4645 -0.5655
 2495TIP3    H228901   2.148   5.207   1.255 -0.3247 -0.5388 -0.1616
 2496TIP3   OH228902   4.691   5.829  13.966  0.2899 -0.1772  0.3702
 2496TIP3    H128903   4.596   5.833  13.977 -0.2207  1.4344 -3.6032
 2496TIP3    H228904   4.725   5.901  14.020 -1.1904  1.9819 -1.4726
 2497TIP3   OH228905   2.848   4.452  12.483 -0.5882 -0.4816  0.7072
 2497TIP3    H128906   2.820   4.372  12.528 -1.3518  0.7224  2.4056
 2497TIP3    H228907   2.942   4.458  12.500 -0.8503 -0.1087  2.0279
 2498TIP3   OH228908   1.184   5.056  16.561  0.5095 -0.0278  0.5456
 2498TIP3    H128909   1.130   5.084  16.636 -0.0057  1.9884 -0.5261
 2498TIP3    H228910   1.257   5.118  16.559  1.4358 -1.1052  0.3734
 2499TIP3   OH228911   5.470   4.782   6.336  0.2018  0.0680 -0.2105
 2499TIP3    H128912   5.555   4.806   6.372  0.5708 -2.8525  1.0600
 2499TIP3    H228913   5.415   4.859   6.349  1.6008  0.6617  2.5359
 2500TIP3   OH228914   4.567   1.347   4.902 -0.4304 -0.3341  0.2077
 2500TIP3    H128915   4.504   1.419   4.902 -0.2017 -0.1259 -0.8497
 2500TIP3    H228916   4.613   1.356   4.985  1.1191  2.0953 -0.8674
 2501TIP3   OH228917   2.108   0.217   5.248 -0.4148 -0.2813  0.2192
 2501TIP3    H128918   2.052   0.142   5.267 -0.1339 -0.9179 -1.3191
 2501TIP3    H228919   2.181   0.179   5.198  0.3648  0.8372  0.4964
 2502TIP3   OH228920   1.943   4.136   4.140  0.3091 -0.0235  0.1525
 2502TIP3    H128921   1.903   4.133   4.053  0.2815  0.5784  0.1377
 2502TIP3    H228922   2.036   4.147   4.123  0.1735  1.2690  0.2019
 2503TIP3   OH228923   0.396   0.792   1.012 -0.7684 -0.1687 -0.0515
 2503TIP3    H128924   0.412   0.712   1.063 -1.9456 -0.9899 -0.9379
 2503TIP3    H228925   0.437   0.862   1.063 -0.5234 -1.2042  1.2000
 2504TIP3   OH228926   1.142   0.422   1.519 -0.3348  0.6946  0.6344
 2504TIP3    H128927   1.153   0.365   1.595  0.7220  0.9532  0.6807
 2504TIP3    H228928   1.176   0.371   1.446 -1.7276  0.2859  0.2553
 2505TIP3   OH228929   5.515   3.011   0.362 -0.2427  0.0243 -0.0299
 2505TIP3    H128930   5.437   2.972   0.402  1.1446 -1.5766  1.2279
 2505TIP3    H228931   5.505   3.105   0.375 -1.2355 -0.2757  1.4917
 2506TIP3   OH228932   6.056   0.083  14.739 -0.2745  0.0860  0.9560
 2506TIP3    H128933   6.025   0.122  14.820  1.4794  2.3778  0.5788
 2506TIP3    H228934   6.135   0.035  14.764 -0.1900  0.1216  0.7596
 2507TIP3   OH228935   4.236   1.761  13.696  0.1358 -0.1837  0.8244
 2507TIP3    H128936   4.244   1.706  13.618  1.1908  0.1371  0.7000
 2507TIP3    H228937   4.164   1.820  13.676  2.0288  1.5995 -0.9743
 2508TIP3   OH228938   4.001   2.244  15.220 -0.4253 -0.0934 -0.9183
 2508TIP3    H128939   3.987   2.189  15.297 -0.1556  1.2482  0.1159
 2508TIP3    H228940   4.096   2.249  15.211 -0.3804  1.7109  0.1474
 2509TIP3   OH228941   0.724   2.979   4.714  0.3680 -0.1459  0.9157
 2509TIP3    H128942   0.806   2.963   4.761  0.8293 -0.6055 -0.0366
 2509TIP3    H228943   0.729   2.923   4.637  0.8447  2.5483 -1.0971
 2510TIP3   OH228944   0.121   2.212   4.058  0.4259 -0.2584  0.1338
 2510TIP3    H128945   0.046   2.195   4.115  0.1925 -0.2740 -0.1770
 2510TIP3    H228946   0.132   2.307   4.062  0.9764 -0.3508  0.9174
 2511TIP3   OH228947   5.815   5.186  11.168 -0.2764 -0.4101  0.4033
 2511TIP3    H128948   5.723   5.207  11.184 -0.4143 -0.7360  0.0475
 2511TIP3    H228949   5.814   5.126  11.093  0.2828  0.3302 -0.2189
 2512TIP3   OH228950   1.656   4.384  11.713 -0.1820 -0.1741 -0.7691
 2512TIP3    H128951   1.750   4.394  11.728 -0.0371 -1.8968 -0.3957
 2512TIP3    H228952   1.650   4.312  11.650 -1.2786 -0.5819 -0.2026
 2513TIP3   OH228953   1.862   2.150  17.212  0.2649  0.1144  0.4803
 2513TIP3    H128954   1.923   2.080  17.188 -1.0696 -0.2456 -2.1144
 2513TIP3    H228955   1.862   2.209  17.137 -1.4940  0.8499  1.0131
 2514TIP3   OH228956   2.458   3.639  11.911 -0.1830  0.0092  0.1906
 2514TIP3    H128957   2.374   3.636  11.865 -0.4451 -1.4311  0.7493
 2514TIP3    H228958   2.522   3.609  11.846 -0.2037  0.4152 -0.0154
 2515TIP3   OH228959   4.114   5.395  11.040 -0.4071  0.1976 -0.5738
 2515TIP3    H128960   4.035   5.417  11.089  0.3755 -0.3026  0.9889
 2515TIP3    H228961   4.099   5.306  11.009 -0.2067 -0.1612  0.3171
 2516TIP3   OH228962   2.883   1.863   6.223 -0.6206 -0.7163  0.2635
 2516TIP3    H128963   2.844   1.775   6.217  1.0585 -1.6247  2.1485
 2516TIP3    H228964   2.880   1.884   6.317 -0.8721  1.2012 -0.1538
 2517TIP3   OH228965   1.530   6.508  15.251 -0.0668  0.4882 -0.3256
 2517TIP3    H128966   1.539   6.450  15.175  1.2001  1.2876 -0.7976
 2517TIP3    H228967   1.619   6.515  15.286 -0.8719 -1.2102  2.2556
 2518TIP3   OH228968   2.581   6.019  14.600  0.1170  0.2678 -0.3330
 2518TIP3    H128969   2.647   5.981  14.659 -1.6525 -1.8438  0.3664
 2518TIP3    H228970   2.619   6.010  14.512  1.0794 -0.2324  0.1312
 2519TIP3   OH228971   5.469   6.326  16.290 -0.0488  0.1627  0.6562
 2519TIP3    H128972   5.434   6.398  16.342 -1.1032  0.7041 -0.7854
 2519TIP3    H228973   5.395   6.294  16.239  1.5915  1.7233 -2.8830
 2520TIP3   OH228974   3.565   2.999   5.459 -0.1184 -0.1510 -0.3914
 2520TIP3    H128975   3.647   3.017   5.413  0.1415 -0.0786  0.0930
 2520TIP3    H228976   3.561   3.066   5.527 -0.3893 -0.3912 -0.1685
 2521TIP3   OH228977   4.604   3.122  16.646 -0.3288 -0.0028  0.2048
 2521TIP3    H128978   4.674   3.187  16.648 -0.0472 -0.2850 -0.1715
 2521TIP3    H228979   4.525   3.172  16.629 -0.4030  0.4611  1.8705
 2522TIP3   OH228980   2.235   2.204  12.176 -0.1891  0.0595 -0.4289
 2522TIP3    H128981   2.187   2.280  12.210  1.1321  0.6014  0.2506
 2522TIP3    H228982   2.305   2.241  12.123  1.1167 -0.6439  0.7636
 2523TIP3   OH228983   0.934   6.014   1.849 -0.1151 -0.9424  0.2908
 2523TIP3    H128984   0.953   6.047   1.936  1.1080 -0.9369  0.0274
 2523TIP3    H228985   0.970   6.080   1.790 -0.9464 -0.9380 -0.2199
 2524TIP3   OH228986   6.608   2.560   5.870 -0.4891 -0.0384 -0.1794
 2524TIP3    H128987   6.581   2.529   5.956  1.4262 -0.6249  0.2235
 2524TIP3    H228988   6.568   2.647   5.862 -0.3449  0.1826  1.4490
 2525TIP3   OH228989   4.850   6.419   3.076  0.1723 -0.3783 -0.5173
 2525TIP3    H128990   4.864   6.372   3.158 -3.3185 -0.3531  0.1784
 2525TIP3    H228991   4.861   6.353   3.008  1.9051 -0.6709  0.0355
 2526TIP3   OH228992   0.992   3.172   0.188 -0.5786  0.4663 -0.0667
 2526TIP3    H128993   0.930   3.166   0.260  0.9331 -0.3576  1.1836
 2526TIP3    H228994   1.073   3.206   0.228  0.7489 -1.4440 -1.0535
 2527TIP3   OH228995   3.042   5.390   2.701 -0.4170  0.1918  0.0249
 2527TIP3    H128996   3.128   5.348   2.710  0.3766  1.2443 -2.3811
 2527TIP3    H228997   2.980   5.317   2.697  0.1985 -0.5629  2.8131
 2528TIP3   OH228998   4.657   2.058  16.433  0.0242  0.4917 -0.4090
 2528TIP3    H128999   4.576   2.012  16.415 -0.2906  0.3457  1.3116
 2528TIP3    H229000   4.722   1.989  16.447 -0.6691  0.4574  3.1954
 2529TIP3   OH229001   0.827   3.058   5.334 -0.3016 -0.2851  0.2623
 2529TIP3    H129002   0.820   2.990   5.401  2.3698  2.2115  3.1935
 2529TIP3    H229003   0.818   3.010   5.251 -1.9109 -3.7000  2.2969
 2530TIP3   OH229004   5.753   1.882  13.891 -0.1709 -0.1869  0.9563
 2530TIP3    H129005   5.690   1.856  13.824 -2.2756 -2.2945  3.6741
 2530TIP3    H229006   5.715   1.961  13.931  1.1415  1.1408 -0.3407
 2531TIP3   OH229007   3.456   0.505   0.468  0.0853  0.1392  0.4145
 2531TIP3    H129008   3.535   0.524   0.519  1.0270 -1.5504 -0.3556
 2531TIP3    H229009   3.453   0.409   0.464 -1.5190  0.2014 -0.3495
 2532TIP3   OH229010   4.906   0.732   3.594 -0.1479 -0.4180  0.3830
 2532TIP3    H129011   4.829   0.787   3.609 -0.0994 -0.0500 -0.6500
 2532TIP3    H229012   4.886   0.685   3.513  0.2424 -1.1654  0.7160
 2533TIP3   OH229013   6.067   3.026  11.848  0.5303 -0.1708  0.4688
 2533TIP3    H129014   6.131   3.080  11.894  0.6607 -0.9143  1.1665
 2533TIP3    H229015   5.983   3.051  11.887  0.4489  0.4177 -0.0716
 2534TIP3   OH229016   5.355   6.249  16.608  0.5407  0.1362  0.0784
 2534TIP3    H129017   5.377   6.330  16.564 -1.3101  1.7865  2.0742
 2534TIP3    H229018   5.439   6.204  16.619  1.5990  1.8264 -0.9391
 2535TIP3   OH229019   3.209   1.781   3.532  0.8363  0.5804  0.2401
 2535TIP3    H129020   3.241   1.704   3.485  1.8819  0.9297  0.3623
 2535TIP3    H229021   3.247   1.855   3.485  1.4686  0.9499  1.3114
 2536TIP3   OH229022   4.660   1.790  14.058  0.4679 -0.3698  0.2755
 2536TIP3    H129023   4.695   1.802  13.970 -0.2637  1.2774  0.1962
 2536TIP3    H229024   4.669   1.696  14.075 -1.8854 -1.2033 -2.6416
 2537TIP3   OH229025   3.896   2.764  16.835 -0.1371 -0.3867  0.3934
 2537TIP3    H129026   3.838   2.823  16.787 -1.2350  0.8570  3.1547
 2537TIP3    H229027   3.838   2.700  16.876  0.6108 -0.4675  1.3497
 2538TIP3   OH229028   4.903   4.365   2.991 -0.0121  0.2849 -0.0726
 2538TIP3    H129029   4.878   4.354   2.899  2.3412  0.2077 -0.7492
 2538TIP3    H229030   4.938   4.280   3.017 -0.2592  0.4363  0.7586
 2539TIP3   OH229031   4.678   0.810  16.167  0.7638  0.1114  0.0540
 2539TIP3    H129032   4.674   0.835  16.074  0.9228 -0.8202 -0.2122
 2539TIP3    H229033   4.591   0.831  16.201  1.1050  1.6561  0.0193
 2540TIP3   OH229034   5.909   2.689  13.645  0.5060  0.3671 -0.0080
 2540TIP3    H129035   5.873   2.712  13.559  2.3832  1.4811 -0.5169
 2540TIP3    H229036   6.004   2.685  13.631  0.6193 -2.3839  1.3434
 2541TIP3   OH229037   5.053   6.632   0.185 -0.1249  0.4187  0.3345
 2541TIP3    H129038   5.047   6.607   0.277  0.2720 -0.8388  0.0310
 2541TIP3    H229039   5.118   6.701   0.183  1.5017 -1.0606  0.7160
 2542TIP3   OH229040   3.131   1.705  13.779  0.0047  0.2726 -0.1523
 2542TIP3    H129041   3.175   1.716  13.695  0.6486  1.0582  0.2838
 2542TIP3    H229042   3.202   1.707  13.843 -0.6400  1.3286  0.5310
 2543TIP3   OH229043   1.014   6.513   2.596  0.0537  0.3503  0.3524
 2543TIP3    H129044   0.927   6.481   2.570  0.5580 -1.2235  0.5174
 2543TIP3    H229045   1.015   6.506   2.691  0.2995  0.5001  0.3608
 2544TIP3   OH229046   2.989   6.504  15.498 -0.2975  0.2712  0.3929
 2544TIP3    H129047   2.909   6.477  15.542 -0.6269  0.8099  0.1377
 2544TIP3    H229048   2.996   6.598  15.518 -0.5768  0.5728 -0.8794
 2545TIP3   OH229049   1.515   2.025  12.747  0.4581 -0.8799  0.2547
 2545TIP3    H129050   1.566   2.076  12.683  0.4516 -0.2511  0.7425
 2545TIP3    H229051   1.427   2.062  12.742  0.4507 -0.8513  0.6062
 2546TIP3   OH229052   3.120   0.526  15.720  0.5185 -0.0491  1.1387
 2546TIP3    H129053   3.103   0.484  15.804  0.5495 -0.6336  0.8505
 2546TIP3    H229054   3.215   0.543  15.720  0.6905 -1.0211  0.7655
 2547TIP3   OH229055   6.625   0.753   2.229 -0.0381 -0.1097 -0.3316
 2547TIP3    H129056   6.659   0.824   2.174  2.2519 -0.9402 -0.0689
 2547TIP3    H229057   6.589   0.797   2.305  1.6813  0.7841 -0.0006
 2548TIP3   OH229058   3.281   3.279  13.304 -0.2504 -0.1683 -0.6041
 2548TIP3    H129059   3.323   3.203  13.344  0.0748  0.8875  1.0910
 2548TIP3    H229060   3.187   3.258  13.305 -0.1731 -0.4874 -0.0124
 2549TIP3   OH229061   1.628   2.749   0.987 -0.3291  0.6751  0.3669
 2549TIP3    H129062   1.631   2.690   1.063 -1.6090 -0.6603 -0.6010
 2549TIP3    H229063   1.535   2.765   0.973 -0.2560 -0.8202 -2.2143
 2550TIP3   OH229064   3.126   1.144   2.536  0.0200 -0.2207 -0.4400
 2550TIP3    H129065   3.106   1.069   2.480 -0.2003 -0.8986  0.5360
 2550TIP3    H229066   3.196   1.114   2.593  2.6252  1.5412 -2.5642
 2551TIP3   OH229067   3.482   4.666   5.170 -0.1935 -0.2292 -0.9932
 2551TIP3    H129068   3.462   4.743   5.224  3.2953 -0.4200  0.6915
 2551TIP3    H229069   3.573   4.678   5.144 -0.2796 -2.6994 -2.6083
 2552TIP3   OH229070   4.276   0.336  16.835 -0.3959  0.1176  0.4185
 2552TIP3    H129071   4.191   0.358  16.798 -0.7451 -2.2160 -0.2005
 2552TIP3    H229072   4.282   0.390  16.914 -2.7898 -0.3214  0.9203
 2553TIP3   OH229073   4.899   0.977  15.942  0.6765  0.0466 -0.7152
 2553TIP3    H129074   4.912   0.982  16.037 -0.1919  1.4493 -0.6704
 2553TIP3    H229075   4.889   1.067  15.914  0.2617 -0.4086 -2.0547
 2554TIP3   OH229076   1.048   2.364  15.206 -0.0698  0.0142 -0.3187
 2554TIP3    H129077   1.080   2.326  15.124 -0.6203  0.0217 -0.5400
 2554TIP3    H229078   1.124   2.409  15.243  1.6229 -4.2321  1.7185
 2555TIP3   OH229079   3.739   2.791  12.220  0.5590 -0.4715 -0.1599
 2555TIP3    H129080   3.758   2.849  12.294  1.9545  0.1541 -0.9908
 2555TIP3    H229081   3.704   2.849  12.152 -2.2308 -1.2612  0.5056
 2556TIP3   OH229082   5.554   0.303   0.367  0.5958  0.5942  0.0695
 2556TIP3    H129083   5.557   0.238   0.297 -0.3730  0.4604  0.1441
 2556TIP3    H229084   5.610   0.374   0.337  3.7624 -1.3699  1.1327
 2557TIP3   OH229085   2.976   1.867  12.322  0.5460 -0.2479  0.8849
 2557TIP3    H129086   3.038   1.847  12.251  0.4018  1.1296  0.3667
 2557TIP3    H229087   3.027   1.854  12.402  1.4098  0.5381  0.4740
 2558TIP3   OH229088   0.820   4.996  14.728  0.3864  0.7829 -0.2168
 2558TIP3    H129089   0.829   5.091  14.729  1.4837  0.7048 -1.1577
 2558TIP3    H229090   0.859   4.970  14.645  1.3640 -0.6220  0.6766
 2559TIP3   OH229091   5.569   2.414  11.137 -0.1435  0.4101 -0.2071
 2559TIP3    H129092   5.492   2.433  11.084 -0.4768  0.6478  0.3606
 2559TIP3    H229093   5.542   2.433  11.227  0.8390  1.3207 -0.0949
 2560TIP3   OH229094   1.829   2.600  14.332  0.1502  0.4720  0.4292
 2560TIP3    H129095   1.881   2.656  14.274  2.4734 -1.3879  0.6177
 2560TIP3    H229096   1.877   2.517  14.334 -2.2962 -0.9754  1.4891
 2561TIP3   OH229097   3.960   0.768   4.881 -0.7541 -0.3560 -0.2339
 2561TIP3    H129098   3.878   0.811   4.905 -0.9184 -0.1089 -1.2128
 2561TIP3    H229099   4.020   0.789   4.952 -1.3035  0.1493  0.0847
 2562TIP3   OH229100   4.138   5.292   1.739  0.0432  0.9864 -0.2704
 2562TIP3    H129101   4.113   5.344   1.662  0.9497 -0.0771 -1.2993
 2562TIP3    H229102   4.056   5.258   1.773 -0.5128  2.6204  0.0924
 2563TIP3   OH229103   4.552   6.687   4.843 -0.2020  0.5429 -0.2785
 2563TIP3    H129104   4.538   6.593   4.835 -0.9046  0.6506 -0.3275
 2563TIP3    H229105   4.574   6.700   4.935 -0.8395  0.4213 -0.1035
 2564TIP3   OH229106   1.678   3.495   1.623 -0.7183  0.0690 -0.3922
 2564TIP3    H129107   1.644   3.538   1.702  0.1704 -1.3232  0.7658
 2564TIP3    H229108   1.759   3.541   1.603 -0.8016  0.2468 -0.3188
 2565TIP3   OH229109   4.147   4.587   5.456 -0.0930 -0.2874  0.1190
 2565TIP3    H129110   4.094   4.594   5.376 -1.5304  0.3121  1.1158
 2565TIP3    H229111   4.092   4.623   5.525  2.1172  1.6816  0.9621
 2566TIP3   OH229112   5.947   1.178  11.208  0.0197  0.4689  0.4327
 2566TIP3    H129113   5.913   1.187  11.296 -0.7778 -0.4760  0.2270
 2566TIP3    H229114   5.964   1.268  11.179 -2.1953  0.9338  0.5596
 2567TIP3   OH229115   5.925   5.292   1.285 -0.4879  0.0754  0.4283
 2567TIP3    H129116   5.994   5.249   1.235 -0.2153 -0.2814  1.1006
 2567TIP3    H229117   5.849   5.292   1.227  0.2517  1.0425 -0.5615
 2568TIP3   OH229118   2.657   6.693  17.016  0.0444  0.3834  0.3992
 2568TIP3    H129119   2.674   6.784  16.990 -1.4773  0.3484 -0.8309
 2568TIP3    H229120   2.600   6.659  16.946  0.9589 -1.6508  0.6230
 2569TIP3   OH229121   0.059   5.335   1.808  0.3030  0.1870  0.4543
 2569TIP3    H129122   0.104   5.390   1.744  2.0138 -1.0972  0.5292
 2569TIP3    H229123   0.076   5.376   1.892  2.8255 -1.2100  0.6773
 2570TIP3   OH229124   2.754   4.183  17.093 -0.2512 -0.5358 -0.6340
 2570TIP3    H129125   2.847   4.164  17.087  0.2846  1.6425  0.2604
 2570TIP3    H229126   2.722   4.175  17.003  1.8486  3.6013 -1.8581
 2571TIP3   OH229127   0.458   3.634  16.184 -0.4821 -0.1668  0.2357
 2571TIP3    H129128   0.457   3.713  16.238  1.1304  0.1572 -0.1829
 2571TIP3    H229129   0.379   3.588  16.208 -2.5118  2.5519 -0.9610
 2572TIP3   OH229130   1.067   3.137   4.504 -0.3881 -0.1752 -0.0094
 2572TIP3    H129131   1.058   3.125   4.409 -1.0850 -0.5730  0.0998
 2572TIP3    H229132   1.125   3.066   4.531 -0.3638 -0.1936 -0.1075
 2573TIP3   OH229133   0.261   0.786   1.564 -0.1979  0.1553 -0.1358
 2573TIP3    H129134   0.207   0.802   1.642 -1.3223 -2.4976 -0.3191
 2573TIP3    H229135   0.351   0.794   1.595 -0.6440  2.6395  0.6303
 2574TIP3   OH229136   0.074   6.318   2.256 -0.2475  0.2421 -0.5743
 2574TIP3    H129137   0.140   6.334   2.189 -0.3432 -0.0286 -0.7326
 2574TIP3    H229138  -0.009   6.342   2.215 -0.1160  1.9372  0.0807
 2575TIP3   OH229139   3.884   6.093   1.492 -0.2113  0.0784 -0.0189
 2575TIP3    H129140   3.909   6.140   1.412  2.7956 -0.8853  0.2772
 2575TIP3    H229141   3.921   6.145   1.563 -0.6719 -0.4164  0.5921
 2576TIP3   OH229142   1.861   5.046  12.341 -0.2663  0.7336 -0.5291
 2576TIP3    H129143   1.956   5.057  12.342 -0.3618  1.7842 -2.1910
 2576TIP3    H229144   1.846   4.968  12.394  1.5079  0.6450 -0.1161
 2577TIP3   OH229145   6.647   2.744  16.872 -0.3890  0.0786  0.0632
 2577TIP3    H129146   6.558   2.714  16.855 -0.1690  0.6693 -2.2165
 2577TIP3    H229147   6.668   2.802  16.799  2.6284 -1.7406 -0.6195
 2578TIP3   OH229148   2.815   1.273  16.861  0.4300 -0.1867  0.0706
 2578TIP3    H129149   2.850   1.226  16.937 -1.5528 -1.5015  0.2153
 2578TIP3    H229150   2.834   1.216  16.787 -0.2495 -0.3095 -0.0149
 2579TIP3   OH229151   1.688   3.882   0.901  0.3711 -0.3500 -0.2384
 2579TIP3    H129152   1.763   3.919   0.948 -0.7914  0.6383  0.8795
 2579TIP3    H229153   1.679   3.794   0.937  2.9636 -1.6936 -2.6941
 2580TIP3   OH229154   3.300   2.624   2.610  0.2846 -0.2257 -0.0733
 2580TIP3    H129155   3.281   2.637   2.517 -2.2135  1.1496  0.5837
 2580TIP3    H229156   3.254   2.543   2.633  0.2410 -0.1437  0.1309
 2581TIP3   OH229157   3.513   2.160   2.377  0.0067 -0.4111 -0.1298
 2581TIP3    H129158   3.579   2.093   2.359  1.1433  0.6746 -0.0063
 2581TIP3    H229159   3.525   2.225   2.308  1.7358  1.7822  2.1209
 2582TIP3   OH229160   2.319   1.730   1.304 -0.5545 -0.6535 -0.3319
 2582TIP3    H129161   2.304   1.810   1.354 -1.8567 -0.3260 -1.2432
 2582TIP3    H229162   2.410   1.707   1.323 -0.0919  1.1806 -0.2725
 2583TIP3   OH229163   4.377   3.252   5.546  0.1674 -0.2298  0.0359
 2583TIP3    H129164   4.337   3.322   5.598 -1.9965 -1.8191  0.5569
 2583TIP3    H229165   4.409   3.189   5.611 -0.4093 -1.0783 -0.5004
 2584TIP3   OH229166   1.534   2.268  15.337 -0.4376  0.7478 -0.0977
 2584TIP3    H129167   1.442   2.289  15.356 -1.1191 -0.2958 -2.1027
 2584TIP3    H229168   1.565   2.342  15.285 -0.6797  0.2549 -0.9479
 2585TIP3   OH229169   3.719   6.537  13.784 -0.0329  0.1479 -0.7152
 2585TIP3    H129170   3.658   6.533  13.858  0.5539 -2.4541 -0.3083
 2585TIP3    H229171   3.801   6.568  13.822 -0.4756  1.4796 -0.8280
 2586TIP3   OH229172   0.583   4.460  14.158  0.5978  0.3065  0.0216
 2586TIP3    H129173   0.667   4.433  14.195  0.8260 -1.3403 -1.5946
 2586TIP3    H229174   0.549   4.525  14.220  3.0477  1.0017  0.6814
 2587TIP3   OH229175   0.849   5.398   2.473  0.7982  0.3350  0.1991
 2587TIP3    H129176   0.834   5.307   2.446  2.5457  0.2342 -0.5111
 2587TIP3    H229177   0.763   5.431   2.497  0.0660 -1.3455 -0.0714
 2588TIP3   OH229178   2.962   3.685   1.731  0.5773  0.3842  0.2001
 2588TIP3    H129179   2.893   3.666   1.794  1.8054 -0.0323  1.4482
 2588TIP3    H229180   2.933   3.765   1.688 -1.5874 -0.8195 -0.6448
 2589TIP3   OH229181   2.353   0.264   1.718 -0.5353  0.1703 -0.3187
 2589TIP3    H129182   2.312   0.177   1.712 -2.1803  0.9229 -0.1448
 2589TIP3    H229183   2.415   0.266   1.645 -0.8387 -0.9700 -0.6176
 2590TIP3   OH229184   5.857   3.612  15.650 -0.5406  0.4043  1.1420
 2590TIP3    H129185   5.768   3.602  15.616  0.7412 -0.1660 -2.2951
 2590TIP3    H229186   5.904   3.657  15.580  1.9877  0.2302  2.6827
 2591TIP3   OH229187   2.623   4.287   1.086  0.5467 -0.2315 -0.3396
 2591TIP3    H129188   2.577   4.344   1.026  0.1404  0.0540  0.2423
 2591TIP3    H229189   2.645   4.210   1.034  0.4911  0.1583 -0.9381
 2592TIP3   OH229190   4.204   6.712  15.853  0.4323 -0.0329  0.1798
 2592TIP3    H129191   4.142   6.657  15.805 -1.0796  1.1228  0.7783
 2592TIP3    H229192   4.234   6.776  15.788 -0.7277  0.8060  0.4571
 2593TIP3   OH229193   1.837   4.934  16.229 -0.5207  0.5068  0.5220
 2593TIP3    H129194   1.754   4.936  16.276  0.9478 -1.2577  3.3483
 2593TIP3    H229195   1.821   4.877  16.154 -2.2455  1.3282  0.2642
 2594TIP3   OH229196   0.025   0.648  12.370 -0.3618  0.1061  0.0991
 2594TIP3    H129197  -0.033   0.724  12.370  0.8325  1.0385  1.8160
 2594TIP3    H229198  -0.019   0.584  12.427  0.0103  0.6008  0.9495
 2595TIP3   OH229199   2.109   6.231   0.111 -0.2538 -0.4268  0.4097
 2595TIP3    H129200   2.173   6.297   0.139  0.4996 -1.4346  1.1103
 2595TIP3    H229201   2.130   6.153   0.163 -1.6544 -0.9729  0.1887
 2596TIP3   OH229202   1.227   3.622  11.884 -0.1932 -0.2413  0.1077
 2596TIP3    H129203   1.237   3.574  11.966 -0.5463  0.3005  0.4699
 2596TIP3    H229204   1.134   3.643  11.880  0.0265  0.7687  0.1550
 2597TIP3   OH229205   6.448   5.865   5.062 -0.2767  0.1954  0.0718
 2597TIP3    H129206   6.379   5.910   5.109  0.9602  1.2408  0.9339
 2597TIP3    H229207   6.491   5.934   5.010  0.1125 -0.4324 -0.4567
 2598TIP3   OH229208   0.113   4.387  14.997 -0.0450  0.6065 -0.0796
 2598TIP3    H129209   0.057   4.380  14.919 -1.1415  0.1571  0.7323
 2598TIP3    H229210   0.197   4.417  14.963  0.2580 -1.9842 -1.7869
 2599TIP3   OH229211   6.686   3.714  11.500 -0.2764 -0.3217 -0.8219
 2599TIP3    H129212   6.593   3.725  11.519 -0.0565 -0.7113  0.5853
 2599TIP3    H229213   6.714   3.798  11.463 -0.7591  0.4844  0.5967
 2600TIP3   OH229214   0.048   5.104   0.181  0.1975  0.0402  0.2561
 2600TIP3    H129215   0.056   5.019   0.139 -1.6445 -0.2945  0.5549
 2600TIP3    H229216   0.030   5.166   0.110  1.8390  0.2535  0.0012
 2601TIP3   OH229217   3.197   6.688  14.360  0.3282  0.0310 -0.2817
 2601TIP3    H129218   3.106   6.678  14.389  0.8255 -0.0724  1.2863
 2601TIP3    H229219   3.190   6.721  14.271 -1.2591 -1.7369 -0.8368
 2602TIP3   OH229220   2.556   3.934  16.179 -0.1773 -0.0931  0.0366
 2602TIP3    H129221   2.516   3.938  16.266 -1.2584 -1.5307 -0.3663
 2602TIP3    H229222   2.561   3.840  16.160 -0.8792  0.2459 -1.8785
 2603TIP3   OH229223   1.099   1.197  13.414 -0.3245  0.6376  0.0920
 2603TIP3    H129224   1.038   1.155  13.473 -0.9736 -0.8191 -1.5563
 2603TIP3    H229225   1.102   1.140  13.337  1.9732  1.4353 -0.4860
 2604TIP3   OH229226   3.976   4.401   4.745 -0.8861 -0.5655 -0.9923
 2604TIP3    H129227   4.066   4.414   4.717 -0.8568  0.1871 -0.5471
 2604TIP3    H229228   3.937   4.488   4.746 -1.2054 -0.7033  0.2143
 2605TIP3   OH229229   5.279   0.622   5.200 -0.4149  0.1826  0.0370
 2605TIP3    H129230   5.263   0.681   5.274 -1.4919  0.7966 -0.6661
 2605TIP3    H229231   5.193   0.583   5.182 -0.3575  0.6974 -1.4350
 2606TIP3   OH229232   6.654   5.456   4.113  0.2556 -0.0468 -0.6283
 2606TIP3    H129233   6.716   5.514   4.157 -0.9439  1.6072 -1.0604
 2606TIP3    H229234   6.654   5.486   4.022  0.8344 -1.8041 -1.2198
 2607TIP3   OH229235   4.968   0.656   1.140  0.0295  0.0725  0.5118
 2607TIP3    H129236   4.977   0.656   1.236 -1.3661 -0.7992  0.6491
 2607TIP3    H229237   4.902   0.590   1.122 -0.4207  0.9160 -1.0026
 2608TIP3   OH229238   0.014   1.673   6.249  0.2076  0.3796  0.1062
 2608TIP3    H129239   0.071   1.735   6.204  0.9979 -0.4179 -0.0081
 2608TIP3    H229240   0.031   1.590   6.206  0.9478 -0.3846  1.8190
 2609TIP3   OH229241   3.673   0.758  17.210 -0.6647  0.0653  0.1698
 2609TIP3    H129242   3.736   0.783  17.278  1.1717 -0.9409 -1.1134
 2609TIP3    H229243   3.592   0.739  17.259  0.9961 -2.0203  2.2936
 2610TIP3   OH229244   1.780   2.200   4.090 -0.4219 -0.4627 -0.3839
 2610TIP3    H129245   1.711   2.266   4.082  0.7347  0.9988  1.1141
 2610TIP3    H229246   1.801   2.200   4.184  2.0085 -0.4495 -0.9071
 2611TIP3   OH229247   1.079   2.789  11.721 -0.6211 -0.2270 -0.1825
 2611TIP3    H129248   1.062   2.816  11.812 -1.2149 -0.4058 -0.2383
 2611TIP3    H229249   0.997   2.747  11.693 -0.5420  0.0986 -0.9040
 2612TIP3   OH229250   0.420   1.107  14.797  0.0266 -0.3329 -0.0248
 2612TIP3    H129251   0.351   1.050  14.762  1.7563 -1.6273 -1.3685
 2612TIP3    H229252   0.501   1.074  14.759  1.5202  0.6865  2.1594
 2613TIP3   OH229253   3.024   4.642  16.045 -0.7555  0.4910 -0.0226
 2613TIP3    H129254   3.048   4.674  16.132  1.3490 -0.4011 -0.2465
 2613TIP3    H229255   2.958   4.703  16.014  1.0762  2.9203  0.7466
 2614TIP3   OH229256   2.264   0.717  12.074  0.5774 -0.5764 -0.8615
 2614TIP3    H129257   2.325   0.733  12.147 -0.2930 -1.5021  0.0807
 2614TIP3    H229258   2.240   0.804  12.044  1.2840 -0.1837 -0.3224
 2615TIP3   OH229259   6.321   4.162  15.176  0.6254  0.6157 -0.5518
 2615TIP3    H129260   6.388   4.096  15.160  0.7368  0.9196 -1.3508
 2615TIP3    H229261   6.300   4.153  15.269  1.3462  0.1242 -0.4368
 2616TIP3   OH229262   2.589   4.056  13.641 -0.1869  0.4479 -0.9274
 2616TIP3    H129263   2.607   4.130  13.583  0.8998  0.2797 -0.8158
 2616TIP3    H229264   2.565   4.096  13.725  0.1939  0.6766 -0.9275
 2617TIP3   OH229265   2.878   5.583   0.564 -0.1013  0.0652 -0.0867
 2617TIP3    H129266   2.872   5.668   0.520  0.1462  0.0034 -0.2380
 2617TIP3    H229267   2.936   5.598   0.639 -0.0964  0.0401 -0.0857
 2618TIP3   OH229268   5.633   2.699  14.300  0.1875 -0.2047  0.1428
 2618TIP3    H129269   5.608   2.758  14.371  1.6650 -2.1093  2.3332
 2618TIP3    H229270   5.728   2.708  14.294 -0.0069  0.5839 -2.2382
 2619TIP3   OH229271   3.642   3.747   2.811  0.0977  0.1580  0.0600
 2619TIP3    H129272   3.558   3.737   2.766  0.4986 -1.8277 -0.2936
 2619TIP3    H229273   3.704   3.767   2.741  0.4460 -1.3808 -0.0787
 2620TIP3   OH229274   2.133   5.184   4.647  0.2140 -0.0745  0.4401
 2620TIP3    H129275   2.114   5.244   4.575  0.1695  0.7134  1.1145
 2620TIP3    H229276   2.185   5.114   4.606 -0.7898 -0.2264 -0.5924
 2621TIP3   OH229277   5.520   5.676  14.222  0.8222  0.0224  0.1655
 2621TIP3    H129278   5.505   5.582  14.215  1.0355 -0.0192  0.2571
 2621TIP3    H229279   5.542   5.703  14.133  1.3752 -0.1237  0.2538
 2622TIP3   OH229280   5.971   6.750  12.389  0.4431 -0.3357 -0.0271
 2622TIP3    H129281   5.997   6.750  12.481  2.7252  1.7887 -0.6403
 2622TIP3    H229282   6.030   6.688  12.347  0.2905 -0.2946 -0.3059
 2623TIP3   OH229283   1.824   4.414  14.853 -0.4531 -0.8132  0.0635
 2623TIP3    H129284   1.749   4.401  14.794 -1.1014  0.5801  0.5721
 2623TIP3    H229285   1.836   4.508  14.857  1.7328 -1.0513 -0.4831
 2624TIP3   OH229286   5.866   2.373   5.369  0.3903  0.4755  0.1674
 2624TIP3    H129287   5.935   2.307   5.378 -0.2143 -0.3302 -1.0706
 2624TIP3    H229288   5.800   2.332   5.314  0.5813  2.5647 -1.6737
 2625TIP3   OH229289   3.836   4.957  12.999 -0.5501 -0.2838 -0.1186
 2625TIP3    H129290   3.834   4.911  13.084  0.1077  0.9333  0.5743
 2625TIP3    H229291   3.801   5.044  13.018  0.2666  0.2347 -0.9436
 2626TIP3   OH229292   1.205   0.538   4.213 -0.3480 -0.2195  0.6086
 2626TIP3    H129293   1.269   0.605   4.190  0.0251 -0.1769  1.7124
 2626TIP3    H229294   1.159   0.574   4.289 -1.7589 -0.2064 -0.2447
 2627TIP3   OH229295   0.274   6.230  12.627 -0.5015  0.0550  0.1107
 2627TIP3    H129296   0.218   6.159  12.658  0.2302 -0.6349 -0.1578
 2627TIP3    H229297   0.354   6.187  12.597  0.2879  1.0663  0.7398
 2628TIP3   OH229298   2.730   5.923  14.806  0.3045 -0.1315 -0.2731
 2628TIP3    H129299   2.783   5.965  14.874  1.1226  1.4448 -1.8218
 2628TIP3    H229300   2.764   5.834  14.801  2.4429  0.6660 -0.7963
 2629TIP3   OH229301   0.296   0.021   5.056 -0.0235 -0.4613 -0.1570
 2629TIP3    H129302   0.290  -0.074   5.062  0.1796 -0.3920  1.1772
 2629TIP3    H229303   0.379   0.043   5.097  0.6155  0.1871 -1.7363
 2630TIP3   OH229304   0.901   5.318   3.105  0.2625 -0.3746 -0.6116
 2630TIP3    H129305   0.848   5.333   3.183  0.6743 -0.8575 -0.2394
 2630TIP3    H229306   0.872   5.233   3.073  1.7368 -1.2482  0.3403
 2631TIP3   OH229307   1.722   4.652   6.552  0.2211 -0.1618 -0.1211
 2631TIP3    H129308   1.668   4.724   6.518  0.1747 -0.6097 -1.0122
 2631TIP3    H229309   1.809   4.691   6.563 -0.4069  0.7335  1.9281
 2632TIP3   OH229310   0.530   5.260   4.048 -0.2673 -0.6845 -0.6198
 2632TIP3    H129311   0.461   5.311   4.090 -1.5408 -1.7418 -1.3829
 2632TIP3    H229312   0.554   5.193   4.112 -2.7691 -2.8013 -1.7752
 2633TIP3   OH229313   5.362   3.664  11.891 -0.2891  0.3886  0.3663
 2633TIP3    H129314   5.367   3.632  11.981 -1.2016 -1.6892 -0.2800
 2633TIP3    H229315   5.398   3.593  11.838  1.7034  2.2273 -0.8073
 2634TIP3   OH229316   3.549   4.538  11.145  0.2247  0.6838  0.6140
 2634TIP3    H129317   3.554   4.630  11.120 -0.7920 -0.0773 -2.5255
 2634TIP3    H229318   3.622   4.496  11.099 -2.0613 -0.8475 -1.7245
 2635TIP3   OH229319   0.436   4.296   3.816  0.8665 -0.1348  0.1144
 2635TIP3    H129320   0.489   4.281   3.738  1.7280  0.3152  0.6102
 2635TIP3    H229321   0.460   4.224   3.875  0.9026  0.0448  0.3204
 2636TIP3   OH229322   6.286   5.045   0.649 -0.4353 -0.3882  0.2329
 2636TIP3    H129323   6.199   5.007   0.645 -0.8002  0.3146  1.2883
 2636TIP3    H229324   6.278   5.130   0.605 -0.0363 -0.7420 -0.5505
 2637TIP3   OH229325   5.620   3.895  10.984 -0.4228 -0.1518  0.0878
 2637TIP3    H129326   5.530   3.862  10.980  0.3230 -2.1595 -2.4239
 2637TIP3    H229327   5.647   3.900  10.892  1.6433  1.5841  0.7503
 2638TIP3   OH229328   6.520   1.964   2.485  0.0765  0.1131  0.5574
 2638TIP3    H129329   6.487   1.876   2.468  0.4117 -0.2425  1.6797
 2638TIP3    H229330   6.442   2.015   2.509  0.0430 -0.1895  1.1014
 2639TIP3   OH229331   4.622   5.868   3.832 -0.0755 -0.0363  0.0252
 2639TIP3    H129332   4.666   5.853   3.748 -0.9784 -1.3289 -0.2385
 2639TIP3    H229333   4.685   5.840   3.898  0.0509 -0.4862 -0.2865
 2640TIP3   OH229334   2.355   4.615   0.047  0.3187 -0.2576  0.5373
 2640TIP3    H129335   2.389   4.623  -0.042  0.3384  0.5822  0.6191
 2640TIP3    H229336   2.353   4.704   0.080 -1.3170 -0.3510  0.7708
 2641TIP3   OH229337   0.519   3.063  12.428 -0.7953  0.4510 -0.0957
 2641TIP3    H129338   0.600   3.098  12.465 -0.4296  0.0798 -0.5293
 2641TIP3    H229339   0.451   3.087  12.491 -0.4729  1.4705 -0.1233
 2642TIP3   OH229340   0.699   3.926  12.265  0.6534 -0.3256  0.1191
 2642TIP3    H129341   0.633   3.937  12.334  0.5569  2.0897 -0.3336
 2642TIP3    H229342   0.663   3.857  12.209 -2.3113  2.0080 -1.0002
 2643TIP3   OH229343   0.399   4.956   1.642  0.1101 -0.0717 -0.0044
 2643TIP3    H129344   0.386   5.047   1.668 -1.1195 -0.6713  1.5633
 2643TIP3    H229345   0.491   4.938   1.662  0.2290  0.6860  0.1260
 2644TIP3   OH229346   2.107   3.643   2.640 -0.0746 -0.0870  1.0774
 2644TIP3    H129347   2.045   3.661   2.570 -0.7379 -0.2798  1.6030
 2644TIP3    H229348   2.141   3.729   2.665  0.7341 -0.0915  0.0116
 2645TIP3   OH229349   1.365   5.742  16.712 -0.1088 -0.3221 -0.1924
 2645TIP3    H129350   1.383   5.760  16.804  2.1530 -0.5053 -0.5873
 2645TIP3    H229351   1.326   5.654  16.712 -0.6299 -0.0965  0.6214
 2646TIP3   OH229352   4.900   3.600  12.450  0.3760  0.6117 -0.0633
 2646TIP3    H129353   4.854   3.656  12.514 -1.4929 -0.1193 -0.7309
 2646TIP3    H229354   4.950   3.539  12.503 -0.1161  0.8613  0.6995
 2647TIP3   OH229355   3.668   6.018  13.477  0.2605 -0.3755 -0.0259
 2647TIP3    H129356   3.644   5.931  13.510 -2.1239  0.1984 -0.1915
 2647TIP3    H229357   3.678   6.072  13.556  2.4419 -0.9452  0.1144
 2648TIP3   OH229358   5.532   2.730  14.925  0.4378  0.0104  0.2919
 2648TIP3    H129359   5.487   2.735  15.009  1.1956  0.2299  0.6918
 2648TIP3    H229360   5.587   2.652  14.931  1.2445  0.5734  0.3832
 2649TIP3   OH229361   5.943   3.769  17.148 -0.2747 -0.5130  0.6181
 2649TIP3    H129362   5.977   3.680  17.160 -1.9700 -1.3105 -0.3351
 2649TIP3    H229363   5.992   3.803  17.073  0.4921 -0.5679  1.0822
 2650TIP3   OH229364   5.723   0.198  12.479  0.0488  0.0719  0.2724
 2650TIP3    H129365   5.678   0.279  12.455 -1.1877 -0.4990  0.6132
 2650TIP3    H229366   5.810   0.206  12.439 -0.3274  1.2197 -0.3402
 2651TIP3   OH229367   3.013   2.202  11.271 -0.3818 -0.0422  0.0462
 2651TIP3    H129368   3.092   2.189  11.217  0.5456  0.6104  1.2361
 2651TIP3    H229369   3.007   2.123  11.323 -0.2487  0.1094  0.2909
 2652TIP3   OH229370   4.765   6.460  13.685  0.6100 -0.1021 -0.4231
 2652TIP3    H129371   4.698   6.415  13.736 -1.2325  0.1811 -2.4750
 2652TIP3    H229372   4.785   6.539  13.735  0.4840 -0.9117  0.9254
 2653TIP3   OH229373   4.556   5.018   2.390 -0.3207  0.5388  1.0016
 2653TIP3    H129374   4.638   5.009   2.341 -0.4276  0.6122  0.8090
 2653TIP3    H229375   4.496   5.061   2.329 -1.0501 -1.0917  0.5073
 2654TIP3   OH229376   1.987   0.113   4.916 -0.4764 -0.4680 -0.5514
 2654TIP3    H129377   2.035   0.111   4.834 -0.1562 -0.0324 -0.3785
 2654TIP3    H229378   2.020   0.190   4.962 -1.9346  0.3155 -0.7880
 2655TIP3   OH229379   5.009   1.511  15.085 -0.3064 -0.1730 -0.2586
 2655TIP3    H129380   5.037   1.437  15.138 -0.3406 -0.1123 -0.1563
 2655TIP3    H229381   4.995   1.474  14.998 -0.6736 -0.3627 -0.1222
 2656TIP3   OH229382   1.787   1.380  11.846  0.1198 -0.4838 -0.2598
 2656TIP3    H129383   1.829   1.359  11.762  0.8638  1.7631 -0.4805
 2656TIP3    H229384   1.777   1.295  11.890  1.8685 -1.4190 -1.6161
 2657TIP3   OH229385   0.752   0.183   2.398  0.3280 -0.1188 -0.1020
 2657TIP3    H129386   0.798   0.177   2.315  2.8518  1.8893  1.0792
 2657TIP3    H229387   0.817   0.157   2.463 -0.8088  0.8487  1.4686
 2658TIP3   OH229388   5.732   4.366  12.651  0.0479  0.1416  0.5659
 2658TIP3    H129389   5.807   4.311  12.627 -0.3903 -0.4854  0.6384
 2658TIP3    H229390   5.761   4.412  12.730  1.4757  2.1791 -1.0702
 2659TIP3   OH229391   2.269   3.967   1.780  0.0604  0.6711  0.3038
 2659TIP3    H129392   2.198   3.916   1.742 -0.3349  1.4326  0.0095
 2659TIP3    H229393   2.314   3.906   1.839 -1.1534  0.3274  0.8939
 2660TIP3   OH229394   0.197   6.366  15.990  0.2984 -0.2393 -0.5426
 2660TIP3    H129395   0.139   6.298  15.957  0.3715  0.6394 -2.5576
 2660TIP3    H229396   0.284   6.338  15.964  0.3002  0.7580 -1.6374
 2661TIP3   OH229397   6.358   4.354   6.098 -0.2305 -0.1456  0.0539
 2661TIP3    H129398   6.355   4.310   6.013 -1.8725  1.0225 -0.5217
 2661TIP3    H229399   6.405   4.294   6.155  1.6175 -0.5899 -1.8934
 2662TIP3   OH229400   0.374   1.858  13.403  0.0946 -0.2621  0.5525
 2662TIP3    H129401   0.453   1.906  13.379 -0.0621 -0.3297 -0.1255
 2662TIP3    H229402   0.302   1.912  13.369 -0.0581 -1.3164 -0.8550
 2663TIP3   OH229403   1.374   3.886   4.232 -0.0659 -0.6172 -0.4749
 2663TIP3    H129404   1.366   3.906   4.326 -1.8291 -0.7516 -0.5786
 2663TIP3    H229405   1.346   3.966   4.188 -0.2011 -0.8852 -0.8775
 2664TIP3   OH229406   6.088   5.234  13.121  0.6677  0.4412 -0.1387
 2664TIP3    H129407   6.077   5.307  13.182  0.8322 -0.3090  0.7932
 2664TIP3    H229408   6.170   5.252  13.076  0.5171  1.0232 -0.1855
 2665TIP3   OH229409   1.232   4.456   0.516  0.3041 -0.4790 -0.8749
 2665TIP3    H129410   1.285   4.481   0.592 -3.1605 -0.8897  1.7973
 2665TIP3    H229411   1.166   4.524   0.509 -1.4128 -2.1639 -1.4882
 2666TIP3   OH229412   0.916   2.107   2.343  0.4783 -0.0011 -0.1302
 2666TIP3    H129413   0.888   2.085   2.432 -0.4105 -0.8443 -0.6126
 2666TIP3    H229414   0.996   2.055   2.330  0.9616  0.5997  0.3887
 2667TIP3   OH229415   0.817   1.674  10.689  0.0410 -0.0297 -0.2692
 2667TIP3    H129416   0.757   1.744  10.715  0.1292  0.3072 -0.9428
 2667TIP3    H229417   0.772   1.593  10.712 -0.2395  0.2463  0.1404
 2668TIP3   OH229418   1.370   6.587   1.043 -0.1093  0.7539  0.0605
 2668TIP3    H129419   1.308   6.517   1.059  2.0263 -1.1906  0.0402
 2668TIP3    H229420   1.347   6.621   0.956 -0.2689 -0.8851 -0.5517
 2669TIP3   OH229421   0.352   1.650  13.586  0.4273 -0.1933  0.1680
 2669TIP3    H129422   0.260   1.643  13.558 -0.2656  1.3985  1.9396
 2669TIP3    H229423   0.383   1.731  13.546  0.6378 -0.0247  0.6682
 2670TIP3   OH229424   0.234   1.239   1.437 -0.1585  0.3099 -0.6859
 2670TIP3    H129425   0.249   1.329   1.410  0.8591 -0.1754 -1.7705
 2670TIP3    H229426   0.164   1.245   1.502  0.3387  1.9461 -0.2637
 2671TIP3   OH229427   3.083   3.421  14.858  0.0228  0.2936 -0.2136
 2671TIP3    H129428   3.170   3.416  14.819  0.6235  0.9884  0.9960
 2671TIP3    H229429   3.082   3.351  14.924  0.6734  2.0550  1.7011
 2672TIP3   OH229430   6.459   5.475  15.549  0.5145 -0.1028  0.1386
 2672TIP3    H129431   6.498   5.562  15.550  1.9954 -0.7528  0.8005
 2672TIP3    H229432   6.435   5.460  15.457  2.0993  0.2043 -0.3384
 2673TIP3   OH229433   2.129   3.480   0.335  0.3812 -0.7686  0.1374
 2673TIP3    H129434   2.182   3.493   0.256 -1.2739 -1.9014 -1.1842
 2673TIP3    H229435   2.177   3.527   0.403  1.1860  1.3121 -1.7897
 2674TIP3   OH229436   5.548   4.355  11.327  0.1621  0.1541 -0.3417
 2674TIP3    H129437   5.574   4.322  11.413  1.1114 -0.7535 -0.9599
 2674TIP3    H229438   5.536   4.276  11.274 -0.6973  0.6912 -0.9663
 2675TIP3   OH229439   2.845   1.398  15.807 -0.0650  0.5384  0.3890
 2675TIP3    H129440   2.841   1.374  15.715 -1.1843  1.7165  0.1048
 2675TIP3    H229441   2.885   1.485  15.808  0.0344  0.4915  1.0170
 2676TIP3   OH229442   6.132   1.567  11.549  0.0511  0.2683  0.6289
 2676TIP3    H129443   6.059   1.618  11.517 -0.2302 -1.0168 -0.8266
 2676TIP3    H229444   6.202   1.631  11.563  0.4814  0.7701 -3.4415
 2677TIP3   OH229445   3.181   0.308   1.269  0.2443  0.3331  0.1978
 2677TIP3    H129446   3.121   0.258   1.214  0.3512 -0.9882  1.2450
 2677TIP3    H229447   3.246   0.244   1.298  0.1928  1.0030  1.8556
 2678TIP3   OH229448   4.860   0.274  15.370 -0.1912 -0.2563 -0.1162
 2678TIP3    H129449   4.922   0.347  15.361  0.4939 -0.5436  1.9760
 2678TIP3    H229450   4.903   0.202  15.324  0.1256  0.0652 -0.3379
 2679TIP3   OH229451   4.895   4.379  11.372  0.4539  0.1460 -0.0050
 2679TIP3    H129452   4.827   4.324  11.333 -1.3292  0.4953  2.4943
 2679TIP3    H229453   4.888   4.362  11.466  1.7164  2.5804  0.5617
 2680TIP3   OH229454   3.862   3.034   5.417 -0.5308 -0.4438  0.3128
 2680TIP3    H129455   3.954   3.008   5.411 -0.8176 -1.4077  0.0384
 2680TIP3    H229456   3.863   3.115   5.469  0.4749 -0.3968  0.2242
 2681TIP3   OH229457   1.446   1.165   6.497  0.0121  0.0851 -0.4597
 2681TIP3    H129458   1.377   1.126   6.444  0.0596 -0.4908 -0.1036
 2681TIP3    H229459   1.458   1.104   6.569 -0.0950  0.8890  0.2536
 2682TIP3   OH229460   4.039   1.938  12.972  0.1236 -0.1525  0.1600
 2682TIP3    H129461   4.126   1.934  12.934  0.1580 -1.3878  0.3553
 2682TIP3    H229462   4.039   2.019  13.023  0.7620  0.4433 -0.7717
 2683TIP3   OH229463   6.758   2.212  15.730  0.0396  0.1785  0.3257
 2683TIP3    H129464   6.819   2.277  15.765  2.1108 -1.4354 -0.1297
 2683TIP3    H229465   6.718   2.254  15.654  0.0020  1.5438  1.0884
 2684TIP3   OH229466   2.497   0.803  12.232 -0.5216  0.2475 -0.2197
 2684TIP3    H129467   2.544   0.762  12.159  0.1849 -0.0552  0.3969
 2684TIP3    H229468   2.475   0.731  12.290 -3.6993  0.0875 -1.5355
 2685TIP3   OH229469   3.604   6.237   2.664  0.2087  0.1786 -0.4242
 2685TIP3    H129470   3.551   6.161   2.688 -0.1184  0.3081 -0.7336
 2685TIP3    H229471   3.690   6.200   2.642  0.5424  0.0650  1.0133
 2686TIP3   OH229472   4.377   1.752   6.525 -0.4884  0.0220  0.1100
 2686TIP3    H129473   4.319   1.828   6.533  0.0939  0.2220  3.1510
 2686TIP3    H229474   4.465   1.790   6.520 -0.3468 -0.4000 -0.5959
 2687TIP3   OH229475   0.282   4.423   2.660  0.1936 -0.3084  0.4433
 2687TIP3    H129476   0.286   4.489   2.590 -1.8389  2.9422  3.2135
 2687TIP3    H229477   0.366   4.430   2.705  0.0603  0.2855  0.6065
 2688TIP3   OH229478   3.670   5.462  14.118 -0.9925 -0.4093 -0.0720
 2688TIP3    H129479   3.681   5.489  14.209 -2.1109  1.2176 -0.3977
 2688TIP3    H229480   3.758   5.472  14.080 -0.5771 -0.8599  0.7658
 2689TIP3   OH229481   6.216   4.598  14.349 -0.0003  0.4459  0.4189
 2689TIP3    H129482   6.208   4.567  14.440 -1.2485 -0.5177 -0.0033
 2689TIP3    H229483   6.208   4.519  14.296  0.6413  1.0246 -0.5439
 2690TIP3   OH229484   5.118   0.755   4.296 -0.0499 -0.0787  0.4351
 2690TIP3    H129485   5.029   0.757   4.260  0.5931  0.9601 -1.1797
 2690TIP3    H229486   5.152   0.669   4.273 -1.1761 -1.1083  2.4814
 2691TIP3   OH229487   5.217   0.826  11.261  0.6304 -0.8120  0.0995
 2691TIP3    H129488   5.231   0.899  11.200 -0.5457 -0.0474  0.7272
 2691TIP3    H229489   5.214   0.748  11.205  2.9686 -0.5234 -0.4724
 2692TIP3   OH229490   0.275   6.408  13.642 -0.2346  0.2707  0.3492
 2692TIP3    H129491   0.194   6.414  13.591  0.0314 -2.3640 -0.4701
 2692TIP3    H229492   0.313   6.496  13.637 -1.4707  0.7304 -1.9097
 2693TIP3   OH229493   0.641   1.229   0.415 -0.3944 -0.0734 -0.4415
 2693TIP3    H129494   0.661   1.258   0.326 -0.3096 -2.1692 -1.1300
 2693TIP3    H229495   0.571   1.164   0.404 -0.0119 -0.7441  0.9688
 2694TIP3   OH229496   1.314   0.797  15.707 -0.0440  0.2555 -0.3515
 2694TIP3    H129497   1.397   0.795  15.753  0.1015 -0.9763 -0.6455
 2694TIP3    H229498   1.330   0.850  15.629  0.8285 -1.0620 -1.0782
 2695TIP3   OH229499   2.348   0.885   3.109 -0.1732 -0.2348  0.0010
 2695TIP3    H129500   2.335   0.809   3.167  0.9316 -0.3384  0.1178
 2695TIP3    H229501   2.442   0.885   3.090 -0.5003 -0.0961 -1.6692
 2696TIP3   OH229502   6.175   4.759  10.307  0.0295  0.2884  0.2340
 2696TIP3    H129503   6.093   4.771  10.355  0.6918  0.9666  1.2103
 2696TIP3    H229504   6.185   4.663  10.303 -0.8221  0.2006  0.0852
 2697TIP3   OH229505   0.003   2.227   2.689  0.3343  0.1986 -0.2433
 2697TIP3    H129506  -0.041   2.241   2.606  0.1901  0.6119 -0.0973
 2697TIP3    H229507   0.064   2.155   2.672  0.5678  0.5253 -0.8049
 2698TIP3   OH229508   0.992   3.872  15.208  0.3421  0.2673  0.4309
 2698TIP3    H129509   0.949   3.818  15.274  0.0824  0.6097  0.5437
 2698TIP3    H229510   0.929   3.942  15.189  1.0671  1.0947  1.0247
 2699TIP3   OH229511   5.742   2.178   4.826 -0.4017  0.9721 -0.0159
 2699TIP3    H129512   5.797   2.217   4.894 -0.9089 -0.5329  1.2785
 2699TIP3    H229513   5.791   2.193   4.745  0.5488  2.1448  0.7564
 2700TIP3   OH229514   5.363   4.216   0.540 -0.4171 -0.4683  0.3780
 2700TIP3    H129515   5.292   4.235   0.602  0.8133  1.5817  1.2247
 2700TIP3    H229516   5.324   4.232   0.454 -0.4516  2.7057  0.9215
 2701TIP3   OH229517   2.487   6.280  13.899  0.0135 -0.1841 -0.2050
 2701TIP3    H129518   2.537   6.286  13.818 -0.5267 -1.4761 -0.6660
 2701TIP3    H229519   2.474   6.370  13.927  1.8142  0.2045 -0.5463
 2702TIP3   OH229520   2.714   2.460  13.339 -0.3337  0.1175  0.0923
 2702TIP3    H129521   2.735   2.538  13.288 -0.0657 -1.0373 -1.6310
 2702TIP3    H229522   2.650   2.413  13.286 -1.9384  0.0782  1.9912
 2703TIP3   OH229523   0.413   5.897  16.378 -0.4602 -0.5134  0.1767
 2703TIP3    H129524   0.465   5.946  16.442 -1.7135  0.7551  0.2441
 2703TIP3    H229525   0.476   5.841  16.333  0.9798  1.1136  0.1455
 2704TIP3   OH229526   1.210   4.148  11.976 -0.3182 -0.2269 -0.5299
 2704TIP3    H129527   1.241   4.126  11.888 -0.8534  1.0526 -1.0642
 2704TIP3    H229528   1.146   4.081  11.998 -0.2330 -0.5108 -1.1580
 2705TIP3   OH229529   6.668   2.982  13.590 -0.0866  0.2835  0.1010
 2705TIP3    H129530   6.658   3.073  13.617  1.8138 -0.2742  2.8502
 2705TIP3    H229531   6.761   2.972  13.572 -0.4098 -0.9376 -0.9307
 2706TIP3   OH229532   4.624   0.265  13.956  0.2617 -0.1800  0.1544
 2706TIP3    H129533   4.599   0.196  14.017  1.9360 -0.8463  0.1046
 2706TIP3    H229534   4.584   0.240  13.873  1.4700 -1.4909 -0.0456
 2707TIP3   OH229535   5.844   5.936   1.578  0.9976  0.4850 -0.0135
 2707TIP3    H129536   5.825   5.843   1.595 -1.9388  1.2161  1.0095
 2707TIP3    H229537   5.884   5.967   1.659 -0.8196  0.7800  0.8163
 2708TIP3   OH229538   6.121   1.975   0.287 -0.3937 -0.2329 -0.0284
 2708TIP3    H129539   6.150   1.913   0.220  2.6522  0.0224  0.9738
 2708TIP3    H229540   6.078   1.920   0.353 -1.6211 -0.7130 -1.2029
 2709TIP3   OH229541   5.094   2.624  15.040 -0.3653  0.8823 -0.2747
 2709TIP3    H129542   5.005   2.616  15.006 -0.3702  0.5983 -0.1915
 2709TIP3    H229543   5.083   2.644  15.132 -0.3367 -0.0666 -0.0599
 2710TIP3   OH229544   0.178   2.926   6.881 -0.5552  0.3064 -0.2624
 2710TIP3    H129545   0.222   3.009   6.863 -1.0765  1.5844  3.7521
 2710TIP3    H229546   0.085   2.949   6.890 -0.9497 -1.0025 -0.8025
 2711TIP3   OH229547   4.471   0.898   2.728  0.0292  0.5576 -0.5009
 2711TIP3    H129548   4.438   0.830   2.788  0.6360  0.9718  0.3067
 2711TIP3    H229549   4.566   0.885   2.727  0.0457  0.7159 -1.1815
 2712TIP3   OH229550   5.436   2.116  15.179 -0.1342 -0.3437  0.3743
 2712TIP3    H129551   5.427   2.115  15.084 -0.8522  1.0141  0.4230
 2712TIP3    H229552   5.387   2.039  15.208 -2.0681  0.6380 -0.1917
 2713TIP3   OH229553   6.476   0.243  16.651 -0.8801  0.3187  0.6369
 2713TIP3    H129554   6.524   0.162  16.636 -0.2609  0.8531 -0.3460
 2713TIP3    H229555   6.544   0.309  16.666 -1.3255  0.9057  0.1144
 2714TIP3   OH229556   0.822   1.433  16.047  0.2038 -0.2263 -0.4332
 2714TIP3    H129557   0.915   1.453  16.041 -0.1034  1.1988 -0.4797
 2714TIP3    H229558   0.798   1.407  15.958  0.3927  0.1072 -0.5810
 2715TIP3   OH229559   4.078   2.459   3.391  0.4550 -0.5550 -0.3982
 2715TIP3    H129560   4.087   2.408   3.472  1.6011 -0.5910 -0.5499
 2715TIP3    H229561   4.003   2.517   3.408  1.3308  0.1774  1.0930
 2716TIP3   OH229562   4.402   0.630  16.799 -0.4816 -0.3296 -0.0416
 2716TIP3    H129563   4.473   0.638  16.863 -0.7716  0.4627  0.1818
 2716TIP3    H229564   4.440   0.578  16.728 -0.5238 -2.2291  1.2832
 2717TIP3   OH229565   6.146   3.293   5.215  0.3128  0.3211  0.0283
 2717TIP3    H129566   6.081   3.343   5.263 -0.1109 -0.9394  0.7798
 2717TIP3    H229567   6.208   3.263   5.281  0.5425 -0.1734 -0.4039
 2718TIP3   OH229568   4.189   4.196   1.962 -0.1268  0.2300 -0.0055
 2718TIP3    H129569   4.268   4.147   1.984 -1.4155 -1.3507  1.3138
 2718TIP3    H229570   4.199   4.219   1.870  1.2907 -1.0580 -0.1859
 2719TIP3   OH229571   2.440   1.601   5.013  0.3968 -0.8947  0.3816
 2719TIP3    H129572   2.407   1.601   5.102 -1.7218  1.5291 -0.3324
 2719TIP3    H229573   2.516   1.659   5.015  0.2290 -0.6799  0.6035
 2720TIP3   OH229574   1.976   5.938   6.033 -0.2392  0.1866 -0.9690
 2720TIP3    H129575   2.051   5.939   6.093 -0.3884 -0.2428 -0.7664
 2720TIP3    H229576   1.911   5.993   6.076 -0.7648 -1.0210 -0.1642
 2721TIP3   OH229577   1.204   2.628  17.120  0.2901 -0.3953  0.3493
 2721TIP3    H129578   1.127   2.640  17.175 -0.1123 -0.6674 -0.1511
 2721TIP3    H229579   1.177   2.563  17.054  0.9984 -0.6316  0.2825
 2722TIP3   OH229580   6.777   1.944   0.070  0.3487  0.5540 -0.9954
 2722TIP3    H129581   6.722   1.915   0.143 -1.1932  1.0602 -1.9313
 2722TIP3    H229582   6.831   1.868   0.049 -0.1812 -0.0380 -0.2328
 2723TIP3   OH229583   0.012   4.184   4.905 -0.5429 -0.6852  0.5146
 2723TIP3    H129584   0.020   4.260   4.963  0.7308 -0.4781  0.0895
 2723TIP3    H229585  -0.032   4.218   4.827  0.6868 -0.1902  0.0148
 2724TIP3   OH229586   3.770   6.356   0.694  0.0559 -0.1027 -0.0416
 2724TIP3    H129587   3.783   6.263   0.712 -1.8164  0.0420  2.3842
 2724TIP3    H229588   3.697   6.381   0.750 -1.2645  2.2257 -2.6900
 2725TIP3   OH229589   4.097   5.790  15.203 -0.1633 -0.6039 -0.3469
 2725TIP3    H129590   4.126   5.759  15.116 -0.8669  2.2754 -1.6532
 2725TIP3    H229591   4.178   5.813  15.248  0.0656  0.0227 -1.0773
 2726TIP3   OH229592   4.876   3.813  13.746  0.3969  0.2503 -0.8368
 2726TIP3    H129593   4.952   3.820  13.687  0.3813 -0.4275 -0.9450
 2726TIP3    H229594   4.828   3.737  13.713 -0.5848  0.9580 -1.0590
 2727TIP3   OH229595   0.541   3.572   2.456 -0.3327  0.6492  1.2349
 2727TIP3    H129596   0.623   3.558   2.503 -0.3858  1.4282  1.5641
 2727TIP3    H229597   0.557   3.535   2.369  0.9909  2.4148  0.6939
 2728TIP3   OH229598   1.973   5.665  11.980 -0.1599  0.3551  0.0578
 2728TIP3    H129599   2.038   5.696  12.043 -0.2325 -2.1403  1.4236
 2728TIP3    H229600   2.006   5.694  11.895  0.6931  2.5194  1.1094
 2729TIP3   OH229601   6.504   5.330   5.340 -0.7173 -0.0034  0.3085
 2729TIP3    H129602   6.478   5.275   5.414  0.2641 -1.3247 -0.3051
 2729TIP3    H229603   6.487   5.419   5.369  0.9277 -0.4098  2.6509
 2730TIP3   OH229604   0.533   1.601   0.801 -0.2842 -0.2567  0.3439
 2730TIP3    H129605   0.493   1.621   0.885  2.0248 -0.3202  1.4975
 2730TIP3    H229606   0.551   1.686   0.762 -2.0289 -0.2251 -0.4614
 2731TIP3   OH229607   1.416   1.540  12.069  0.5033 -0.1473 -0.1230
 2731TIP3    H129608   1.405   1.446  12.079 -1.1994 -0.0677 -1.0105
 2731TIP3    H229609   1.370   1.561  11.988 -0.2276  1.6184  0.7113
 2732TIP3   OH229610   4.171   0.892   0.940 -0.2859 -0.0123  0.2663
 2732TIP3    H129611   4.258   0.879   0.904 -0.5076 -2.7432  0.6072
 2732TIP3    H229612   4.144   0.805   0.971 -3.4093  0.6154 -0.4781
 2733TIP3   OH229613   6.015   5.020  11.289  0.4826  0.2002 -0.1138
 2733TIP3    H129614   5.949   5.072  11.243  0.3842 -0.4606 -0.7361
 2733TIP3    H229615   6.043   4.955  11.224 -0.4901 -1.4859  1.0957
 2734TIP3   OH229616   2.306   1.265  16.212  0.1966 -0.1273 -0.0540
 2734TIP3    H129617   2.388   1.216  16.221  0.9635  1.1999  0.4078
 2734TIP3    H229618   2.298   1.282  16.118  1.0584  0.7166  0.0160
 2735TIP3   OH229619   6.758   4.606  16.097 -0.4603  0.1221  0.4267
 2735TIP3    H129620   6.803   4.534  16.053 -1.8361 -1.0532  0.8827
 2735TIP3    H229621   6.816   4.630  16.169 -0.7991 -1.7924  1.3856
 2736TIP3   OH229622   4.794   2.714   1.364 -0.2152  0.3123 -0.2784
 2736TIP3    H129623   4.717   2.696   1.417  1.1199  1.1295  1.9841
 2736TIP3    H229624   4.833   2.628   1.349 -0.7231  0.0547 -0.1263
 2737TIP3   OH229625   6.123   4.775   2.592  0.5182 -0.1728 -0.0052
 2737TIP3    H129626   6.163   4.694   2.561  0.8032  0.1513 -0.4920
 2737TIP3    H229627   6.138   4.776   2.686  0.5504 -0.6644 -0.0065
 2738TIP3   OH229628   6.671   6.149   2.371  0.4223  0.1851  0.0152
 2738TIP3    H129629   6.709   6.135   2.458  0.2228  0.0765  0.0840
 2738TIP3    H229630   6.705   6.234   2.344 -0.9414  1.0571  0.9560
 2739TIP3   OH229631   6.517   6.135  17.185 -0.4923 -0.3162  0.5772
 2739TIP3    H129632   6.507   6.165  17.094  0.0110 -0.9857  0.3000
 2739TIP3    H229633   6.445   6.178  17.232 -0.2770  0.6824  0.0269
 2740TIP3   OH229634   0.839   5.039   3.014  0.3223 -0.1821  0.1080
 2740TIP3    H129635   0.883   5.085   2.942 -1.8326 -0.6907 -1.5576
 2740TIP3    H229636   0.889   4.958   3.025  0.5492 -0.1884 -0.9297
 2741TIP3   OH229637   0.915   0.167   2.894 -0.0165  0.0803  0.3684
 2741TIP3    H129638   0.864   0.086   2.902 -0.8740  0.6717  0.9410
 2741TIP3    H229639   0.851   0.237   2.905  0.6066  0.8515 -0.8596
 2742TIP3   OH229640   4.228   0.640  13.730 -0.2768 -0.8127  0.1305
 2742TIP3    H129641   4.135   0.653  13.745 -0.9172 -1.2560 -3.0278
 2742TIP3    H229642   4.268   0.649  13.816 -3.1547 -0.0086  1.4434
 2743TIP3   OH229643   2.862   3.499  15.356  0.4336 -0.2549 -0.2259
 2743TIP3    H129644   2.897   3.517  15.443  0.3665 -0.6854 -0.1074
 2743TIP3    H229645   2.930   3.527  15.296  0.7962 -0.6699 -0.0075
 2744TIP3   OH229646   4.648   5.279   4.120  0.4082 -0.3131 -0.0630
 2744TIP3    H129647   4.721   5.231   4.081  0.8099  0.9346 -0.8808
 2744TIP3    H229648   4.640   5.358   4.067 -1.4087 -0.3328  0.1536
 2745TIP3   OH229649   1.327   0.478  15.033 -0.1311  0.1370 -0.0181
 2745TIP3    H129650   1.412   0.487  14.990 -0.2960 -0.4172 -0.4757
 2745TIP3    H229651   1.346   0.480  15.126  0.4854 -0.8326 -0.1185
 2746TIP3   OH229652   0.751   4.640  16.359  0.0365  0.3616 -0.5674
 2746TIP3    H129653   0.804   4.720  16.366 -0.8184  0.8369  0.7412
 2746TIP3    H229654   0.794   4.578  16.419 -0.4454  0.5048 -0.0690
 2747TIP3   OH229655   2.865   3.621   4.799 -0.6423 -0.1362 -0.4921
 2747TIP3    H129656   2.804   3.592   4.866 -1.9171 -0.2999 -1.6972
 2747TIP3    H229657   2.827   3.701   4.764  1.1016  1.1232  0.4307
 2748TIP3   OH229658   3.649   3.243  11.800 -0.1772 -0.0152 -0.4105
 2748TIP3    H129659   3.723   3.290  11.838 -0.1100 -0.4347 -0.0149
 2748TIP3    H229660   3.592   3.222  11.875 -0.0857 -0.7691 -0.5447
 2749TIP3   OH229661   5.377   5.388  13.512 -0.7665  0.0392  0.3636
 2749TIP3    H129662   5.428   5.468  13.520 -1.2759  0.4047  0.0004
 2749TIP3    H229663   5.289   5.418  13.488 -1.1334 -0.5815  0.9104
 2750TIP3   OH229664   3.928   1.916   5.302  0.7386  0.0666  0.3741
 2750TIP3    H129665   3.956   1.887   5.215  1.8133 -4.2449  2.0071
 2750TIP3    H229666   3.836   1.940   5.291  0.6383 -1.1601 -1.8205
 2751TIP3   OH229667   2.443   0.942  14.244 -0.6935 -0.5840  0.0170
 2751TIP3    H129668   2.516   0.908  14.193  1.4122  2.0866  1.1586
 2751TIP3    H229669   2.403   0.864  14.283  0.9421 -2.1595 -1.3438
 2752TIP3   OH229670   3.868   6.248  12.917  0.7381 -0.3208  0.1868
 2752TIP3    H129671   3.829   6.271  13.001  1.1981 -0.7126  0.5112
 2752TIP3    H229672   3.850   6.323  12.860  1.2153  0.3346  0.8998
 2753TIP3   OH229673   5.621   3.177   3.672  0.6715  0.1701  0.2084
 2753TIP3    H129674   5.527   3.199   3.670  0.6384  0.4109  2.7249
 2753TIP3    H229675   5.662   3.252   3.716  1.2253 -2.4170  4.4275
 2754TIP3   OH229676   0.607   3.159   1.594  0.6025  0.1503  0.4398
 2754TIP3    H129677   0.605   3.104   1.673 -0.0422 -1.2696 -0.5521
 2754TIP3    H229678   0.685   3.213   1.605  1.7471 -1.5755  1.0219
 2755TIP3   OH229679   0.975   3.392  15.796  0.3873 -0.1504  0.2071
 2755TIP3    H129680   1.025   3.463  15.757 -0.3205  0.6277  0.7022
 2755TIP3    H229681   0.915   3.364  15.727  1.6985 -1.3116 -0.5024
 2756TIP3   OH229682   5.330   3.267  16.573 -0.5723  0.2546  0.3539
 2756TIP3    H129683   5.304   3.177  16.554  0.3631  0.0685 -0.0867
 2756TIP3    H229684   5.284   3.320  16.507  0.1250 -0.0650 -0.3929
 2757TIP3   OH229685   6.186   6.566  16.675  0.0178 -0.4589  0.0347
 2757TIP3    H129686   6.252   6.622  16.716 -0.5507 -0.1796  0.5808
 2757TIP3    H229687   6.130   6.538  16.748 -1.4005  0.5927 -0.6334
 2758TIP3   OH229688   3.004   0.714  13.237 -0.0216  0.6935  0.1356
 2758TIP3    H129689   2.962   0.785  13.188 -2.2958  0.1804  1.2859
 2758TIP3    H229690   3.067   0.759  13.294  2.0781  1.3594 -2.5788
 2759TIP3   OH229691   5.965   0.315   4.095 -0.7059 -0.5688 -0.1098
 2759TIP3    H129692   5.903   0.361   4.151 -0.4318  0.2994 -0.5129
 2759TIP3    H229693   6.049   0.322   4.140 -0.9982 -2.2880  0.7490
 2760TIP3   OH229694   4.365   1.288  13.349 -0.3731  0.0925 -0.2367
 2760TIP3    H129695   4.355   1.375  13.309  0.6615  0.4591  0.2819
 2760TIP3    H229696   4.370   1.306  13.443 -1.7228 -0.6725 -0.0099
 2761TIP3   OH229697   1.484   2.688   4.465  0.0233 -0.3858 -0.0252
 2761TIP3    H129698   1.561   2.700   4.520  0.8690  0.9038 -1.4462
 2761TIP3    H229699   1.486   2.596   4.439  0.3717 -0.6587  0.9629
 2762TIP3   OH229700   0.785   1.622   1.466  0.5112  0.2466  0.1964
 2762TIP3    H129701   0.795   1.662   1.380  0.8722 -0.2314  0.0111
 2762TIP3    H229702   0.765   1.530   1.448 -2.2070  0.7381  0.6002
 2763TIP3   OH229703   1.885   3.074  10.423  0.4279 -0.8181  0.2329
 2763TIP3    H129704   1.843   2.990  10.442 -0.0419 -0.5900  0.2157
 2763TIP3    H229705   1.960   3.077  10.481  0.5741 -1.3488  0.0769
 2764TIP3   OH229706   5.481   1.883   0.434  0.4243 -0.0359  0.2075
 2764TIP3    H129707   5.417   1.812   0.427  1.1459 -0.7135  0.3508
 2764TIP3    H229708   5.557   1.842   0.478  0.4418  1.0852  1.2607
 2765TIP3   OH229709   5.695   0.507  12.579 -0.4212  0.0892  0.2360
 2765TIP3    H129710   5.668   0.594  12.610 -1.6232 -0.1167 -0.2251
 2765TIP3    H229711   5.791   0.513  12.572 -0.4519  1.2253  0.6598
 2766TIP3   OH229712   3.626   3.540  11.355 -0.1389 -0.3403 -0.0585
 2766TIP3    H129713   3.645   3.626  11.391 -0.6308  0.0678 -0.7765
 2766TIP3    H229714   3.664   3.479  11.419  1.2234  0.4164 -0.1232
 2767TIP3   OH229715   1.641   6.023   2.102 -0.7406 -0.0082  0.1836
 2767TIP3    H129716   1.673   5.943   2.143  1.8372  0.0811 -1.5571
 2767TIP3    H229717   1.617   5.998   2.013 -2.2471  0.6780  0.3701
 2768TIP3   OH229718   4.306   0.348   2.536 -0.1840 -0.0646 -0.1309
 2768TIP3    H129719   4.292   0.274   2.596  2.6538  0.4435  1.2407
 2768TIP3    H229720   4.290   0.425   2.589  0.5591  0.3692 -0.5367
 2769TIP3   OH229721   3.659   4.676   4.088  0.7101  0.2862  0.6957
 2769TIP3    H129722   3.614   4.653   4.170 -1.2669  1.2023 -0.1023
 2769TIP3    H229723   3.681   4.769   4.099  1.8454  0.0076  0.8121
 2770TIP3   OH229724   2.348   2.309   3.476 -0.1622 -0.1441  0.2463
 2770TIP3    H129725   2.315   2.313   3.386 -1.5934 -1.7136  0.6670
 2770TIP3    H229726   2.441   2.290   3.466 -0.1141  0.6419 -0.9168
 2771TIP3   OH229727   1.079   3.960  16.838  0.6910 -0.2251 -0.2280
 2771TIP3    H129728   1.083   3.974  16.933  0.5614 -1.3676 -0.0407
 2771TIP3    H229729   0.986   3.943  16.820  0.9802 -1.8503 -0.2633
 2772TIP3   OH229730   1.260   4.577  12.861  0.0836 -0.1255  0.0772
 2772TIP3    H129731   1.256   4.538  12.773 -1.2572  0.6462 -0.2255
 2772TIP3    H229732   1.178   4.550  12.902  0.6308 -0.3437  1.0418
 2773TIP3   OH229733   5.733   5.101   4.369 -0.0198 -0.1004 -0.2605
 2773TIP3    H129734   5.819   5.072   4.402 -0.6379 -1.5231  0.1402
 2773TIP3    H229735   5.737   5.085   4.275  0.6182  1.0611 -0.4444
 2774TIP3   OH229736   2.652   6.066   0.956 -0.4045  0.2544  0.1188
 2774TIP3    H129737   2.615   6.138   0.905 -0.3732  0.6062  0.5889
 2774TIP3    H229738   2.743   6.061   0.928 -1.6047 -2.8676 -3.6091
 2775TIP3   OH229739   6.293   3.553   5.443  0.3353 -0.0461 -0.2372
 2775TIP3    H129740   6.360   3.562   5.376  0.6152  0.4802  0.1046
 2775TIP3    H229741   6.340   3.519   5.520  0.2203  0.3736  0.0197
 2776TIP3   OH229742   3.124   5.745   1.474  0.1075  0.3857 -0.4033
 2776TIP3    H129743   3.172   5.824   1.500  0.4269  0.7067 -1.9196
 2776TIP3    H229744   3.036   5.776   1.455  0.1804  0.3541 -0.8049
 2777TIP3   OH229745   4.543   2.935  13.954  0.7237 -0.1056 -0.1061
 2777TIP3    H129746   4.588   2.851  13.961  0.3798 -0.3856 -1.1935
 2777TIP3    H229747   4.609   2.995  13.918  0.0022 -0.7377 -2.6016
 2778TIP3   OH229748   0.846   6.284   1.067  0.0117  0.1738  0.8595
 2778TIP3    H129749   0.936   6.258   1.047 -0.2049  0.5104 -0.6082
 2778TIP3    H229750   0.842   6.376   1.043 -0.5616  0.3301  1.5251
 2779TIP3   OH229751   4.891   6.784  15.986  0.8911 -0.1218 -0.4546
 2779TIP3    H129752   4.927   6.740  16.063 -2.3740  0.6614  1.6185
 2779TIP3    H229753   4.919   6.876  15.996 -0.7915  0.2906  0.6465
 2780TIP3   OH229754   4.444   4.458  17.112 -0.0890 -0.5047 -0.0035
 2780TIP3    H129755   4.370   4.405  17.082 -0.0732  0.3838 -1.6461
 2780TIP3    H229756   4.520   4.418  17.069  0.2385 -0.6549  0.7099
 2781TIP3   OH229757   3.380   2.355   4.815  0.0455  0.7275  0.1970
 2781TIP3    H129758   3.355   2.434   4.864  1.2319  1.4859 -0.3918
 2781TIP3    H229759   3.464   2.329   4.853 -1.0324 -1.1404  1.3936
 2782TIP3   OH229760   1.172   0.880  10.423  0.1515 -0.2757 -0.5360
 2782TIP3    H129761   1.254   0.841  10.390  1.1320  1.1128  0.2188
 2782TIP3    H229762   1.178   0.871  10.518  0.0458  1.0370 -0.4023
 2783TIP3   OH229763   6.252   4.970  15.778  0.3217 -0.0587  0.0675
 2783TIP3    H129764   6.263   5.050  15.829  0.8774 -0.0766 -0.0218
 2783TIP3    H229765   6.163   4.940  15.798 -0.0798  0.8601 -0.2933
 2784TIP3   OH229766   2.566   5.582   5.334  0.2096 -0.2846  0.1443
 2784TIP3    H129767   2.597   5.522   5.402 -0.1539 -1.8894 -1.0627
 2784TIP3    H229768   2.470   5.580   5.342  0.2096  0.3729  0.3031
 2785TIP3   OH229769   5.104   2.590  16.381  0.2413  0.4687  0.3841
 2785TIP3    H129770   5.055   2.510  16.363  0.9283 -0.1000  1.0158
 2785TIP3    H229771   5.181   2.585  16.324  1.1735 -0.1693  1.6664
 2786TIP3   OH229772   0.432   1.952   0.086 -0.1421  0.0139 -0.4929
 2786TIP3    H129773   0.466   1.876   0.038  1.2587  0.6900 -0.5861
 2786TIP3    H229774   0.447   1.930   0.178  0.7232  0.3666 -0.5373
 2787TIP3   OH229775   2.517   5.303  14.152 -0.6377  0.0126 -0.7235
 2787TIP3    H129776   2.585   5.236  14.152 -0.4651  0.1683 -1.9890
 2787TIP3    H229777   2.438   5.257  14.127 -0.4629  0.3089 -1.8841
 2788TIP3   OH229778   3.093   4.894  11.015  0.1395 -0.1008  0.0777
 2788TIP3    H129779   3.030   4.831  11.051  1.0661 -0.2937  1.4020
 2788TIP3    H229780   3.167   4.890  11.076  0.9476  0.9579 -0.8388
 2789TIP3   OH229781   3.814   1.053  16.423  0.0709  0.0227 -0.2157
 2789TIP3    H129782   3.901   1.035  16.460 -0.6609  0.5446  1.8361
 2789TIP3    H229783   3.808   1.149  16.422  0.2439  0.0367 -2.1586
 2790TIP3   OH229784   1.617   6.325  11.052 -0.1057  0.1024 -0.5156
 2790TIP3    H129785   1.529   6.335  11.016  0.1073  0.8208 -0.8477
 2790TIP3    H229786   1.653   6.248  11.008  0.1711  0.9993 -1.8728
 2791TIP3   OH229787   0.524   3.487  13.859  0.0935  0.1816  0.7634
 2791TIP3    H129788   0.467   3.412  13.871  1.8108 -1.1232  0.9715
 2791TIP3    H229789   0.602   3.466  13.911  2.2843  0.2707 -2.3973
 2792TIP3   OH229790   5.211   0.528  14.639  0.0497 -0.2770 -0.2704
 2792TIP3    H129791   5.177   0.528  14.728  0.7924 -1.3818  0.0225
 2792TIP3    H229792   5.136   0.503  14.585 -0.4857  0.7196 -0.0012
 2793TIP3   OH229793   6.017   2.764   5.781  0.0336 -0.3071 -0.1256
 2793TIP3    H129794   5.947   2.700   5.763 -1.0343 -0.0884  3.0292
 2793TIP3    H229795   5.997   2.798   5.868  2.1769  2.3048 -0.5805
 2794TIP3   OH229796   5.361   2.846  15.489  0.0700  0.5399 -0.1073
 2794TIP3    H129797   5.341   2.920  15.547  0.0075  0.4708 -0.0417
 2794TIP3    H229798   5.326   2.873  15.404  1.5110  1.2982 -0.4811
 2795TIP3   OH229799   4.451   5.218   2.790 -0.3892  0.8412  0.1612
 2795TIP3    H129800   4.446   5.206   2.885 -0.6663 -0.3066  0.0119
 2795TIP3    H229801   4.398   5.147   2.754 -0.9082  1.7268 -0.8339
 2796TIP3   OH229802   4.348   2.660   2.424  0.0175 -0.1692  0.2599
 2796TIP3    H129803   4.434   2.686   2.391  0.5827  0.3203  2.0239
 2796TIP3    H229804   4.287   2.681   2.354  1.0896  1.4132 -0.2207
 2797TIP3   OH229805   1.223   2.324  14.979  0.0956  0.6257  0.5096
 2797TIP3    H129806   1.142   2.307  14.931 -0.2506  0.2816  1.2172
 2797TIP3    H229807   1.284   2.257  14.947 -0.3734 -0.1001  1.1334
 2798TIP3   OH229808   2.229   4.637  11.893 -0.0432 -0.4357  0.3364
 2798TIP3    H129809   2.306   4.602  11.938  0.3494 -0.1891 -0.1368
 2798TIP3    H229810   2.155   4.610  11.947  0.1753 -2.6848 -0.4193
 2799TIP3   OH229811   6.393   2.340   4.804 -0.4783 -0.4155  0.0441
 2799TIP3    H129812   6.419   2.403   4.871 -0.4994 -1.7498  1.3222
 2799TIP3    H229813   6.435   2.372   4.724  0.3795  0.6293  0.8968
 2800TIP3   OH229814   0.400   2.460   1.076 -0.4768  0.1316 -0.4265
 2800TIP3    H129815   0.424   2.430   1.163 -2.3835 -1.3671 -0.3721
 2800TIP3    H229816   0.409   2.555   1.079 -0.6293  0.0879  1.4252
 2801TIP3   OH229817   2.589   3.100  13.636  0.8735 -0.3442 -0.0681
 2801TIP3    H129818   2.544   3.112  13.720  1.4957  1.4158  0.0316
 2801TIP3    H229819   2.660   3.039  13.655 -0.1231 -1.4378  0.2525
 2802TIP3   OH229820   1.244   6.628  16.443  0.1461 -0.2888  0.0001
 2802TIP3    H129821   1.319   6.618  16.385 -1.0010  1.6667 -1.8714
 2802TIP3    H229822   1.183   6.559  16.416  0.4761 -0.6862  0.2697
 2803TIP3   OH229823   1.571   4.317   4.958 -0.1525 -0.6115  0.3749
 2803TIP3    H129824   1.638   4.253   4.934  1.0456  0.4397  0.8610
 2803TIP3    H229825   1.530   4.281   5.036  0.9939 -0.4604  1.0559
 2804TIP3   OH229826   6.190   0.638  12.654  0.0536  0.6098  0.0553
 2804TIP3    H129827   6.261   0.694  12.684 -0.5959  0.1364  2.5733
 2804TIP3    H229828   6.191   0.563  12.713 -0.9303 -0.6248 -1.4586
 2805TIP3   OH229829   2.936   2.933   0.022  0.3745 -0.4357  0.1371
 2805TIP3    H129830   2.877   2.865  -0.012 -0.5353 -0.4524  1.7421
 2805TIP3    H229831   2.958   2.903   0.110  1.1817  0.5980  0.2810
 2806TIP3   OH229832   1.527   5.691  14.012 -0.1366  0.3926 -0.1008
 2806TIP3    H129833   1.568   5.743  13.942 -0.4182  0.4049 -0.2572
 2806TIP3    H229834   1.510   5.754  14.082 -0.0788  0.4266 -0.1179
 2807TIP3   OH229835   0.195   4.609  14.831 -0.1178 -0.1602 -0.0777
 2807TIP3    H129836   0.174   4.662  14.754 -0.3124 -1.0747 -0.6562
 2807TIP3    H229837   0.122   4.624  14.891  0.4043  1.1501  0.2489
 2808TIP3   OH229838   5.613   4.977  12.202  0.1229 -0.3327 -0.2930
 2808TIP3    H129839   5.604   4.886  12.172  0.1266 -0.4420  0.0338
 2808TIP3    H229840   5.525   5.000  12.233  0.8057 -1.2315  2.4477
 2809TIP3   OH229841   1.557   3.736  15.117  0.2006 -0.5025 -0.4286
 2809TIP3    H129842   1.491   3.686  15.164  0.3233 -0.4302 -0.1779
 2809TIP3    H229843   1.593   3.796  15.182  0.1502 -0.1845 -0.6926
 2810TIP3   OH229844   0.710   3.154   3.134 -0.2934 -0.6211  0.1599
 2810TIP3    H129845   0.762   3.235   3.129  0.7189 -1.2899 -0.6026
 2810TIP3    H229846   0.683   3.148   3.225 -1.4042  1.2012 -0.0257
 2811TIP3   OH229847   1.944   5.914  15.262  0.5306 -0.0905 -0.0950
 2811TIP3    H129848   2.008   5.957  15.319 -1.5827  1.2321  1.3787
 2811TIP3    H229849   1.925   5.979  15.195  0.6529 -0.4294 -0.4559
 2812TIP3   OH229850   0.709   2.875  14.186  0.3285 -0.1905 -0.0593
 2812TIP3    H129851   0.619   2.904  14.174  0.4540  0.2526  0.0712
 2812TIP3    H229852   0.734   2.909  14.271 -0.6014 -3.4361  1.6054
 2813TIP3   OH229853   1.501   3.352  12.576 -0.0267  0.0350 -0.0742
 2813TIP3    H129854   1.458   3.267  12.584 -1.0846  0.6469  0.9470
 2813TIP3    H229855   1.536   3.353  12.487 -1.3543 -0.8460 -0.6193
 2814TIP3   OH229856   6.144   6.766  10.606 -0.4675  0.2892 -0.4664
 2814TIP3    H129857   6.218   6.706  10.613 -0.1569  0.7569  0.4465
 2814TIP3    H229858   6.067   6.709  10.595 -0.0816 -0.2374 -0.4575
 2815TIP3   OH229859   3.751   6.491   1.464 -0.1999 -0.1690 -0.0444
 2815TIP3    H129860   3.673   6.547   1.464 -1.1767 -1.4946  0.8856
 2815TIP3    H229861   3.725   6.415   1.413  0.8346 -0.1550 -0.5830
 2816TIP3   OH229862   5.376   1.151  15.704 -0.1989 -0.0611  0.7151
 2816TIP3    H129863   5.463   1.129  15.671  0.0140  0.2210  1.0961
 2816TIP3    H229864   5.348   1.073  15.751  0.7304  0.6061  2.4280
 2817TIP3   OH229865   6.625   4.812  13.990  0.6404  0.4565  0.1283
 2817TIP3    H129866   6.594   4.773  14.072  0.1670 -0.3125 -0.4109
 2817TIP3    H229867   6.629   4.739  13.929 -0.6736  1.3265 -1.0098
 2818TIP3   OH229868   4.572   6.063   3.333  0.3059  0.2142  0.0982
 2818TIP3    H129869   4.501   5.999   3.325 -0.2037  0.8618 -0.7478
 2818TIP3    H229870   4.617   6.040   3.414  0.0067 -1.0919 -0.0972
 2819TIP3   OH229871   6.687   6.034  14.377 -0.3302 -0.2129  0.4736
 2819TIP3    H129872   6.698   6.128  14.392 -1.5450 -0.1601  1.1613
 2819TIP3    H229873   6.618   6.009  14.438 -1.2734 -1.1980 -0.9704
 2820TIP3   OH229874   5.450   2.394   5.888 -0.6891 -0.0988 -0.4251
 2820TIP3    H129875   5.424   2.430   5.803  0.9579  2.5805  0.1762
 2820TIP3    H229876   5.381   2.423   5.948 -0.0723  0.8654 -0.1935
 2821TIP3   OH229877   4.209   0.271   4.017  0.4899 -0.4691  0.1914
 2821TIP3    H129878   4.208   0.183   3.977 -0.1628 -0.6533  0.6170
 2821TIP3    H229879   4.126   0.277   4.064  0.4623  0.4454  0.0247
 2822TIP3   OH229880   6.453   2.904  17.137  0.1067  0.2385  0.3838
 2822TIP3    H129881   6.440   2.909  17.042 -2.0601  0.0641  0.6434
 2822TIP3    H229882   6.439   2.993  17.168 -0.8816 -0.0304  0.7243
 2823TIP3   OH229883   5.250   5.712  15.675 -0.1744  0.3559  0.5462
 2823TIP3    H129884   5.331   5.726  15.723  0.5202 -0.7219 -0.2646
 2823TIP3    H229885   5.276   5.657  15.601 -1.6022  0.2121  0.1379
 2824TIP3   OH229886   1.475   3.331   1.522  0.2029  0.0978 -0.3990
 2824TIP3    H129887   1.409   3.398   1.538 -0.3573 -0.6348  0.3629
 2824TIP3    H229888   1.555   3.367   1.559  0.2143  0.9333 -1.2130
 2825TIP3   OH229889   0.384   1.503   4.943 -0.0333 -0.4740 -0.6538
 2825TIP3    H129890   0.289   1.503   4.948  0.0318  0.5342  0.7331
 2825TIP3    H229891   0.413   1.480   5.031  1.0177  0.0105 -0.8624
 2826TIP3   OH229892   5.752   3.244  11.011  0.2775  0.3528 -0.3377
 2826TIP3    H129893   5.811   3.201  10.948 -0.7856  0.0376 -1.1279
 2826TIP3    H229894   5.783   3.213  11.096 -0.1301 -1.5862 -0.8662
 2827TIP3   OH229895   1.388   1.553  15.853  0.1448 -0.5326  0.4310
 2827TIP3    H129896   1.357   1.504  15.776 -1.0457  1.5634 -0.4774
 2827TIP3    H229897   1.414   1.486  15.915  1.1214 -2.3023 -1.8074
 2828TIP3   OH229898   5.616   5.553   5.769  0.1683  0.5161 -0.3880
 2828TIP3    H129899   5.548   5.523   5.709 -1.0176  0.5732  0.9075
 2828TIP3    H229900   5.586   5.638   5.799  0.5086  0.2746  0.6616
 2829TIP3   OH229901   6.640   5.675  15.196 -0.1144 -0.2591  0.3851
 2829TIP3    H129902   6.593   5.695  15.115  0.7906  0.1234 -0.0493
 2829TIP3    H229903   6.574   5.636  15.253 -0.8738 -0.0642 -0.3555
 2830TIP3   OH229904   0.054   0.387  12.201  0.1527  0.2145  0.3485
 2830TIP3    H129905   0.080   0.471  12.238 -0.9350  1.1406 -0.9640
 2830TIP3    H229906   0.109   0.376  12.124 -0.9937  0.5973 -0.5293
 2831TIP3   OH229907   6.221   2.603   4.634 -0.4923 -0.0370 -0.0452
 2831TIP3    H129908   6.165   2.618   4.558 -1.4467 -0.5048  0.5635
 2831TIP3    H229909   6.184   2.659   4.702 -0.2108 -0.3447  0.3583
 2832TIP3   OH229910   1.071   6.667   1.551  0.4231  0.5042 -0.5239
 2832TIP3    H129911   1.148   6.640   1.601  0.3229  1.9969  0.4771
 2832TIP3    H229912   1.099   6.747   1.506 -0.0262  0.1163 -1.4974
 2833TIP3   OH229913   4.292   6.518   5.045  0.3144  0.0084 -0.1085
 2833TIP3    H129914   4.280   6.474   4.962 -0.6311  0.8740 -0.4403
 2833TIP3    H229915   4.266   6.609   5.029  0.5562  0.2942  1.0080
 2834TIP3   OH229916   4.916   2.481   5.462  0.2650  0.1121  0.0068
 2834TIP3    H129917   4.859   2.409   5.490  1.7404 -1.3210 -0.5711
 2834TIP3    H229918   4.983   2.488   5.530  0.6521  0.3379 -0.3938
 2835TIP3   OH229919   0.725   6.432  16.978  0.1122 -0.7289 -0.0547
 2835TIP3    H129920   0.680   6.369  17.035  0.3212 -0.7065  0.1371
 2835TIP3    H229921   0.759   6.498  17.038 -0.7903 -0.0062 -0.3249
 2836TIP3   OH229922   3.188   4.604  13.595 -0.2964 -0.1447 -0.3128
 2836TIP3    H129923   3.281   4.582  13.591 -0.4697 -0.7562 -1.0616
 2836TIP3    H229924   3.165   4.592  13.687  0.7818  1.8087  0.2519
 2837TIP3   OH229925   3.041   2.631   4.092  0.0363 -0.1902  0.9006
 2837TIP3    H129926   3.043   2.540   4.120  0.6771 -0.9082 -1.3506
 2837TIP3    H229927   3.107   2.675   4.145  3.2319 -2.0928 -1.3218
 2838TIP3   OH229928   0.517   2.770  17.059 -0.1731 -0.5601  0.1000
 2838TIP3    H129929   0.577   2.781  16.986 -1.5918 -0.1871 -1.0424
 2838TIP3    H229930   0.501   2.676  17.064  1.4191 -0.7822  1.1757
 2839TIP3   OH229931   2.466   5.339   6.259  0.3293  0.6587  0.4766
 2839TIP3    H129932   2.437   5.377   6.342 -0.2083 -0.1916  0.6861
 2839TIP3    H229933   2.556   5.310   6.277 -0.6996 -1.9996  1.6172
 2840TIP3   OH229934   3.878   6.594  13.046  0.0852 -0.4226  0.2814
 2840TIP3    H129935   3.786   6.599  13.073 -0.3877 -0.7753 -1.2021
 2840TIP3    H229936   3.875   6.547  12.963  1.6803 -1.0018  0.5438
 2841TIP3   OH229937   2.503   1.269  12.521  0.1878 -0.6461  0.3748
 2841TIP3    H129938   2.549   1.312  12.449 -0.0031 -0.4923  0.3453
 2841TIP3    H229939   2.477   1.184  12.485 -3.5131  0.9970 -1.1090
 2842TIP3   OH229940   4.847   3.780   2.926  0.5967  0.2052  0.0993
 2842TIP3    H129941   4.872   3.756   2.837 -0.5471  0.9136 -0.4275
 2842TIP3    H229942   4.919   3.749   2.981  1.6520  0.4137 -1.1525
 2843TIP3   OH229943   6.473   4.913  11.438  0.3443  0.3545 -0.1119
 2843TIP3    H129944   6.406   4.961  11.487  0.6373 -0.7111  1.3563
 2843TIP3    H229945   6.503   4.975  11.371 -0.2326  1.7507  0.9074
 2844TIP3   OH229946   2.460   5.021  12.018  0.3775 -0.5369 -0.6335
 2844TIP3    H129947   2.471   4.997  11.926  0.9188 -1.9719 -0.2080
 2844TIP3    H229948   2.407   4.951  12.055 -0.6070  0.4920 -0.0390
 2845TIP3   OH229949   3.364   1.257   0.618 -0.3104 -0.1049  0.0664
 2845TIP3    H129950   3.299   1.201   0.576 -0.0166  0.3476 -0.9907
 2845TIP3    H229951   3.432   1.269   0.552  0.3149  0.3333  0.7851
 2846TIP3   OH229952   3.509   3.991  17.161 -0.5490  0.6356 -0.1107
 2846TIP3    H129953   3.448   4.047  17.113 -0.1495  2.0343  0.9934
 2846TIP3    H229954   3.481   3.996  17.252  0.9704  1.0087  0.3604
 2847TIP3   OH229955   0.310   2.088  14.058  0.0838 -0.0019  0.4400
 2847TIP3    H129956   0.383   2.150  14.064  0.4692 -0.5183  1.1534
 2847TIP3    H229957   0.297   2.074  13.965  1.9390 -1.1466  0.3295
 2848TIP3   OH229958   4.526   1.934   0.201  0.5166 -0.0826 -0.6370
 2848TIP3    H129959   4.557   1.918   0.112 -0.4241 -2.0056 -0.6242
 2848TIP3    H229960   4.563   2.020   0.223  2.6785 -0.6195 -2.0131
 2849TIP3   OH229961   3.743   3.052  12.825 -0.2194 -0.3206 -0.5486
 2849TIP3    H129962   3.805   2.991  12.784  0.1713 -0.6816  0.5618
 2849TIP3    H229963   3.790   3.087  12.900 -1.2723 -0.4059  0.1632
 2850TIP3   OH229964   0.220   4.223   4.002  0.2335 -0.2960 -0.7394
 2850TIP3    H129965   0.240   4.220   3.908  0.5515  0.8566 -0.7219
 2850TIP3    H229966   0.238   4.314   4.027 -1.3411 -0.2034  0.1126
 2851TIP3   OH229967   6.667   0.137   0.329  0.0185 -0.2037  0.0169
 2851TIP3    H129968   6.693   0.166   0.241  0.8820 -0.5752  0.1395
 2851TIP3    H229969   6.576   0.111   0.320  0.1997 -0.5506 -0.8489
 2852TIP3   OH229970   4.479   6.142  15.707 -0.1305 -0.5890  0.0992
 2852TIP3    H129971   4.574   6.152  15.711 -0.1795  0.2397 -0.7768
 2852TIP3    H229972   4.459   6.079  15.776  0.8458  0.6418  1.5322
 2853TIP3   OH229973   1.560   5.430  14.108  0.3820 -0.2706 -0.2572
 2853TIP3    H129974   1.471   5.408  14.080  0.5925 -0.3890 -0.8442
 2853TIP3    H229975   1.564   5.526  14.102  0.7683 -0.3637 -1.7135
 2854TIP3   OH229976   3.013   2.344  11.869 -0.3732  0.2460  0.6170
 2854TIP3    H129977   3.005   2.409  11.939 -0.0078 -1.0735  1.9213
 2854TIP3    H229978   2.924   2.309  11.859 -0.3300  0.0741  0.8069
 2855TIP3   OH229979   1.297   4.758   5.784 -0.1928  0.3946 -0.1097
 2855TIP3    H129980   1.326   4.836   5.737 -0.1979  0.8096  0.5630
 2855TIP3    H229981   1.220   4.727   5.736  0.1385  0.4870 -0.6948
 2856TIP3   OH229982   3.421   1.987   3.955 -0.1420  0.8012 -0.3814
 2856TIP3    H129983   3.336   2.002   3.914  0.1015  0.1693 -1.1334
 2856TIP3    H229984   3.479   1.963   3.883  0.4627  0.3727  0.2384
 2857TIP3   OH229985   0.486   1.425  13.446 -0.6309 -0.3542  0.0930
 2857TIP3    H129986   0.423   1.474  13.500  0.4584  0.2660  0.8031
 2857TIP3    H229987   0.544   1.383  13.510 -1.0276 -1.8916 -0.5302
 2858TIP3   OH229988   2.731   1.520  17.124 -0.4906 -0.0773  0.0157
 2858TIP3    H129989   2.683   1.522  17.041  0.1910  1.7562 -0.3612
 2858TIP3    H229990   2.822   1.533  17.098 -0.2256  0.0590  1.0206
 2859TIP3   OH229991   6.593   1.131  15.109 -0.5082 -0.5813 -0.2427
 2859TIP3    H129992   6.650   1.060  15.140  0.0620  0.5604  1.4052
 2859TIP3    H229993   6.520   1.130  15.171  0.0671  0.9800  0.4805
 2860TIP3   OH229994   4.779   1.380  12.503  0.1344  0.0412  0.3366
 2860TIP3    H129995   4.790   1.418  12.590 -1.6791 -0.1075  0.6476
 2860TIP3    H229996   4.703   1.427  12.466 -1.4172 -2.4384  0.2787
 2861TIP3   OH229997   3.760   2.237   0.663 -0.0016 -0.6763 -0.5967
 2861TIP3    H129998   3.765   2.242   0.567 -0.1392  0.7967 -0.5414
 2861TIP3    H229999   3.841   2.194   0.689 -0.0573 -1.2803 -1.3908
 2862TIP3   OH230000   3.292   1.475   1.130 -0.1472  0.5555 -0.3771
 2862TIP3    H130001   3.211   1.466   1.081  0.0680  0.3839 -0.7099
 2862TIP3    H230002   3.361   1.459   1.065  0.2303  3.3706 -0.7071
 2863TIP3   OH230003   2.187   3.116   6.694  0.7590  0.3657  0.5481
 2863TIP3    H130004   2.201   3.192   6.750  3.5108  0.1241  0.2761
 2863TIP3    H230005   2.179   3.043   6.754 -0.7292  0.6947  0.7666
 2864TIP3   OH230006   5.466   3.960   3.533  0.1304  0.4102 -0.1030
 2864TIP3    H130007   5.552   3.999   3.548  0.3267  0.0815 -0.3851
 2864TIP3    H230008   5.404   4.028   3.562  0.4816  0.5943  0.2247
 2865TIP3   OH230009   5.495   5.788   2.986 -0.1253 -0.7053  0.1368
 2865TIP3    H130010   5.424   5.850   2.972  2.5824  2.1715 -1.5647
 2865TIP3    H230011   5.511   5.790   3.080 -2.6649 -1.9224  0.6472
 2866TIP3   OH230012   4.087   0.517  16.349  0.0638  0.3248  0.0138
 2866TIP3    H130013   4.009   0.529  16.294  0.3079 -1.7532 -0.8196
 2866TIP3    H230014   4.156   0.565  16.303 -0.5804  1.7430  0.4848
 2867TIP3   OH230015   5.758   6.376   5.426 -0.0036 -0.1145  0.9649
 2867TIP3    H130016   5.795   6.298   5.466 -0.5492 -0.0659  1.5633
 2867TIP3    H230017   5.806   6.449   5.467  0.8900 -0.1516  0.0069
 2868TIP3   OH230018   5.682   5.604  12.140 -0.1968  0.4566  0.4844
 2868TIP3    H130019   5.673   5.519  12.183 -2.0620 -0.2456 -1.2199
 2868TIP3    H230020   5.765   5.639  12.173  0.8849 -2.2625  0.7820
 2869TIP3   OH230021   2.685   1.828  12.006  0.0439 -0.3990  0.0640
 2869TIP3    H130022   2.659   1.847  11.915 -0.7576 -1.3585  0.0915
 2869TIP3    H230023   2.719   1.739  12.003  0.0441 -0.4211  0.7118
 2870TIP3   OH230024   4.973   6.326   0.978  0.7013 -0.2951  0.3570
 2870TIP3    H130025   4.895   6.355   0.930  0.9072 -1.2423 -0.5816
 2870TIP3    H230026   4.939   6.287   1.059  0.2009 -0.6182 -0.0062
 2871TIP3   OH230027   2.985   5.173   4.712 -0.5369 -0.0630 -0.6381
 2871TIP3    H130028   3.066   5.155   4.759 -1.0064 -0.7221 -0.0772
 2871TIP3    H230029   2.960   5.088   4.674 -2.3397 -0.4543  1.3554
 2872TIP3   OH230030   6.640   2.289   5.065 -0.5291  0.4617 -0.3369
 2872TIP3    H130031   6.651   2.376   5.103 -1.9479 -0.2469  1.7737
 2872TIP3    H230032   6.546   2.271   5.073 -0.4790 -0.6943 -2.0480
 2873TIP3   OH230033   5.051   1.788   5.498 -0.0265 -0.2626 -0.8571
 2873TIP3    H130034   5.085   1.799   5.587 -0.5581 -2.3725 -0.3510
 2873TIP3    H230035   5.015   1.874   5.475 -0.4799  0.1466  1.2295
 2874TIP3   OH230036   5.002   3.916  14.589  0.4429  0.1138  0.3669
 2874TIP3    H130037   5.041   3.855  14.652 -0.3551 -0.5514  0.2194
 2874TIP3    H230038   5.015   3.874  14.504 -0.3223  0.0303  0.2904
 2875TIP3   OH230039   4.484   5.451  13.035  0.2560 -0.2012  0.5757
 2875TIP3    H130040   4.394   5.479  13.054  0.5207 -1.0368  3.2347
 2875TIP3    H230041   4.479   5.414  12.946 -1.7536  0.8372  0.2227
 2876TIP3   OH230042   5.023   4.621   2.405 -0.1026 -0.0012 -0.5518
 2876TIP3    H130043   5.036   4.553   2.471  0.6406  2.4741  1.9058
 2876TIP3    H230044   5.104   4.621   2.354 -0.0134 -0.7792 -0.4137
 2877TIP3   OH230045   4.716   1.711  17.026 -0.1695 -0.4660  0.0546
 2877TIP3    H130046   4.642   1.662  16.989 -0.3948 -0.5156  0.5621
 2877TIP3    H230047   4.675   1.785  17.071 -0.0093 -1.1961  1.4454
 2878TIP3   OH230048   6.423   2.770  11.880  0.1834 -0.3484  0.0952
 2878TIP3    H130049   6.413   2.808  11.792 -0.3223 -0.4889  0.0875
 2878TIP3    H230050   6.481   2.831  11.926 -0.5786  0.4166  0.0699
 2879TIP3   OH230051   4.306   4.170  17.188 -0.3531 -0.6659 -0.2150
 2879TIP3    H130052   4.234   4.111  17.166 -1.3086  0.7360 -0.9569
 2879TIP3    H230053   4.358   4.122  17.252 -2.0306 -1.6639  0.4379
 2880TIP3   OH230054   1.830   6.345  11.272 -0.2416 -0.3603  0.2511
 2880TIP3    H130055   1.824   6.274  11.210  1.3932  1.7408 -2.4284
 2880TIP3    H230056   1.762   6.407  11.245 -0.6470 -0.1801  1.6203
 2881TIP3   OH230057   0.266   6.207  11.480  0.2987 -0.1208 -0.3215
 2881TIP3    H130058   0.304   6.152  11.549 -1.6927  2.2019  2.7403
 2881TIP3    H230059   0.245   6.146  11.409 -2.9657 -3.5799  3.4066
 2882TIP3   OH230060   5.849   5.725   4.609  0.2551  0.4382 -0.3305
 2882TIP3    H130061   5.827   5.666   4.537  2.4536 -0.3533 -0.3841
 2882TIP3    H230062   5.869   5.808   4.566 -1.5233  0.8680 -0.3613
 2883TIP3   OH230063   1.213   0.531   0.743 -0.7629 -0.1691  0.3848
 2883TIP3    H130064   1.211   0.526   0.839 -1.2136  2.0422  0.5057
 2883TIP3    H230065   1.150   0.599   0.721  1.9535  1.8851 -1.2790
 2884TIP3   OH230066   1.725   0.660  14.764  0.1760 -0.3641  0.1748
 2884TIP3    H130067   1.682   0.742  14.787 -0.9036 -0.7809 -0.3022
 2884TIP3    H230068   1.799   0.686  14.709 -0.5962  0.2472 -0.5948
 2885TIP3   OH230069   3.898   2.838  12.751  0.6769 -0.8075  0.3737
 2885TIP3    H130070   3.877   2.789  12.832  2.4077  1.1302  2.0422
 2885TIP3    H230071   3.831   2.809  12.689 -2.1306 -0.6815  3.1630
 2886TIP3   OH230072   2.330   0.628   2.725  0.0878  0.5283 -0.4516
 2886TIP3    H130073   2.252   0.633   2.780  0.5554 -1.0793  0.3596
 2886TIP3    H230074   2.308   0.563   2.658  1.5893 -1.7775  1.2114
 2887TIP3   OH230075   1.263   4.070   4.824 -0.3705  0.3292  0.6366
 2887TIP3    H130076   1.204   4.145   4.821  0.1140  0.8240  2.6741
 2887TIP3    H230077   1.343   4.100   4.781 -1.1394  0.0521 -1.0385
 2888TIP3   OH230078   4.950   4.978  10.890  0.3099  0.2108  0.3431
 2888TIP3    H130079   4.873   5.035  10.887  0.6850  0.6903 -0.5599
 2888TIP3    H230080   4.916   4.890  10.872  0.3367  0.8414 -3.1184
 2889TIP3   OH230081   3.845   4.586  11.785 -0.3221 -0.3052  0.3313
 2889TIP3    H130082   3.827   4.495  11.763  0.7493 -0.5929  0.5832
 2889TIP3    H230083   3.792   4.637  11.724  0.0706 -1.0994 -0.6865
 2890TIP3   OH230084   1.846   2.229   0.802  0.2033 -0.4720 -0.1393
 2890TIP3    H130085   1.915   2.207   0.864  0.3108  1.9058  0.6197
 2890TIP3    H230086   1.873   2.186   0.721  1.5282 -1.2607  0.6973
 2891TIP3   OH230087   5.301   1.715  16.848  0.2577  0.3884  0.1620
 2891TIP3    H130088   5.275   1.670  16.929  0.3676  0.0373  0.0020
 2891TIP3    H230089   5.251   1.796  16.849  0.1243  0.3036  0.4970
 2892TIP3   OH230090   1.978   3.381  16.103 -0.0345  0.2466 -0.1513
 2892TIP3    H130091   1.995   3.401  16.011  1.2240  0.0802  0.0395
 2892TIP3    H230092   1.882   3.379  16.110 -0.1690  2.5259 -0.9526
 2893TIP3   OH230093   6.268   4.416  13.838 -0.1879 -0.2709  0.3641
 2893TIP3    H130094   6.241   4.437  13.748 -0.5576 -3.3926 -0.3158
 2893TIP3    H230095   6.297   4.325  13.833  2.1977  0.2955  2.9261
 2894TIP3   OH230096   2.564   4.141   5.037 -0.3594 -0.2469  0.0394
 2894TIP3    H130097   2.564   4.082   4.961  1.4268  2.5869 -2.2781
 2894TIP3    H230098   2.568   4.228   4.999  2.3818  1.2031  3.4392
 2895TIP3   OH230099   3.625   2.403  14.984 -0.5031  0.1799  0.0377
 2895TIP3    H130100   3.687   2.432  15.051 -0.0498  0.3539 -0.4540
 2895TIP3    H230101   3.612   2.481  14.929 -0.7601 -0.0030 -0.1566
 2896TIP3   OH230102   3.418   5.814   0.441 -0.0456 -0.3033  0.4020
 2896TIP3    H130103   3.510   5.826   0.418  0.1544  0.8617  1.7140
 2896TIP3    H230104   3.371   5.875   0.384  0.3944  2.1463  2.5575
 2897TIP3   OH230105   1.738   5.810  15.432 -0.2078 -0.1322  0.0758
 2897TIP3    H130106   1.686   5.888  15.450 -1.3880 -0.8098 -0.3227
 2897TIP3    H230107   1.807   5.840  15.372 -0.2264  0.7356  0.4827
 2898TIP3   OH230108   4.340   4.269   5.346 -0.1108 -0.7543  0.2755
 2898TIP3    H130109   4.266   4.248   5.289  0.3022 -1.4750 -0.0028
 2898TIP3    H230110   4.416   4.274   5.287  0.2092 -0.8593  0.6714
 2899TIP3   OH230111   0.530   4.143  11.713  0.0973 -0.0985 -0.1568
 2899TIP3    H130112   0.445   4.144  11.668 -0.5447  0.6690  1.0154
 2899TIP3    H230113   0.528   4.063  11.766  0.3488 -0.3908 -0.5953
 2900TIP3   OH230114   1.963   6.742  16.758  0.1326  0.4840  0.8457
 2900TIP3    H130115   1.994   6.722  16.847 -0.4469  1.1666  1.2048
 2900TIP3    H230116   1.944   6.656  16.720  0.0339  0.2091  1.5071
 2901TIP3   OH230117   1.331   4.001  16.718  0.3071 -0.1306  0.0104
 2901TIP3    H130118   1.251   3.971  16.762  0.9697 -1.4138  0.3475
 2901TIP3    H230119   1.315   3.983  16.625  0.3490 -0.7209  0.1191
 2902TIP3   OH230120   6.349   0.624   3.734 -0.3452 -0.2734 -0.4715
 2902TIP3    H130121   6.320   0.596   3.821 -1.3012  0.0297 -0.6847
 2902TIP3    H230122   6.431   0.577   3.720 -1.0483 -1.6433 -0.1136
 2903TIP3   OH230123   0.335   1.843  10.886 -0.2466 -0.3963  0.1576
 2903TIP3    H130124   0.321   1.937  10.899  0.0465 -0.2279 -0.6889
 2903TIP3    H230125   0.249   1.809  10.862 -0.8239 -0.7367  2.5995
 2904TIP3   OH230126   4.381   3.739   6.320 -0.2047  0.2566 -0.1221
 2904TIP3    H130127   4.373   3.685   6.241 -1.3086  2.5609 -1.6351
 2904TIP3    H230128   4.474   3.735   6.342 -0.2001 -1.9653 -0.3836
 2905TIP3   OH230129   1.054   5.505  12.892  0.0446 -0.3103  0.2287
 2905TIP3    H130130   1.149   5.515  12.899  0.1278  0.1209 -1.4627
 2905TIP3    H230131   1.022   5.524  12.980  1.4664  0.1531  0.6592
 2906TIP3   OH230132   1.176   6.521   0.556 -0.7416  0.1589  0.7331
 2906TIP3    H130133   1.185   6.426   0.565  0.4551  0.1320 -0.4946
 2906TIP3    H230134   1.225   6.542   0.476 -1.4913  1.7362  0.6667
 2907TIP3   OH230135   6.338   5.132   4.023 -0.4774 -0.7535 -0.1839
 2907TIP3    H130136   6.262   5.125   4.081 -1.1251 -1.6170 -1.1110
 2907TIP3    H230137   6.355   5.042   3.995  2.3483 -0.9065  1.8133
 2908TIP3   OH230138   2.930   3.365  16.303 -0.1719 -0.6929 -0.3640
 2908TIP3    H130139   2.952   3.311  16.227 -0.9378 -1.1713 -0.2454
 2908TIP3    H230140   2.870   3.312  16.354  0.0749 -0.2377  0.4119
 2909TIP3   OH230141   1.050   1.909   3.844  0.0881  0.1620  0.3069
 2909TIP3    H130142   0.973   1.853   3.836 -1.1440  1.9732 -1.0947
 2909TIP3    H230143   1.116   1.854   3.886 -1.0170 -2.3600 -1.1610
 2910TIP3   OH230144   3.597   2.947   2.546 -0.2609  0.1138 -0.3968
 2910TIP3    H130145   3.678   2.903   2.522  1.0730  0.7956  2.6368
 2910TIP3    H230146   3.529   2.902   2.496  1.8654 -1.1259 -2.2168
 2911TIP3   OH230147   0.574   4.890   2.987 -0.7448 -0.0876 -0.0640
 2911TIP3    H130148   0.638   4.932   2.930 -0.3908 -0.0997  0.3297
 2911TIP3    H230149   0.582   4.935   3.071  1.6465 -2.8310  1.2424
 2912TIP3   OH230150   2.869   0.123  13.029 -0.4043 -0.0862  0.5929
 2912TIP3    H130151   2.801   0.060  13.006 -0.2190 -0.3491  0.7630
 2912TIP3    H230152   2.928   0.122  12.954 -0.3604 -0.1699  0.6289
 2913TIP3   OH230153   5.148   3.990   5.548  0.2690 -0.3726  0.7814
 2913TIP3    H130154   5.237   3.971   5.519  0.3765  0.8889  0.2300
 2913TIP3    H230155   5.117   3.909   5.589  0.8441 -1.5412 -1.0715
 2914TIP3   OH230156   2.751   2.130   4.958  0.5123  0.2926 -0.2135
 2914TIP3    H130157   2.751   2.178   5.041  0.1096  2.1008 -1.2301
 2914TIP3    H230158   2.826   2.165   4.911  2.0665 -2.3074  0.2407
 2915TIP3   OH230159   4.109   6.555  16.574 -0.3404 -0.3010  0.4309
 2915TIP3    H130160   4.197   6.593  16.564 -1.0132  1.2234  0.1324
 2915TIP3    H230161   4.080   6.587  16.660 -0.0352 -2.0214  1.1924
 2916TIP3   OH230162   6.771   3.335  12.055  0.2528 -0.7234  1.1505
 2916TIP3    H130163   6.816   3.397  12.112  2.3372 -0.8714 -0.2960
 2916TIP3    H230164   6.830   3.260  12.050  0.6215 -0.2678 -2.0491
 2917TIP3   OH230165   2.544   4.234  11.358  0.1966 -0.2896 -0.5160
 2917TIP3    H130166   2.523   4.189  11.440 -0.5434  0.0853 -0.4966
 2917TIP3    H230167   2.468   4.217  11.302  0.0218  0.7479 -0.5899
 2918TIP3   OH230168   1.456   4.806   5.493 -0.2783 -0.2078  0.6899
 2918TIP3    H130169   1.509   4.883   5.512  1.5461 -1.6217  1.5457
 2918TIP3    H230170   1.463   4.793   5.399  1.8408 -1.0098  0.9377
 2919TIP3   OH230171   3.732   6.007  15.773 -0.2637 -0.7511 -0.1803
 2919TIP3    H130172   3.730   6.098  15.802  0.6834 -2.0326  4.2427
 2919TIP3    H230173   3.642   5.978  15.778 -0.1472 -0.8721  1.1849
 2920TIP3   OH230174   0.746   6.710   2.917 -0.2077 -0.0113 -0.0618
 2920TIP3    H130175   0.699   6.728   2.836 -0.1324 -0.5693 -0.2359
 2920TIP3    H230176   0.680   6.720   2.986 -0.0428  1.3857 -0.1113
 2921TIP3   OH230177   4.203   5.707  14.964  0.0488 -0.0180  0.8897
 2921TIP3    H130178   4.123   5.704  14.913  1.2549  3.1714 -1.4028
 2921TIP3    H230179   4.240   5.619  14.957 -1.6215 -0.6154 -0.7193
 2922TIP3   OH230180   4.254   0.709   3.779  0.6835 -0.3690 -0.3570
 2922TIP3    H130181   4.289   0.628   3.816  0.8108 -0.2695 -0.2578
 2922TIP3    H230182   4.173   0.725   3.826  0.1384 -0.9780 -1.0721
 2923TIP3   OH230183   0.050   5.321  12.125  0.2759 -0.1602 -0.2440
 2923TIP3    H130184   0.021   5.341  12.036  0.9942 -1.7924 -0.8658
 2923TIP3    H230185   0.090   5.402  12.156  0.9716  0.1010 -1.7907
 2924TIP3   OH230186   2.591   3.351   5.402  0.3864  0.6789  0.0650
 2924TIP3    H130187   2.675   3.391   5.381  0.6231 -0.1862 -0.6373
 2924TIP3    H230188   2.526   3.415   5.374  0.7803  0.8546 -0.4517
 2925TIP3   OH230189   2.918   3.904   5.033 -0.1316 -0.1798  0.4247
 2925TIP3    H130190   2.864   3.839   4.988  0.6485  0.5569 -1.6216
 2925TIP3    H230191   2.992   3.854   5.067  1.0555 -0.2333 -2.1161
 2926TIP3   OH230192   3.391   1.313  12.737  0.0224 -0.6392  0.0025
 2926TIP3    H130193   3.412   1.393  12.784 -0.2069 -0.8799  0.5181
 2926TIP3    H230194   3.476   1.270  12.725  0.0154 -0.8652  0.7298
 2927TIP3   OH230195   1.701   1.033  15.888 -0.2804  0.3657  0.2173
 2927TIP3    H130196   1.780   1.005  15.843 -0.7213 -0.6220  0.0377
 2927TIP3    H230197   1.728   1.109  15.940  0.8360 -0.0926  0.3211
 2928TIP3   OH230198   1.503   1.406   4.337  0.1801 -0.3662 -0.0188
 2928TIP3    H130199   1.574   1.343   4.349  0.5519 -0.0156 -0.3666
 2928TIP3    H230200   1.473   1.426   4.425 -0.1236 -1.2389  0.0877
 2929TIP3   OH230201   2.186   3.861  11.990 -0.2698  0.6774 -0.1823
 2929TIP3    H130202   2.266   3.903  12.022  0.5362  0.2520 -1.5650
 2929TIP3    H230203   2.186   3.880  11.896 -0.7702 -0.9807 -0.5306
 2930TIP3   OH230204   2.706   4.440   6.205 -0.4412  0.0065 -0.0389
 2930TIP3    H130205   2.638   4.502   6.179 -0.9624 -0.7971 -0.5888
 2930TIP3    H230206   2.745   4.411   6.122  1.2973  1.2515  0.2943
 2931TIP3   OH230207   5.207   0.953  17.010  0.7657  0.4946 -0.2671
 2931TIP3    H130208   5.201   1.033  16.958  0.6857  0.4775 -0.2841
 2931TIP3    H230209   5.154   0.889  16.964  0.6766  0.4857 -0.1538
 2932TIP3   OH230210   0.900   0.491  16.077  0.7276 -0.1109  0.8939
 2932TIP3    H130211   0.815   0.460  16.106  0.1615 -1.4796 -2.0483
 2932TIP3    H230212   0.963   0.440  16.127 -0.1630  0.2554  2.4139
 2933TIP3   OH230213   2.209   2.384  15.803 -0.2025  0.0173  0.3504
 2933TIP3    H130214   2.261   2.354  15.879  0.2482 -0.9827 -0.3414
 2933TIP3    H230215   2.132   2.327  15.803 -0.8152  0.8414  0.7856
 2934TIP3   OH230216   6.543   2.458   2.999  0.1271 -0.3644 -0.4669
 2934TIP3    H130217   6.630   2.498   2.990  0.7028 -1.5660 -0.3250
 2934TIP3    H230218   6.498   2.514   3.062  1.5674 -0.9648  1.1303
 2935TIP3   OH230219   5.037   0.858  16.803 -0.4088 -0.0621  0.6287
 2935TIP3    H130220   5.112   0.825  16.753 -0.0575  0.8475  0.5345
 2935TIP3    H230221   4.971   0.789  16.796  0.4728 -0.9285  0.8316
 2936TIP3   OH230222   3.001   2.687  11.723  0.4927  0.6086  0.2399
 2936TIP3    H130223   2.928   2.635  11.691 -0.4599  0.8113  2.0058
 2936TIP3    H230224   3.075   2.625  11.726  0.2529  0.2508 -0.9554
 2937TIP3   OH230225   5.072   6.697   1.754  0.0861  0.5078  0.3364
 2937TIP3    H130226   5.124   6.617   1.766  0.3930  0.5170 -0.7965
 2937TIP3    H230227   5.137   6.764   1.731 -0.5126  0.2507 -2.2636
 2938TIP3   OH230228   2.210   5.888   3.404 -0.2137 -0.5208 -0.0496
 2938TIP3    H130229   2.288   5.835   3.417  0.2302  0.0212 -0.4722
 2938TIP3    H230230   2.157   5.872   3.482  0.6933 -0.2584  0.6309
 2939TIP3   OH230231   2.345   5.211  12.198 -0.0140 -0.4217 -0.2717
 2939TIP3    H130232   2.411   5.253  12.253 -0.2843  2.2453 -1.9297
 2939TIP3    H230233   2.395   5.170  12.127 -0.1244  2.5114 -2.1259
 2940TIP3   OH230234   6.645   1.707  15.956  0.0746  0.6405  0.1789
 2940TIP3    H130235   6.654   1.740  16.045 -0.1758  1.2197 -0.0025
 2940TIP3    H230236   6.621   1.785  15.905 -0.6581  0.1384 -0.2366
 2941TIP3   OH230237   0.614   1.792  14.402 -0.9264 -0.2419  0.1116
 2941TIP3    H130238   0.686   1.793  14.339  0.0641 -0.6927  1.2240
 2941TIP3    H230239   0.547   1.849  14.362 -0.8951 -1.6081 -1.9820
 2942TIP3   OH230240   6.631   1.425   0.988 -0.1013  0.4906  0.2190
 2942TIP3    H130241   6.647   1.496   0.926  1.0759 -0.4203 -0.5481
 2942TIP3    H230242   6.544   1.443   1.024 -1.5811  0.0728 -3.0328
 2943TIP3   OH230243   3.731   0.651  14.521 -0.0086 -0.3241  0.2059
 2943TIP3    H130244   3.785   0.713  14.472 -1.7087  0.1505 -1.1187
 2943TIP3    H230245   3.655   0.637  14.465 -2.1418  0.4166  2.8603
 2944TIP3   OH230246   6.234   0.032  15.884 -0.5846  0.2197 -0.6845
 2944TIP3    H130247   6.306   0.057  15.941 -1.7019 -0.0780  0.9068
 2944TIP3    H230248   6.235  -0.064  15.885  0.1898  0.1957 -2.2254
 2945TIP3   OH230249   2.892   4.548  13.669  0.1842 -0.3635 -0.4051
 2945TIP3    H130250   2.962   4.572  13.730 -1.3067  0.6492  0.9531
 2945TIP3    H230251   2.937   4.537  13.585  1.8880  0.8445  0.3053
 2946TIP3   OH230252   4.085   1.041  15.004 -0.1840 -0.6892 -0.6755
 2946TIP3    H130253   4.178   1.021  15.015  0.0107  1.2570  1.8166
 2946TIP3    H230254   4.081   1.099  14.928  0.4233 -2.0080 -1.7376
 2947TIP3   OH230255   6.177   1.184   0.985  0.1450 -0.6510 -0.1915
 2947TIP3    H130256   6.234   1.160   0.912  0.4885 -2.2846  0.5936
 2947TIP3    H230257   6.235   1.231   1.046 -0.3056  1.3713 -1.2726
 2948TIP3   OH230258   6.263   3.813   0.769 -0.1192 -0.0287  0.1108
 2948TIP3    H130259   6.177   3.786   0.736  0.4609 -3.4457  1.1394
 2948TIP3    H230260   6.256   3.804   0.864  0.8300  1.4347  0.3247
 2949TIP3   OH230261   3.034   1.518   5.065 -0.1143  0.4109  0.1379
 2949TIP3    H130262   3.120   1.532   5.025  0.2683 -2.5580 -0.2613
 2949TIP3    H230263   2.974   1.511   4.991 -0.5912  1.7864  0.3878
 2950TIP3   OH230264   4.559   2.840   5.569 -0.0084  0.2835 -0.5487
 2950TIP3    H130265   4.498   2.772   5.596 -0.0616  0.2956 -0.6417
 2950TIP3    H230266   4.568   2.896   5.646 -0.9805  0.9199 -0.9002
 2951TIP3   OH230267   4.925   1.713  15.243 -0.5772  0.5385 -0.5730
 2951TIP3    H130268   4.964   1.640  15.195  0.1134 -0.2393  1.1376
 2951TIP3    H230269   4.848   1.738  15.191 -0.2451 -0.7276 -1.6957
 2952TIP3   OH230270   2.796   2.407   4.714 -0.4388  1.2073  0.1677
 2952TIP3    H130271   2.880   2.383   4.754 -1.4762 -1.6177  0.7583
 2952TIP3    H230272   2.779   2.496   4.745  3.0074  2.4443 -1.1297
 2953TIP3   OH230273   5.110   3.642  14.962 -0.7129 -0.4350 -0.4823
 2953TIP3    H130274   5.058   3.717  14.933  2.7485  1.5515 -1.8910
 2953TIP3    H230275   5.130   3.660  15.054 -0.6914 -0.1272 -0.5489
 2954TIP3   OH230276   6.384   6.255   5.087 -0.1032  0.6179 -0.1556
 2954TIP3    H130277   6.399   6.349   5.081 -0.4890  0.6731 -0.2523
 2954TIP3    H230278   6.289   6.246   5.100 -0.2000  0.1937 -1.1514
 2955TIP3   OH230279   0.552   5.701  16.234  0.3016 -0.2275 -0.2839
 2955TIP3    H130280   0.627   5.641  16.235 -0.2278 -0.9152 -0.7531
 2955TIP3    H230281   0.479   5.648  16.268  0.1932  0.6561  0.8555
 2956TIP3   OH230282   2.111   6.013  14.479 -0.2505  0.2943  0.4673
 2956TIP3    H130283   2.199   6.032  14.513 -0.2100 -1.1724  1.2087
 2956TIP3    H230284   2.112   5.919  14.461 -0.4831  0.9228 -3.0793
 2957TIP3   OH230285   0.287   5.752   4.647  0.0101 -0.3013 -0.0951
 2957TIP3    H130286   0.279   5.846   4.663 -0.3957 -0.6384  1.7715
 2957TIP3    H230287   0.318   5.716   4.730 -1.6894 -2.0646 -0.1916
 2958TIP3   OH230288   3.117   2.199   5.758  0.3118  0.2211 -0.3689
 2958TIP3    H130289   3.138   2.136   5.827  0.7367  1.1322  0.3448
 2958TIP3    H230290   3.085   2.146   5.686  0.4439 -0.7941  0.3142
 2959TIP3   OH230291   4.425   1.171  16.352 -0.6546  0.1228  0.5826
 2959TIP3    H130292   4.345   1.155  16.403  0.5056  0.3834  2.5463
 2959TIP3    H230293   4.460   1.252  16.388  1.6204 -1.1004  1.2062
 2960TIP3   OH230294   5.583   5.634   6.791  0.1605 -0.0062 -0.2368
 2960TIP3    H130295   5.616   5.547   6.770 -2.2166 -0.9849 -0.0363
 2960TIP3    H230296   5.542   5.665   6.711  0.9510  0.9287 -0.2916
 2961TIP3   OH230297   5.812   5.437   1.824 -0.0548  0.2128  0.3625
 2961TIP3    H130298   5.782   5.449   1.914 -1.8800  0.7499 -0.2992
 2961TIP3    H230299   5.809   5.342   1.811  0.2529  0.1298  0.8633
 2962TIP3   OH230300   0.571   0.533   1.609 -0.1328  0.6277 -0.1758
 2962TIP3    H130301   0.525   0.522   1.525  0.3602 -0.7667 -0.2739
 2962TIP3    H230302   0.589   0.627   1.614 -0.9553  0.8526 -1.2136
 2963TIP3   OH230303   5.357   4.099  16.083  0.4453  0.3411  0.0257
 2963TIP3    H130304   5.307   4.137  16.011  0.6371 -0.1922 -0.3979
 2963TIP3    H230305   5.390   4.016  16.048 -0.0804 -0.2839  0.9763
 2964TIP3   OH230306   5.801   6.008   3.561 -0.0803 -0.1308  0.4347
 2964TIP3    H130307   5.766   5.986   3.648  0.3237 -1.1147  0.3441
 2964TIP3    H230308   5.843   5.928   3.530  0.9338  0.5970 -0.1135
 2965TIP3   OH230309   1.526   2.531  12.551 -1.0700  0.1709 -0.0546
 2965TIP3    H130310   1.606   2.570  12.517 -1.1449 -1.6238 -2.4024
 2965TIP3    H230311   1.459   2.598  12.539 -0.5194  0.5783 -0.8562
 2966TIP3   OH230312   4.385   1.928  15.802  0.2356 -0.3242  0.1136
 2966TIP3    H130313   4.458   1.989  15.807  0.8814 -0.9995 -0.8222
 2966TIP3    H230314   4.335   1.955  15.725  0.5698 -1.0192 -0.3530
 2967TIP3   OH230315   3.506   0.753  15.553 -0.2335  0.7280 -0.0852
 2967TIP3    H130316   3.516   0.848  15.557 -0.1705  0.6979  0.4322
 2967TIP3    H230317   3.591   0.722  15.523 -0.3196  0.8499 -0.4586
 2968TIP3   OH230318   2.599   1.421  16.525  0.1335  0.1356  0.0308
 2968TIP3    H130319   2.598   1.341  16.577  0.5709 -0.7363 -1.2597
 2968TIP3    H230320   2.677   1.468  16.554  1.3532 -1.1776 -1.0133
 2969TIP3   OH230321   0.031   1.587   2.452  0.1149 -0.4354 -0.4133
 2969TIP3    H130322  -0.025   1.559   2.379 -0.7367  1.5231 -0.5172
 2969TIP3    H230323   0.119   1.561   2.424 -0.3677 -0.9163 -1.5396
 2970TIP3   OH230324   4.779   0.377  12.146 -0.2326  0.1001  0.2684
 2970TIP3    H130325   4.834   0.432  12.090 -0.0361 -0.5782 -0.2070
 2970TIP3    H230326   4.702   0.431  12.164 -1.9512 -0.9126 -3.5245
 2971TIP3   OH230327   2.074   0.310  16.624  0.1037  0.4069  0.4562
 2971TIP3    H130328   2.112   0.396  16.607  1.7843 -0.3779  0.1396
 2971TIP3    H230329   2.042   0.281  16.539  2.5508 -0.6853 -0.1340
 2972TIP3   OH230330   6.352   1.524  14.546  0.2366 -0.0980 -0.1242
 2972TIP3    H130331   6.390   1.461  14.485 -1.0708  0.2612 -1.3355
 2972TIP3    H230332   6.319   1.470  14.618 -0.6036 -0.7927 -1.0072
 2973TIP3   OH230333   4.430   6.395  16.489 -0.3770  0.2729  0.0807
 2973TIP3    H130334   4.376   6.369  16.414  0.1633 -0.8310  0.0592
 2973TIP3    H230335   4.416   6.490  16.496 -0.6160  0.3609 -1.2713
 2974TIP3   OH230336   4.292   5.560   0.262  0.1315 -0.0815 -0.6423
 2974TIP3    H130337   4.252   5.622   0.322  2.5319  1.3884 -0.4759
 2974TIP3    H230338   4.309   5.612   0.183 -1.2852 -1.5114 -1.9027
 2975TIP3   OH230339   3.384   5.454   2.288 -0.2597  0.8809 -0.2912
 2975TIP3    H130340   3.427   5.529   2.329 -1.0453 -0.6419  3.5698
 2975TIP3    H230341   3.296   5.485   2.267  0.0786  1.6104 -0.6651
 2976TIP3   OH230342   6.255   2.128  10.790  0.0123 -0.1163  0.3305
 2976TIP3    H130343   6.274   2.041  10.755 -1.1589 -0.9930  1.8181
 2976TIP3    H230344   6.331   2.149  10.845  0.0265 -0.4410  0.4323
 2977TIP3   OH230345   1.194   1.632   4.982  0.1822  0.6800 -0.0240
 2977TIP3    H130346   1.189   1.658   5.074  0.2359  0.9498 -0.0970
 2977TIP3    H230347   1.115   1.668   4.942 -0.9048 -1.2208  0.3562
 2978TIP3   OH230348   5.669   4.857   1.181  0.1794 -0.2161 -0.4773
 2978TIP3    H130349   5.580   4.830   1.158 -0.1623  1.6614 -1.5518
 2978TIP3    H230350   5.658   4.944   1.221  1.2853 -1.1920  2.0500
 2979TIP3   OH230351   5.435   4.930   5.482  0.1064  0.4300  0.3374
 2979TIP3    H130352   5.517   4.892   5.513 -0.4452 -2.0896 -1.1435
 2979TIP3    H230353   5.446   4.935   5.387 -1.2938  0.4430  0.1712
 2980TIP3   OH230354   4.389   0.714  15.384  0.3703 -0.5704  0.1671
 2980TIP3    H130355   4.397   0.807  15.361  2.9944 -1.2170 -1.7875
 2980TIP3    H230356   4.357   0.715  15.475  2.6160  2.2993  1.0198
 2981TIP3   OH230357   2.008   5.351   2.440  0.1561  0.0551  0.6481
 2981TIP3    H130358   1.982   5.362   2.532  0.1793 -0.3074  0.7001
 2981TIP3    H230359   2.104   5.351   2.442  0.1587 -0.5318  0.6995
 2982TIP3   OH230360   6.403   1.435  12.297 -0.7298  0.6564  0.1684
 2982TIP3    H130361   6.320   1.460  12.337 -2.5199 -0.0421 -2.8812
 2982TIP3    H230362   6.444   1.518  12.273 -0.1220  1.0351  2.4514
 2983TIP3   OH230363   6.646   4.708   1.597 -0.8657 -0.6026 -0.0720
 2983TIP3    H130364   6.675   4.781   1.543 -0.7728 -0.4853  0.1366
 2983TIP3    H230365   6.658   4.738   1.687 -1.3603 -0.6627  0.0164
 2984TIP3   OH230366   1.002   6.220  16.906  0.1519 -0.0606  0.3204
 2984TIP3    H130367   1.026   6.136  16.944 -0.2320 -0.0438  0.6065
 2984TIP3    H230368   0.994   6.279  16.981 -1.2607 -0.1875  0.2963
 2985TIP3   OH230369   4.412   5.325  14.746  0.0098  0.0535 -0.1796
 2985TIP3    H130370   4.504   5.302  14.739  0.5200  1.5776  1.1337
 2985TIP3    H230371   4.405   5.372  14.829 -2.0399 -0.4521 -0.0176
 2986TIP3   OH230372   1.594   2.290   2.652  0.1410 -0.5739  0.4220
 2986TIP3    H130373   1.650   2.367   2.651 -1.3004  0.4982 -1.9377
 2986TIP3    H230374   1.575   2.275   2.745  0.3027  1.9990  0.8878
 2987TIP3   OH230375   5.811   3.474   4.041  0.2993 -0.0583  0.3026
 2987TIP3    H130376   5.901   3.486   4.072 -0.1288  0.6253  1.2789
 2987TIP3    H230377   5.775   3.562   4.037 -1.4753 -0.5775  3.3993
 2988TIP3   OH230378   5.622   2.591  14.025 -0.4540 -0.4000 -0.2668
 2988TIP3    H130379   5.645   2.613  14.115  0.5128  2.4158 -1.1502
 2988TIP3    H230380   5.706   2.587  13.979 -1.1588  2.3742 -1.9085
 2989TIP3   OH230381   1.378   3.439  16.638 -0.0382 -0.6245 -0.0822
 2989TIP3    H130382   1.412   3.449  16.728 -1.3903  1.3178  0.2241
 2989TIP3    H230383   1.320   3.363  16.643 -0.0631 -0.5610  0.6694
 2990TIP3   OH230384   4.987   2.345   2.993 -0.1707  0.5345 -0.3761
 2990TIP3    H130385   4.911   2.394   2.963 -0.3170 -0.7917 -2.3093
 2990TIP3    H230386   5.035   2.405   3.049 -1.2215  2.3006 -1.3462
 2991TIP3   OH230387   0.301   2.984   0.032  0.6500  0.2106  0.9103
 2991TIP3    H130388   0.245   2.911   0.005  0.7099 -0.2243  1.9434
 2991TIP3    H230389   0.274   3.057  -0.024  0.6207 -0.6116 -0.1723
 2992TIP3   OH230390   0.037   0.749   1.115 -0.4563 -0.1455  0.8755
 2992TIP3    H130391  -0.008   0.763   1.199 -0.2340 -0.5585  1.0698
 2992TIP3    H230392   0.127   0.728   1.140  0.2476  2.2531  0.4184
 2993TIP3   OH230393   6.312   4.864  13.905  0.5502 -0.2755 -0.3683
 2993TIP3    H130394   6.331   4.794  13.967  0.0718 -1.0284 -1.0485
 2993TIP3    H230395   6.302   4.943  13.958  3.5330 -0.2189  0.2022
 2994TIP3   OH230396   6.409   6.650  15.566 -0.0387  0.6794 -0.2642
 2994TIP3    H130397   6.396   6.627  15.474 -0.4945  1.4524 -0.3982
 2994TIP3    H230398   6.324   6.682  15.595  0.1324  0.5475  0.4023
 2995TIP3   OH230399   1.678   0.558  14.109  0.0992  0.3194  0.2566
 2995TIP3    H130400   1.724   0.574  14.026  0.9998  0.2730  0.7413
 2995TIP3    H230401   1.746   0.529  14.169 -0.3893  1.2095  1.2622
 2996TIP3   OH230402   3.793   2.968  12.416  0.8274 -0.4506 -0.0427
 2996TIP3    H130403   3.829   3.048  12.452 -0.0908 -0.2364  0.3979
 2996TIP3    H230404   3.751   2.924  12.490  0.0007 -0.5973 -0.5873
 2997TIP3   OH230405   3.434   4.764   1.759 -0.2998  0.0442  0.7427
 2997TIP3    H130406   3.443   4.822   1.683 -0.6679 -0.3509  0.3942
 2997TIP3    H230407   3.439   4.675   1.722  1.9582 -0.1631  1.4627
 2998TIP3   OH230408   6.663   5.647   3.831  0.2877 -0.0584  0.0903
 2998TIP3    H130409   6.723   5.711   3.868 -0.9291  1.4604 -0.5313
 2998TIP3    H230410   6.693   5.637   3.740 -0.0148  0.2242 -0.0397
 2999TIP3   OH230411   0.669   5.846   3.489 -0.6047  1.1009  0.5674
 2999TIP3    H130412   0.717   5.842   3.572  1.2101  0.1642 -0.4873
 2999TIP3    H230413   0.680   5.936   3.459  1.5240  0.6228 -0.2152
 3000TIP3   OH230414   1.553   4.735   0.706 -0.0200  0.0180 -0.2367
 3000TIP3    H130415   1.598   4.656   0.674 -0.1580 -0.4562  0.7481
 3000TIP3    H230416   1.533   4.716   0.797 -0.6151  0.9533 -0.1722
 3001TIP3   OH230417   0.775   3.078  11.322 -0.1016 -0.5723 -0.6563
 3001TIP3    H130418   0.820   3.060  11.239 -0.5648 -0.7182 -0.8756
 3001TIP3    H230419   0.683   3.057  11.304 -0.4639  0.9017 -0.5717
 3002TIP3   OH230420   4.776   5.618  15.780  0.5438 -0.5432  0.5429
 3002TIP3    H130421   4.745   5.706  15.761  1.0406 -0.6053 -0.6080
 3002TIP3    H230422   4.812   5.623  15.869 -0.3500  0.1531  0.8698
 3003TIP3   OH230423   2.645   2.776   5.630  0.2316  0.6106  0.0480
 3003TIP3    H130424   2.571   2.837   5.632  0.2334  0.5930  0.7680
 3003TIP3    H230425   2.697   2.799   5.707  2.1353  2.0430 -1.6239
 3004TIP3   OH230426   2.564   5.451   4.314 -0.1661 -0.0742  0.6134
 3004TIP3    H130427   2.581   5.365   4.353 -1.2404 -0.7769 -0.4597
 3004TIP3    H230428   2.643   5.469   4.263 -0.7482 -1.3365 -0.7690
 3005TIP3   OH230429   4.870   5.777   0.421  0.1982 -0.4208 -0.1195
 3005TIP3    H130430   4.892   5.827   0.342 -2.8104  0.6937 -0.3195
 3005TIP3    H230431   4.779   5.749   0.408  0.6335 -2.8414  1.6239
 3006TIP3   OH230432   6.524   6.247  11.760  0.0229 -0.1920 -0.1453
 3006TIP3    H130433   6.513   6.157  11.729  0.8428  0.0927 -1.3007
 3006TIP3    H230434   6.511   6.301  11.682 -0.0230  0.6651  0.4495
 3007TIP3   OH230435   0.729   3.316  12.169  0.2470 -0.6108 -0.6633
 3007TIP3    H130436   0.727   3.222  12.151  1.0625 -0.9220  0.8135
 3007TIP3    H230437   0.792   3.351  12.106  1.1101 -1.2892 -0.1875
 3008TIP3   OH230438   2.447   3.583  13.227  0.6580 -0.5054 -0.0027
 3008TIP3    H130439   2.413   3.561  13.314 -1.7845  1.1884 -0.4571
 3008TIP3    H230440   2.526   3.634  13.243  0.2736 -0.2899  1.2168
 3009TIP3   OH230441   3.571   0.329  16.205 -0.0236 -0.0004  0.1036
 3009TIP3    H130442   3.488   0.315  16.160  0.2116 -0.2221 -0.2648
 3009TIP3    H230443   3.629   0.260  16.171 -0.2610 -1.0779  1.8221
 3010TIP3   OH230444   3.408   4.567   3.940  0.6531  0.0408 -0.0468
 3010TIP3    H130445   3.420   4.487   3.890  2.8387  0.8674 -0.8860
 3010TIP3    H230446   3.495   4.588   3.974 -0.0611  1.5788  0.9108
 3011TIP3   OH230447   2.453   3.137   4.279  0.1298 -0.3334  0.2476
 3011TIP3    H130448   2.500   3.126   4.362 -0.5304  0.1911  0.6908
 3011TIP3    H230449   2.516   3.183   4.222  0.8825 -1.4322  0.1797
 3012TIP3   OH230450   4.927   5.335  11.573  0.5291  0.1304 -0.2299
 3012TIP3    H130451   4.994   5.276  11.608  0.1346 -0.0847  0.1616
 3012TIP3    H230452   4.962   5.362  11.487  1.3389  0.3907  0.1698
 3013TIP3   OH230453   2.171   1.061   2.956  0.2925  1.0543  0.2441
 3013TIP3    H130454   2.256   1.038   2.994 -1.0094 -1.3077  1.7883
 3013TIP3    H230455   2.174   1.022   2.868  0.6764  0.6824  0.4177
 3014TIP3   OH230456   4.566   4.924   4.651  0.1762  0.4347  0.4391
 3014TIP3    H130457   4.497   4.900   4.588  1.6092 -0.8705 -0.6527
 3014TIP3    H230458   4.535   4.888   4.735 -0.9641  0.7616  0.1649
 3015TIP3   OH230459   4.089   1.102   5.699  0.6434 -0.0957  0.4505
 3015TIP3    H130460   4.076   1.087   5.605  0.9445 -2.6373  0.7773
 3015TIP3    H230461   4.001   1.093   5.737  0.4795  1.1831  0.4103
 3016TIP3   OH230462   2.739   0.570  16.242  0.1634  0.0612 -0.2841
 3016TIP3    H130463   2.764   0.641  16.301 -0.1746 -0.1708  0.1385
 3016TIP3    H230464   2.673   0.521  16.290  0.7744 -0.8487 -0.3566
 3017TIP3   OH230465   5.847   5.558   3.701 -0.3064  0.4455 -0.1124
 3017TIP3    H130466   5.872   5.469   3.677 -0.4696  0.8002 -1.6642
 3017TIP3    H230467   5.836   5.556   3.796  1.5801 -0.7153  0.0963
 3018TIP3   OH230468   5.030   0.076   6.305  0.6887  0.0304  0.5493
 3018TIP3    H130469   4.942   0.073   6.269  0.9326  1.3003 -0.2154
 3018TIP3    H230470   5.058  -0.015   6.310 -0.3161 -0.3165 -0.0896
 3019TIP3   OH230471   2.227   0.066   2.772 -0.0877 -0.4927  0.1479
 3019TIP3    H130472   2.236  -0.027   2.792  0.8188 -0.5453 -0.4767
 3019TIP3    H230473   2.301   0.107   2.816  0.2418 -0.2362 -0.6356
 3020TIP3   OH230474   4.705   4.204   1.215 -0.6764  0.3186  0.0779
 3020TIP3    H130475   4.754   4.182   1.136 -0.7414 -0.4139  0.2435
 3020TIP3    H230476   4.708   4.125   1.269 -1.1182  0.6250  0.5602
 3021TIP3   OH230477   6.271   2.640  15.716 -0.2219  0.0729 -0.5998
 3021TIP3    H130478   6.231   2.649  15.629  1.4489  1.8726 -1.2123
 3021TIP3    H230479   6.362   2.619  15.699  0.0828  0.2621  0.7388
 3022TIP3   OH230480   2.944   4.005  14.696  0.0909  0.0795  0.2119
 3022TIP3    H130481   3.020   4.015  14.753 -1.4550 -2.6601  2.9476
 3022TIP3    H230482   2.881   4.070  14.728 -0.9057 -1.6859  1.9850
 3023TIP3   OH230483   1.104   3.056   5.450 -0.0301 -0.1339 -0.1843
 3023TIP3    H130484   1.027   3.051   5.393 -0.5247  2.5340  0.1873
 3023TIP3    H230485   1.069   3.075   5.537  0.9425 -0.5431  0.3004
 3024TIP3   OH230486   1.273   4.610   1.291 -0.5054  0.3765 -0.1177
 3024TIP3    H130487   1.220   4.568   1.223 -0.4480 -1.2372  0.8348
 3024TIP3    H230488   1.215   4.676   1.329 -1.3916 -0.4797  0.0178
 3025TIP3   OH230489   3.586   5.622  13.793 -1.0824 -0.1906 -0.2375
 3025TIP3    H130490   3.526   5.688  13.827 -2.4998 -1.4669 -0.2330
 3025TIP3    H230491   3.558   5.540  13.832 -0.0160 -0.9858 -1.0856
 3026TIP3   OH230492   2.413   0.509   1.894 -0.3559 -0.1430 -0.0862
 3026TIP3    H130493   2.467   0.532   1.818  0.0153  1.8365  0.7528
 3026TIP3    H230494   2.462   0.543   1.969 -1.3757 -0.9111  0.9458
 3027TIP3   OH230495   4.464   2.769   0.434 -0.1108  0.1546  0.1958
 3027TIP3    H130496   4.515   2.850   0.439 -0.1048  0.0987  1.0904
 3027TIP3    H230497   4.374   2.798   0.415 -0.0020  0.3274 -0.0629
 3028TIP3   OH230498   3.976   3.255  14.320 -0.0247 -0.1180 -0.3820
 3028TIP3    H130499   4.066   3.222  14.325 -0.7281 -2.1000 -0.2313
 3028TIP3    H230500   3.925   3.193  14.372 -1.5029  0.9236 -0.5548
 3029TIP3   OH230501   6.397   5.145   6.744  0.2403  0.2453  0.1234
 3029TIP3    H130502   6.362   5.233   6.758 -2.0707 -0.4606 -1.0398
 3029TIP3    H230503   6.486   5.149   6.780 -0.0107  2.8925  0.5540
 3030TIP3   OH230504   4.422   2.216  13.166  0.1605 -0.3687  0.0016
 3030TIP3    H130505   4.476   2.167  13.228  1.6956 -0.4435 -1.3592
 3030TIP3    H230506   4.470   2.297  13.151  0.1393 -0.6226 -1.5534
 3031TIP3   OH230507   0.168   0.223   4.918 -0.3595  0.1595 -0.0947
 3031TIP3    H130508   0.146   0.192   5.006 -0.1305  1.3823  0.4064
 3031TIP3    H230509   0.260   0.200   4.907 -0.2346  0.5026  0.2105
 3032TIP3   OH230510   0.472   0.786   4.719  0.4530  0.6831  0.3243
 3032TIP3    H130511   0.451   0.860   4.775  0.9567  1.0165  0.0762
 3032TIP3    H230512   0.559   0.806   4.684  1.3489 -0.8349  1.6270
 3033TIP3   OH230513   5.337   2.915   1.906 -0.6228  0.6198  0.1368
 3033TIP3    H130514   5.243   2.927   1.894 -0.3155  1.0392 -2.1422
 3033TIP3    H230515   5.347   2.822   1.927 -1.5801  0.6984  0.9909
 3034TIP3   OH230516   4.949   5.006  11.562 -0.1819  0.2137  0.1590
 3034TIP3    H130517   4.893   4.929  11.558  0.1316 -0.0329  0.5915
 3034TIP3    H230518   5.038   4.973  11.552 -0.1032  0.6042 -0.5018
 3035TIP3   OH230519   4.743   0.245  14.752 -0.2463 -0.3443 -0.0557
 3035TIP3    H130520   4.734   0.328  14.706 -0.8990  0.7616  2.0087
 3035TIP3    H230521   4.668   0.193  14.723 -0.3218  0.1155 -0.6942
 3036TIP3   OH230522   1.053   2.102   4.701  0.4854  0.5710  0.2982
 3036TIP3    H130523   1.057   2.183   4.751  0.8767  0.6998  0.0607
 3036TIP3    H230524   1.133   2.102   4.649  0.5158 -0.0023  0.3483
 3037TIP3   OH230525   6.387   0.527  11.866  0.2043  0.0107  0.0882
 3037TIP3    H130526   6.417   0.489  11.783 -0.7128 -0.5987  0.0259
 3037TIP3    H230527   6.360   0.452  11.918  0.4563  0.4238  0.8156
 3038TIP3   OH230528   5.604   1.129  14.525 -0.4247  0.6419 -0.0444
 3038TIP3    H130529   5.574   1.061  14.464 -0.4197 -0.0678  0.7278
 3038TIP3    H230530   5.647   1.194  14.470  0.9029 -0.7233 -0.6652
 3039TIP3   OH230531   2.559   5.569  12.670 -0.1161 -0.3120  0.1086
 3039TIP3    H130532   2.525   5.491  12.626  2.5526 -0.1999 -2.2663
 3039TIP3    H230533   2.638   5.538  12.714  0.8623  0.9988 -0.7044
 3040TIP3   OH230534   0.505   3.050  11.295 -0.1907  0.0197  0.8198
 3040TIP3    H130535   0.437   3.103  11.338 -2.1486  0.9242 -3.1337
 3040TIP3    H230536   0.460   2.968  11.273  0.9204 -0.6308  0.9658
 3041TIP3   OH230537   1.751   3.496  15.327  0.8928 -0.2363 -0.1821
 3041TIP3    H130538   1.785   3.523  15.242 -0.8571  0.1762 -0.7710
 3041TIP3    H230539   1.745   3.401  15.321  1.4502 -0.2625 -0.2730
 3042TIP3   OH230540   0.831   6.715  11.857 -0.2146 -0.1329  0.3493
 3042TIP3    H130541   0.778   6.770  11.915  0.1146  0.0158  0.5138
 3042TIP3    H230542   0.880   6.659  11.917  1.3859  1.1643  0.3086
 3043TIP3   OH230543   5.342   4.527  11.394 -0.1792  0.2764 -0.3690
 3043TIP3    H130544   5.403   4.453  11.395 -1.3756 -0.7160  0.1931
 3043TIP3    H230545   5.398   4.604  11.397  1.0305 -0.6346  0.8588
 3044TIP3   OH230546   2.980   2.921   3.963  0.7450  0.4098  0.3072
 3044TIP3    H130547   3.018   2.906   3.876  2.8782  1.8525  0.9445
 3044TIP3    H230548   2.979   2.834   4.004 -0.0243 -0.2308 -1.0446
 3045TIP3   OH230549   2.367   4.203  15.766  0.8995 -0.3145  0.0497
 3045TIP3    H130550   2.426   4.165  15.831  0.8699  0.0979  0.3185
 3045TIP3    H230551   2.390   4.160  15.684 -0.3768 -2.2847  0.6819
 3046TIP3   OH230552   2.524   1.291   5.072 -0.0619 -0.3133  0.2162
 3046TIP3    H130553   2.442   1.265   5.029 -0.3615  0.3192  0.4017
 3046TIP3    H230554   2.531   1.385   5.056 -1.1679  0.3279  3.2052
 3047TIP3   OH230555   3.264   1.563  11.427 -0.1982 -0.1144  0.0214
 3047TIP3    H130556   3.324   1.589  11.357  0.5830 -0.4354  0.5689
 3047TIP3    H230557   3.242   1.472  11.407 -0.6354  0.0531 -0.2691
 3048TIP3   OH230558   2.071   1.507   2.228 -0.3254 -0.5235  0.0273
 3048TIP3    H130559   2.026   1.442   2.174  0.1724  0.8542 -2.0912
 3048TIP3    H230560   2.003   1.570   2.250 -0.5915 -1.2254  1.2952
 3049TIP3   OH230561   0.106   5.032   2.114 -0.2284 -0.4974 -0.0161
 3049TIP3    H130562   0.116   5.048   2.020 -1.1152 -1.6868 -0.3323
 3049TIP3    H230563   0.145   5.108   2.156  0.4401 -0.0885 -1.3490
 3050TIP3   OH230564   5.028   1.535   4.307 -0.5359 -0.1316  0.1520
 3050TIP3    H130565   5.037   1.603   4.374  3.2722 -0.4970  0.1378
 3050TIP3    H230566   5.037   1.583   4.224  1.1695 -0.4947  0.1149
 3051TIP3   OH230567   5.374   1.900   4.400 -0.4158 -0.0488 -0.1208
 3051TIP3    H130568   5.452   1.852   4.372  0.0731 -0.1360  1.3481
 3051TIP3    H230569   5.334   1.930   4.319  1.8524  1.1336 -0.8290
 3052TIP3   OH230570   2.410   3.144  10.378  0.0985 -0.3976 -0.2866
 3052TIP3    H130571   2.374   3.144  10.290  1.5805  0.4151 -0.9286
 3052TIP3    H230572   2.396   3.234  10.410 -0.5712 -0.7305  0.3569
 3053TIP3   OH230573   4.101   1.384  11.327  0.2593  0.0938 -0.8819
 3053TIP3    H130574   4.046   1.312  11.358  0.4405 -0.8614 -2.7246
 3053TIP3    H230575   4.087   1.454  11.390 -0.3602 -1.3608  0.6173
 3054TIP3   OH230576   3.885   4.569  16.358 -0.7186  0.4082  0.6785
 3054TIP3    H130577   3.903   4.634  16.426 -1.7686 -0.6224  1.9555
 3054TIP3    H230578   3.942   4.495  16.379 -1.4314 -0.1234  0.7350
 3055TIP3   OH230579   1.851   0.150  13.529  0.2224  0.5989  0.2839
 3055TIP3    H130580   1.787   0.086  13.563 -1.2475  0.9287 -1.7806
 3055TIP3    H230581   1.802   0.200  13.464  2.3642  1.4735 -0.6879
 3056TIP3   OH230582   0.373   6.558  14.697  0.4029 -0.0621  0.0152
 3056TIP3    H130583   0.423   6.619  14.643 -0.3143  0.6658  0.1590
 3056TIP3    H230584   0.437   6.520  14.758  0.8927  0.3680 -0.2334
 3057TIP3   OH230585   4.811   1.628  11.928  0.2876 -0.1713  0.1903
 3057TIP3    H130586   4.808   1.666  11.840  0.4816 -0.4980  0.0384
 3057TIP3    H230587   4.868   1.552  11.919 -1.7331 -1.7066  0.0238
 3058TIP3   OH230588   0.705   2.125   1.299  0.4694  0.5049 -0.0824
 3058TIP3    H130589   0.670   2.214   1.289 -0.3771  0.1004 -0.8568
 3058TIP3    H230590   0.790   2.128   1.254  1.7712  1.6588  2.3444
 3059TIP3   OH230591   1.928   0.638  11.165  0.1612 -0.0744 -0.2752
 3059TIP3    H130592   1.904   0.581  11.238  1.8713 -1.1638 -0.5328
 3059TIP3    H230593   1.879   0.603  11.090 -2.5507  1.7873  0.5402
 3060TIP3   OH230594   3.740   1.727   4.549 -0.0719  0.5139  0.2248
 3060TIP3    H130595   3.734   1.818   4.581  0.3709  0.3623  0.7474
 3060TIP3    H230596   3.701   1.730   4.462  1.4809  1.5667 -0.4693
 3061TIP3   OH230597   0.114   6.535   4.326  0.0438  0.3056 -0.3330
 3061TIP3    H130598   0.078   6.616   4.362  1.1704 -0.5119  2.7822
 3061TIP3    H230599   0.144   6.485   4.402  0.4845 -2.5329 -2.2599
 3062TIP3   OH230600   1.806   1.952  12.126 -0.7398  0.4546  0.5037
 3062TIP3    H130601   1.898   1.934  12.142 -0.9553 -1.2328 -0.0637
 3062TIP3    H230602   1.764   1.865  12.125 -2.2767  1.1739  0.4612
 3063TIP3   OH230603   3.128   0.417   4.982  0.1237 -0.1553 -0.1615
 3063TIP3    H130604   3.100   0.492   4.929 -0.8371  0.4459  1.1534
 3063TIP3    H230605   3.046   0.376   5.011  0.6333 -0.5308  0.7662
 3064TIP3   OH230606   5.691   0.968   2.438  0.0440  0.3531  0.3789
 3064TIP3    H130607   5.691   0.934   2.349 -0.2728 -1.0497  0.8881
 3064TIP3    H230608   5.599   0.982   2.459  0.1374  0.9754  0.3839
 3065TIP3   OH230609   3.298   4.251  13.474  0.3868  0.2750 -0.1333
 3065TIP3    H130610   3.356   4.317  13.513 -0.2950  1.4362 -1.0953
 3065TIP3    H230611   3.272   4.196  13.548  0.9146  1.1081  0.6807
 3066TIP3   OH230612   5.985   1.726   4.069  0.1562 -0.0790  0.2235
 3066TIP3    H130613   6.068   1.745   4.112  2.2893 -0.5190 -3.4983
 3066TIP3    H230614   5.985   1.631   4.058 -1.8543 -0.3371  2.0201
 3067TIP3   OH230615   3.875   6.466  12.021 -0.4715  0.2222  0.0196
 3067TIP3    H130616   3.800   6.407  12.013 -0.3567  0.1633 -0.6413
 3067TIP3    H230617   3.904   6.480  11.931  0.7054 -0.2726  0.3105
 3068TIP3   OH230618   2.656   4.548  14.149  0.0699 -0.3399  0.7683
 3068TIP3    H130619   2.627   4.486  14.216 -0.9713 -1.4518 -0.6890
 3068TIP3    H230620   2.644   4.502  14.066  0.6025  1.2988 -0.2483
 3069TIP3   OH230621   0.850   3.975  14.011  0.2668 -0.0373 -0.9210
 3069TIP3    H130622   0.933   3.952  14.053  0.3935  0.6865 -0.7617
 3069TIP3    H230623   0.875   4.018  13.929  0.0858  1.3136 -0.2844
 3070TIP3   OH230624   2.191   2.992  10.855 -0.0305 -0.2634  0.2566
 3070TIP3    H130625   2.140   2.958  10.929 -1.7680 -0.2162 -0.8872
 3070TIP3    H230626   2.223   2.914  10.810  0.6326 -0.3000  0.7925
 3071TIP3   OH230627   3.515   0.681  16.270 -0.1339 -0.5463 -0.4861
 3071TIP3    H130628   3.476   0.740  16.334 -0.5766 -1.9716  0.5982
 3071TIP3    H230629   3.567   0.738  16.213 -1.3340  0.9889 -0.0771
 3072TIP3   OH230630   1.322   4.089   1.222  0.5156  0.5053 -0.4207
 3072TIP3    H130631   1.411   4.113   1.248 -0.6552  3.3136  1.2363
 3072TIP3    H230632   1.296   4.157   1.160 -1.4005  1.2521  1.1702
 3073TIP3   OH230633   4.395   6.692  12.852  0.0469 -0.4570  0.1920
 3073TIP3    H130634   4.399   6.655  12.764 -0.2777 -0.4210  0.1605
 3073TIP3    H230635   4.304   6.682  12.878  0.0699 -0.1594  0.3913
 3074TIP3   OH230636   4.222   1.730  12.705  0.0348 -0.4288 -0.2838
 3074TIP3    H130637   4.166   1.715  12.629  1.7640 -0.7045 -1.5237
 3074TIP3    H230638   4.309   1.745  12.668  0.9751 -0.9636  1.6625
 3075TIP3   OH230639   3.359   0.765   4.382  0.3301 -0.2036  0.6240
 3075TIP3    H130640   3.328   0.810   4.303 -0.5064 -1.8103  0.0233
 3075TIP3    H230641   3.451   0.748   4.366  0.2685 -0.1185  0.1838
 3076TIP3   OH230642   4.964   4.953   1.125 -0.0830 -0.3285 -0.2632
 3076TIP3    H130643   4.889   4.990   1.171 -0.7632 -0.9339 -0.8703
 3076TIP3    H230644   4.976   4.867   1.163 -1.1329 -1.1406 -1.7202
 3077TIP3   OH230645   3.612   3.493   2.649  0.7049  0.0484 -0.0667
 3077TIP3    H130646   3.649   3.405   2.651 -0.6871 -0.5820 -1.3425
 3077TIP3    H230647   3.550   3.492   2.576 -0.5159  1.6192  0.9145
 3078TIP3   OH230648   0.776   6.502  11.373 -0.5524  0.0683  0.6015
 3078TIP3    H130649   0.779   6.423  11.319 -0.0749  0.1668  0.4817
 3078TIP3    H230650   0.695   6.493  11.424 -0.5646 -0.4384  0.4978
 3079TIP3   OH230651   5.975   6.562   4.326 -0.1665 -0.3569 -0.0833
 3079TIP3    H130652   6.026   6.504   4.382  0.4074  2.1737  2.1296
 3079TIP3    H230653   5.982   6.523   4.239  3.5617 -1.4329  0.5840
 3080TIP3   OH230654   4.500   4.080  16.073 -0.1112 -0.1692 -0.7141
 3080TIP3    H130655   4.448   4.090  16.152 -0.0504 -1.9413 -0.4418
 3080TIP3    H230656   4.453   4.132  16.007 -1.2013 -0.2416 -0.0126
 3081TIP3   OH230657   2.091   0.308   0.294 -0.1989 -0.3564 -0.9381
 3081TIP3    H130658   2.135   0.384   0.332 -0.3382 -1.3659  1.3082
 3081TIP3    H230659   2.126   0.233   0.343 -0.9337 -1.6256 -2.3246
 3082TIP3   OH230660   4.345   5.402  11.570  0.4098  0.1755  0.4624
 3082TIP3    H130661   4.435   5.374  11.590 -0.2836 -1.7701  0.9449
 3082TIP3    H230662   4.299   5.397  11.654 -0.7105 -1.0433 -0.2061
 3083TIP3   OH230663   0.732   2.432  12.868 -0.3961  0.3829  0.1518
 3083TIP3    H130664   0.709   2.348  12.908  0.7381 -0.6183 -1.2585
 3083TIP3    H230665   0.702   2.423  12.777 -1.9873  2.2276  0.4719
 3084TIP3   OH230666   2.332   3.207  16.726 -0.0115  0.7590 -0.4213
 3084TIP3    H130667   2.311   3.170  16.640 -0.2466  1.6026 -0.7297
 3084TIP3    H230668   2.284   3.289  16.729 -2.5403 -0.7188  1.8034
 3085TIP3   OH230669   1.797   5.501   4.890 -0.0703  0.8626  0.1735
 3085TIP3    H130670   1.826   5.418   4.853  1.4069  0.2638  2.5722
 3085TIP3    H230671   1.876   5.539   4.929 -1.4193  1.7540  2.1237
 3086TIP3   OH230672   1.387   4.639   4.696 -0.4334 -0.1901 -0.0960
 3086TIP3    H130673   1.318   4.593   4.742 -0.5318 -0.7246 -0.7538
 3086TIP3    H230674   1.466   4.623   4.748 -0.2934 -1.8801 -0.7829
 3087TIP3   OH230675   4.620   5.047   4.959  0.1508 -0.2330 -0.5823
 3087TIP3    H130676   4.586   5.065   4.871  1.0676  1.2619 -0.6529
 3087TIP3    H230677   4.715   5.056   4.950  0.3078 -0.8852  0.3826
 3088TIP3   OH230678   1.180   4.294  12.276  0.0788 -0.0842 -0.3156
 3088TIP3    H130679   1.161   4.203  12.254 -0.5144  0.5948 -2.7758
 3088TIP3    H230680   1.117   4.316  12.345 -0.2211 -1.3096 -0.1866
 3089TIP3   OH230681   6.157   2.211  13.543  0.3643 -0.0590  0.2874
 3089TIP3    H130682   6.211   2.206  13.622  2.9465 -1.7858 -1.5106
 3089TIP3    H230683   6.211   2.256  13.479 -1.3089  0.4045 -0.8434
 3090TIP3   OH230684   2.964   3.173  12.688 -0.0942  0.4134  0.0271
 3090TIP3    H130685   3.007   3.124  12.618 -1.0469  1.0953 -1.0539
 3090TIP3    H230686   3.009   3.258  12.688  0.4034  0.1614  0.7558
 3091TIP3   OH230687   6.493   2.885  12.549 -0.3163 -0.3478 -0.1773
 3091TIP3    H130688   6.436   2.876  12.626 -0.6322  0.3605 -0.3247
 3091TIP3    H230689   6.441   2.854  12.476 -0.5928  0.4844 -0.3416
 3092TIP3   OH230690   4.176   0.547   0.251  0.4580  0.2181  0.2759
 3092TIP3    H130691   4.177   0.464   0.299 -0.1363 -0.0461 -0.1562
 3092TIP3    H230692   4.266   0.580   0.258  0.7151 -0.4956  0.4000
 3093TIP3   OH230693   1.660   4.941   0.998 -0.1192  0.2033 -0.0561
 3093TIP3    H130694   1.679   4.949   1.092 -0.1835  2.9326 -0.2248
 3093TIP3    H230695   1.568   4.915   0.995 -1.5175  4.6175  0.6893
 3094TIP3   OH230696   2.327   4.430  13.907 -0.0997  0.3359 -0.2483
 3094TIP3    H130697   2.422   4.434  13.919 -0.1604 -0.0061  0.3630
 3094TIP3    H230698   2.301   4.347  13.947 -0.9823  1.6047  1.9063
 3095TIP3   OH230699   1.103   0.925   2.307  0.0344  0.9383  0.1304
 3095TIP3    H130700   1.149   0.976   2.240 -0.4089  0.8925 -0.2090
 3095TIP3    H230701   1.046   0.988   2.350 -2.1288  0.3166 -1.7252
 3096TIP3   OH230702   2.086   4.731  13.603 -0.3081 -0.7864 -0.1791
 3096TIP3    H130703   2.060   4.814  13.644 -2.6093 -0.8365 -1.4777
 3096TIP3    H230704   2.158   4.699  13.658 -1.1129  0.7782  1.8471
 3097TIP3   OH230705   1.929   2.874  16.982 -1.0654 -0.3610  0.1242
 3097TIP3    H130706   1.897   2.796  16.938 -0.4658 -0.4076 -0.2415
 3097TIP3    H230707   1.856   2.936  16.979 -0.9296 -0.2609 -1.2011
 3098TIP3   OH230708   2.184   4.857  14.221 -0.3593 -0.2558  0.2970
 3098TIP3    H130709   2.151   4.796  14.155 -0.4539 -0.4325  0.5067
 3098TIP3    H230710   2.277   4.833  14.229 -0.3755 -0.3128  0.3154
 3099TIP3   OH230711   5.237   3.494   3.423  0.0004  0.1144  0.1581
 3099TIP3    H130712   5.330   3.513   3.418  0.0126 -0.2172 -0.9718
 3099TIP3    H230713   5.230   3.423   3.487  0.7104 -1.0729 -1.0544
 3100TIP3   OH230714   2.071   4.628  15.641 -0.0853 -0.3347  0.1439
 3100TIP3    H130715   2.137   4.597  15.579 -0.9534 -1.4451 -0.2444
 3100TIP3    H230716   1.992   4.640  15.589 -0.3092  0.5655  0.6878
 3101TIP3   OH230717   1.138   4.070  13.580  0.4640  0.0319 -0.0916
 3101TIP3    H130718   1.054   4.104  13.550  0.5183 -0.2710 -0.5895
 3101TIP3    H230719   1.196   4.147  13.577  0.7636 -0.2278 -1.8992
 3102TIP3   OH230720   6.630   1.686  12.695 -0.5102 -0.0824  0.1415
 3102TIP3    H130721   6.676   1.761  12.732  0.3606  0.6578 -2.3678
 3102TIP3    H230722   6.542   1.719  12.677  0.2109  0.7312 -2.0566
 3103TIP3   OH230723   2.536   5.478   3.860  0.1129 -0.0170 -0.3017
 3103TIP3    H130724   2.458   5.484   3.805 -1.4252 -2.7620  1.4067
 3103TIP3    H230725   2.592   5.414   3.815  0.6386  0.7203 -0.6947
 3104TIP3   OH230726   5.909   4.671   2.177  0.4866  0.0172  0.1500
 3104TIP3    H130727   5.945   4.635   2.257  2.8823  1.6489 -0.1534
 3104TIP3    H230728   5.908   4.766   2.191  0.8916  0.3206 -1.7146
 3105TIP3   OH230729   4.674   1.084  14.261  0.0451 -0.0061  0.4765
 3105TIP3    H130730   4.629   1.081  14.176  0.1699 -0.8784  0.4412
 3105TIP3    H230731   4.636   1.161  14.304  0.6734  1.0075 -0.7428
 3106TIP3   OH230732   4.759   0.648  16.472 -0.3523 -0.5285  0.4683
 3106TIP3    H130733   4.730   0.687  16.554  2.0095  2.3105  0.0168
 3106TIP3    H230734   4.812   0.573  16.498 -0.2871 -0.1204  1.5280
 3107TIP3   OH230735   2.807   1.453   1.994 -0.2006  0.1319  0.2537
 3107TIP3    H130736   2.818   1.360   1.978  1.9189  0.6399 -1.5916
 3107TIP3    H230737   2.825   1.465   2.087 -1.1866 -1.3653  0.6459
 3108TIP3   OH230738   1.261   2.849   1.494 -0.1241 -0.4821  0.3379
 3108TIP3    H130739   1.215   2.901   1.429 -0.5994 -1.8696 -0.4468
 3108TIP3    H230740   1.352   2.849   1.464 -0.3029 -0.9344 -0.2164
 3109TIP3   OH230741   4.444   2.403  10.980 -0.0644  0.7694 -0.4197
 3109TIP3    H130742   4.434   2.311  11.003  0.3931  0.6403 -0.7478
 3109TIP3    H230743   4.356   2.431  10.952 -0.2645  0.5113 -0.0483
 3110TIP3   OH230744   1.632   2.022  13.286  0.0884 -0.4009 -0.1570
 3110TIP3    H130745   1.642   2.040  13.380 -1.6382  0.3434 -0.0868
 3110TIP3    H230746   1.647   2.105  13.243 -2.0168 -0.0496 -0.2883
 3111TIP3   OH230747   5.732   2.453  13.077 -0.8273 -0.3956 -0.3624
 3111TIP3    H130748   5.727   2.392  13.150 -0.3165 -1.9290 -1.5714
 3111TIP3    H230749   5.670   2.523  13.099 -1.3742 -1.3162  1.0658
 3112TIP3   OH230750   5.350   1.241  14.664  0.9014  0.0643  0.3835
 3112TIP3    H130751   5.347   1.152  14.629  1.0100  0.7926 -1.4944
 3112TIP3    H230752   5.324   1.297  14.591  2.1518  1.7003  1.1576
 3113TIP3   OH230753   2.101   1.758   5.802 -0.2787  0.0816 -0.4110
 3113TIP3    H130754   2.077   1.849   5.825 -1.2500 -0.1760 -0.3601
 3113TIP3    H230755   2.184   1.766   5.756 -0.3510  1.0051 -0.4014
 3114TIP3   OH230756   0.258   0.229   3.872 -0.9202 -0.3705 -0.5509
 3114TIP3    H130757   0.168   0.259   3.864 -1.2706 -1.3568 -0.3421
 3114TIP3    H230758   0.251   0.136   3.897  0.1411 -0.7182 -1.5035
 3115TIP3   OH230759   5.946   1.045  10.781 -0.0246 -0.6122  0.2293
 3115TIP3    H130760   5.917   0.957  10.760 -1.1850 -0.4753  1.2261
 3115TIP3    H230761   5.888   1.074  10.852 -0.0739  1.1857 -0.5137
 3116TIP3   OH230762   6.189   5.521   4.171 -0.6525  0.1850 -0.2669
 3116TIP3    H130763   6.252   5.451   4.152 -0.0188  0.2951  1.3606
 3116TIP3    H230764   6.107   5.475   4.188 -1.1881  0.0764 -3.0170
 3117TIP3   OH230765   4.409   2.884   5.347 -0.4400 -0.0150 -0.7039
 3117TIP3    H130766   4.460   2.862   5.425 -1.1369  3.7286  0.9236
 3117TIP3    H230767   4.324   2.843   5.362 -0.3824  0.2045  0.2639
 3118TIP3   OH230768   1.045   1.782   2.483  0.6999 -0.0023  0.2373
 3118TIP3    H130769   1.108   1.838   2.438 -1.0922  0.5467 -1.6271
 3118TIP3    H230770   0.985   1.843   2.526  0.1908 -0.5205  0.2706
 3119TIP3   OH230771   4.436   2.461  12.781  0.1908  0.0314  0.3292
 3119TIP3    H130772   4.424   2.524  12.710  0.3978  0.6494  0.8403
 3119TIP3    H230773   4.400   2.379  12.747  0.4735  0.2767 -0.5587
 3120TIP3   OH230774   4.135   3.721  16.155  0.0319 -0.3609  0.0524
 3120TIP3    H130775   4.113   3.636  16.117  1.1243 -0.7225  0.2321
 3120TIP3    H230776   4.198   3.759  16.093 -0.1725  0.1682  0.1617
 3121TIP3   OH230777   1.160   5.474  14.370  0.1904  0.2308 -0.1636
 3121TIP3    H130778   1.083   5.454  14.316  0.3203  1.6067 -0.8885
 3121TIP3    H230779   1.126   5.526  14.442  0.5754  1.7881 -1.0776
 3122TIP3   OH230780   1.522   0.920   5.110 -0.7089 -0.1656  0.0033
 3122TIP3    H130781   1.553   1.007   5.134 -1.1109 -0.3324  1.1545
 3122TIP3    H230782   1.595   0.881   5.061 -0.9447  1.2063 -1.4575
 3123TIP3   OH230783   1.595   4.923  13.575 -0.0180 -0.2585  0.4738
 3123TIP3    H130784   1.540   4.924  13.497 -0.0540 -0.1186  0.4992
 3123TIP3    H230785   1.683   4.941  13.542 -0.2648  1.4040  0.6344
 3124TIP3   OH230786   3.971   6.085  12.691  0.2944 -0.4317 -0.3912
 3124TIP3    H130787   3.941   6.134  12.768 -0.7269 -1.4283 -0.1378
 3124TIP3    H230788   4.043   6.031  12.723  3.8869  3.5342 -1.4585
 3125TIP3   OH230789   4.556   2.378  11.324  0.4368  0.2913  0.1243
 3125TIP3    H130790   4.561   2.411  11.234 -0.4814  0.1461  0.0098
 3125TIP3    H230791   4.584   2.287  11.318  0.3545  0.2756 -0.0225
 3126TIP3   OH230792   4.120   1.147   0.877 -0.3574  0.5415 -0.1763
 3126TIP3    H130793   4.123   1.187   0.964  0.8910  1.0491 -0.4447
 3126TIP3    H230794   4.134   1.054   0.894  0.1191  0.6681  0.1494
 3127TIP3   OH230795   2.351   1.506  12.749  0.4945  0.1160 -0.5109
 3127TIP3    H130796   2.275   1.450  12.766  0.8138 -0.6142 -1.4051
 3127TIP3    H230797   2.315   1.583  12.705  0.0449  0.6371  0.7603
 3128TIP3   OH230798   1.044   2.364   1.008 -0.2214  0.1077  0.0880
 3128TIP3    H130799   1.128   2.341   0.967  0.1160  0.5975  0.5021
 3128TIP3    H230800   0.979   2.316   0.958  0.2118  0.5429 -0.9017
 3129TIP3   OH230801   0.956   3.699  13.109  0.0135  0.2780  0.0978
 3129TIP3    H130802   0.908   3.647  13.044  1.0836 -0.1609 -0.3519
 3129TIP3    H230803   1.032   3.732  13.061  0.0411  1.1584  0.7469
 3130TIP3   OH230804   6.241   4.658  16.399 -0.0960 -0.0260  0.3601
 3130TIP3    H130805   6.187   4.733  16.424  1.8352  1.7736 -0.6433
 3130TIP3    H230806   6.271   4.621  16.483  0.5843  1.5733  0.8323
 3131TIP3   OH230807   3.550   3.318   3.667 -0.1190  0.3081  0.1594
 3131TIP3    H130808   3.461   3.317   3.700 -0.6805  2.8479 -1.1515
 3131TIP3    H230809   3.592   3.392   3.711 -0.2093  2.3187 -2.9288
 3132TIP3   OH230810   2.940   0.561   5.226  0.2690  0.5680  0.3651
 3132TIP3    H130811   2.955   0.651   5.199  0.3996 -0.0521 -1.7568
 3132TIP3    H230812   3.027   0.520   5.222 -0.1271 -0.1898 -0.8698
 3133TIP3   OH230813   6.416   5.125   3.059 -0.4925  0.0041  0.2265
 3133TIP3    H130814   6.482   5.057   3.070 -1.4880 -0.9156  0.6678
 3133TIP3    H230815   6.433   5.162   2.972 -0.3729 -1.2856 -0.3054
 3134TIP3   OH230816   3.550   2.876  16.344  0.4762 -0.2686 -0.8352
 3134TIP3    H130817   3.547   2.844  16.254  1.2927 -2.6304 -0.0487
 3134TIP3    H230818   3.574   2.800  16.396  1.2077  1.3499  1.2585
 3135TIP3   OH230819   2.882   5.106  15.529  0.3337  0.2142  0.0382
 3135TIP3    H130820   2.824   5.031  15.546 -1.2430  1.3723 -0.1602
 3135TIP3    H230821   2.931   5.080  15.450  0.6125 -1.0715  0.6168
 3136TIP3   OH230822   0.635   3.554  13.189 -0.5754 -0.0716 -0.2743
 3136TIP3    H130823   0.648   3.472  13.237 -0.2455  0.3057  0.2866
 3136TIP3    H230824   0.721   3.596  13.188 -0.8441  0.4860 -0.1606
 3137TIP3   OH230825   4.627   2.438   3.784 -0.1016  0.3839 -0.0770
 3137TIP3    H130826   4.558   2.392   3.737  1.9879 -3.2708  0.2867
 3137TIP3    H230827   4.621   2.529   3.752 -2.3879 -0.7505 -3.1070
 3138TIP3   OH230828   0.565   5.913   1.425 -0.1582  0.1336  0.4650
 3138TIP3    H130829   0.608   5.892   1.508 -0.9433 -3.7387  0.0127
 3138TIP3    H230830   0.632   5.896   1.359 -0.5289  0.0119  0.1198
 3139TIP3   OH230831   6.151   2.051   4.728 -0.3264  0.1585 -0.6872
 3139TIP3    H130832   6.245   2.038   4.726 -0.2905  0.5134 -1.6847
 3139TIP3    H230833   6.138   2.136   4.686 -1.1101 -0.0163 -0.8067
 3140TIP3   OH230834   1.611   6.456   0.967 -0.3805  0.1692  0.1862
 3140TIP3    H130835   1.553   6.530   0.986 -2.1721 -0.4807 -2.3598
 3140TIP3    H230836   1.581   6.386   1.025 -0.1831  0.7636  1.0016
 3141TIP3   OH230837   1.419   4.208  14.550  0.1707 -0.4130  0.0396
 3141TIP3    H130838   1.443   4.122  14.518  1.0673 -0.5788  1.1029
 3141TIP3    H230839   1.355   4.191  14.619 -1.4666 -0.0855 -1.3903
 3142TIP3   OH230840   4.589   6.662  13.516  0.3721  0.0430  0.2237
 3142TIP3    H130841   4.679   6.649  13.545  0.6301 -2.3246 -1.4917
 3142TIP3    H230842   4.562   6.745  13.556  3.4543  1.0206  0.3533
 3143TIP3   OH230843   3.357   0.494   5.605 -0.2076 -0.1767 -0.4281
 3143TIP3    H130844   3.294   0.559   5.575 -2.4877 -0.9997  2.3785
 3143TIP3    H230845   3.344   0.419   5.547 -2.1683 -0.5016  0.4108
 3144TIP3   OH230846   0.339   0.530  12.405 -0.3231 -0.1207  0.0074
 3144TIP3    H130847   0.418   0.583  12.392  1.3193 -2.1109  1.4938
 3144TIP3    H230848   0.362   0.444  12.369 -1.2007 -1.1833  1.8804
 3145TIP3   OH230849   4.256   3.873  13.535 -0.1794 -0.0914  0.2280
 3145TIP3    H130850   4.348   3.854  13.554 -0.4750 -0.9307  0.8508
 3145TIP3    H230851   4.217   3.788  13.515 -0.7309  0.3115 -0.4385
 3146TIP3   OH230852   3.585   6.698   0.551  0.0186 -0.1904 -0.1741
 3146TIP3    H130853   3.582   6.677   0.457 -0.6680  1.7405 -0.6103
 3146TIP3    H230854   3.528   6.632   0.591  0.1565 -0.9133 -1.1248
 3147TIP3   OH230855   5.312   2.931  14.130  0.2987  0.1984  0.0804
 3147TIP3    H130856   5.239   2.975  14.172 -1.3743 -0.9619 -1.5497
 3147TIP3    H230857   5.359   3.000  14.083 -0.0124  0.8609  0.7459
 3148TIP3   OH230858   5.864   0.763  10.983 -0.1826  0.3509  0.1798
 3148TIP3    H130859   5.848   0.756  10.889 -0.8155 -0.5290  0.3506
 3148TIP3    H230860   5.834   0.680  11.019  0.3108  0.5797  1.1290
 3149TIP3   OH230861   6.372   0.700  12.963  0.3732  0.2891 -0.3280
 3149TIP3    H130862   6.423   0.739  13.034  1.1793  1.4394 -1.5201
 3149TIP3    H230863   6.282   0.698  12.996  0.7982  0.4196  0.8764
 3150TIP3   OH230864   5.537   6.514   2.158  0.7814 -0.1086 -0.5271
 3150TIP3    H130865   5.446   6.487   2.148  0.3818  0.5858  1.0458
 3150TIP3    H230866   5.531   6.605   2.188  1.9374 -0.5817  1.2229
 3151TIP3   OH230867   1.037   4.150   5.865 -0.1381 -0.2489  0.4786
 3151TIP3    H130868   1.111   4.131   5.923  1.3569  2.0805 -0.5619
 3151TIP3    H230869   1.019   4.243   5.880 -3.3083 -0.8998  1.1591
 3152TIP3   OH230870   3.700   0.424   1.031  0.1551 -0.3176 -0.1351
 3152TIP3    H130871   3.701   0.418   1.126  2.1834 -1.0840 -0.1836
 3152TIP3    H230872   3.667   0.512   1.013 -0.5799 -0.2912  1.2507
 3153TIP3   OH230873   6.161   0.482   4.275 -0.3355  0.1653  0.1050
 3153TIP3    H130874   6.204   0.429   4.342 -0.5076  1.4322  1.2483
 3153TIP3    H230875   6.073   0.496   4.309 -0.2675  1.2327 -0.1475
 3154TIP3   OH230876   4.569   2.664   1.823 -0.0040 -0.3364 -0.1836
 3154TIP3    H130877   4.527   2.745   1.794 -1.1444 -1.1384 -0.7678
 3154TIP3    H230878   4.605   2.685   1.909 -1.4948  0.3900  0.2731
 3155TIP3   OH230879   5.035   5.318  11.270 -0.0935  0.0330 -0.2672
 3155TIP3    H130880   4.992   5.233  11.278 -0.5955  0.3187  0.0719
 3155TIP3    H230881   4.963   5.380  11.261  0.2687  0.4511 -0.2794
 3156TIP3   OH230882   3.669   0.140  14.103  0.1245  0.7930  1.0306
 3156TIP3    H130883   3.714   0.215  14.065  0.4857  0.1905  0.2341
 3156TIP3    H230884   3.727   0.110  14.173  0.8799  0.1514  0.1506
 3157TIP3   OH230885   0.530   5.890  11.855  0.4355 -0.0459  0.1581
 3157TIP3    H130886   0.575   5.840  11.787 -0.3751 -0.4121 -0.1148
 3157TIP3    H230887   0.486   5.961  11.807 -1.0297 -0.9407  0.1602
 3158TIP3   OH230888   6.655   1.614   0.394  0.3132 -0.4132  0.0917
 3158TIP3    H130889   6.725   1.605   0.330  0.5656 -0.3103  0.3528
 3158TIP3    H230890   6.676   1.551   0.463  1.1271  0.8738  1.0531
 3159TIP3   OH230891   4.881   1.759  14.266  0.7854  0.3005 -0.2969
 3159TIP3    H130892   4.950   1.803  14.216  0.5544  0.5489 -0.3947
 3159TIP3    H230893   4.802   1.771  14.214  0.4440  0.9805  0.3653
 3160TIP3   OH230894   6.234   3.158   5.456  0.2671 -0.1450 -0.0797
 3160TIP3    H130895   6.196   3.087   5.507  1.3461 -0.9053 -0.3222
 3160TIP3    H230896   6.308   3.189   5.509 -0.5199  1.1617  0.2797
 3161TIP3   OH230897   1.421   4.977   2.119  0.1032  0.2647  0.2459
 3161TIP3    H130898   1.416   4.911   2.188 -1.2949 -1.0006 -1.0214
 3161TIP3    H230899   1.346   5.034   2.136 -0.3270 -0.1354 -0.3180
 3162TIP3   OH230900   5.999   1.313   2.326  0.3063 -0.1670  0.0069
 3162TIP3    H130901   5.963   1.391   2.369 -2.2863 -0.2285 -1.9674
 3162TIP3    H230902   5.977   1.241   2.385  0.2199  0.2241  0.4616
 3163TIP3   OH230903   0.606   2.304  16.250 -0.0437 -0.8553  0.5845
 3163TIP3    H130904   0.626   2.244  16.178 -1.9241 -0.4466 -0.3185
 3163TIP3    H230905   0.511   2.304  16.255 -0.0167  0.8552  1.5985
 3164TIP3   OH230906   2.221   6.244  14.743 -0.3541 -0.0217 -0.1613
 3164TIP3    H130907   2.196   6.322  14.793  2.3442  1.3029 -0.7987
 3164TIP3    H230908   2.163   6.245  14.667 -0.4576  1.2725 -0.0774
 3165TIP3   OH230909   0.555   2.270  10.897  0.5112 -0.4771 -0.4395
 3165TIP3    H130910   0.589   2.335  10.836  1.3770 -0.8052 -0.3229
 3165TIP3    H230911   0.622   2.201  10.898  1.4192  0.3987  2.3227
 3166TIP3   OH230912   2.019   4.498   3.761 -0.3639 -0.5553  0.2926
 3166TIP3    H130913   2.021   4.423   3.702  0.6369 -1.6803  1.7257
 3166TIP3    H230914   1.953   4.556   3.723 -1.4372 -2.3187 -0.6282
 3167TIP3   OH230915   3.249   4.311  14.721 -0.5205  0.0094 -0.1640
 3167TIP3    H130916   3.214   4.400  14.717 -1.1621 -0.3064 -1.6863
 3167TIP3    H230917   3.245   4.288  14.814 -1.3983  1.1452  0.0878
 3168TIP3   OH230918   6.232   4.463   5.724 -0.0038 -0.2068  0.2250
 3168TIP3    H130919   6.172   4.397   5.759 -2.3831  2.4316  1.3676
 3168TIP3    H230920   6.177   4.541   5.714  3.3290  2.3564  1.4326
 3169TIP3   OH230921   0.468   5.873  16.988  0.5385  0.2837  0.3025
 3169TIP3    H130922   0.555   5.901  16.960 -0.0347  2.1854  0.3665
 3169TIP3    H230923   0.410   5.896  16.915  0.1014 -1.1277  0.1867
 3170TIP3   OH230924   5.893   5.675   1.640 -0.4894 -0.0672 -0.2824
 3170TIP3    H130925   5.983   5.643   1.625  0.1708  0.4419  2.3680
 3170TIP3    H230926   5.845   5.598   1.670  0.2076  0.5594  2.6001
 3171TIP3   OH230927   0.701   3.845   3.338 -0.0936  0.6202  0.5576
 3171TIP3    H130928   0.703   3.935   3.306  0.2713  0.4283  0.0492
 3171TIP3    H230929   0.672   3.793   3.263  2.5321 -0.0607 -0.0265
 3172TIP3   OH230930   2.377   6.524  11.567 -0.2260  0.3264  0.3053
 3172TIP3    H130931   2.418   6.558  11.647 -0.0253 -0.5737  0.5890
 3172TIP3    H230932   2.353   6.434  11.589  0.4415 -0.1490 -0.8773
 3173TIP3   OH230933   4.874   1.593   3.558  0.3993 -0.9517  0.1759
 3173TIP3    H130934   4.872   1.609   3.464  0.8091  0.7462  0.4388
 3173TIP3    H230935   4.812   1.656   3.595  1.3887 -0.5368  1.1732
 3174TIP3   OH230936   4.675   2.984  11.534 -0.2182 -0.5045  0.4848
 3174TIP3    H130937   4.641   3.069  11.506 -0.0841 -1.6671 -3.5077
 3174TIP3    H230938   4.768   2.999  11.549 -0.2924  0.1929  0.2689
 3175TIP3   OH230939   6.512   1.102   4.950  0.1098  0.1146 -0.0693
 3175TIP3    H130940   6.516   1.084   4.857 -0.5752  2.2553 -0.5419
 3175TIP3    H230941   6.547   1.191   4.959  0.3402 -0.1281  1.7324
 3176TIP3   OH230942   3.069   1.495   0.952  0.3267 -0.3069  0.1448
 3176TIP3    H130943   3.012   1.421   0.970  1.0351 -0.3698  2.3434
 3176TIP3    H230944   3.010   1.570   0.949 -0.1682 -0.7064 -0.1630
 3177TIP3   OH230945   1.377   3.900   1.648  0.7414  0.1874  0.3780
 3177TIP3    H130946   1.405   3.864   1.564  0.6813 -0.2016  0.5258
 3177TIP3    H230947   1.313   3.967   1.624 -2.9416 -3.2064  0.2941
 3178TIP3   OH230948   0.086   2.077  17.017  0.2828 -0.3712 -0.4950
 3178TIP3    H130949   0.159   2.105  17.073  0.3513 -0.1056 -0.7198
 3178TIP3    H230950   0.008   2.097  17.069  0.2955  0.9603 -0.9717
 3179TIP3   OH230951   1.366   5.574  10.941 -0.0016  0.2415  0.4844
 3179TIP3    H130952   1.419   5.648  10.912 -0.0726 -0.6312 -2.0657
 3179TIP3    H230953   1.278   5.594  10.910 -0.0337 -0.8459 -0.1714
 3180TIP3   OH230954   3.567   3.113   1.487  0.0501  0.4926  0.1075
 3180TIP3    H130955   3.490   3.150   1.444 -0.0559  0.3900  0.2069
 3180TIP3    H230956   3.617   3.189   1.517  0.0601  0.5617 -0.0861
 3181TIP3   OH230957   4.174   4.574   0.190 -0.0739  0.3462 -0.5777
 3181TIP3    H130958   4.240   4.512   0.220  0.0034  0.8876  0.3539
 3181TIP3    H230959   4.123   4.524   0.125 -0.9858 -1.1978  1.2614
 3182TIP3   OH230960   4.685   6.039   1.681 -0.6737 -0.5016  0.2183
 3182TIP3    H130961   4.625   6.054   1.755  0.7395 -0.0260  1.3007
 3182TIP3    H230962   4.764   6.003   1.722 -0.9152 -2.9708 -1.4151
 3183TIP3   OH230963   6.708   2.282  14.741 -0.7134 -0.2834 -0.9796
 3183TIP3    H130964   6.634   2.291  14.801  0.1303 -0.2655  0.0786
 3183TIP3    H230965   6.672   2.238  14.664 -1.0279 -3.8314  1.0867
 3184TIP3   OH230966   4.914   4.171  15.948 -0.0327  0.5329  0.3896
 3184TIP3    H130967   4.944   4.174  16.039 -1.6672  2.3300  0.9024
 3184TIP3    H230968   4.835   4.116  15.950  0.6306 -0.4587 -0.1741
 3185TIP3   OH230969   0.241   4.904   0.545 -0.3268 -0.7038  0.2964
 3185TIP3    H130970   0.169   4.841   0.550  0.9089 -2.3506 -2.0923
 3185TIP3    H230971   0.313   4.861   0.591 -0.3534  0.2346  1.2287
 3186TIP3   OH230972   1.327   1.961   0.124  0.3991  0.1452 -0.3050
 3186TIP3    H130973   1.370   1.912   0.055  0.5358  0.1041 -0.1904
 3186TIP3    H230974   1.246   1.993   0.084  0.0540 -0.6231 -0.2260
 3187TIP3   OH230975   4.547   5.498   3.129 -0.4494  0.4152 -0.3618
 3187TIP3    H130976   4.521   5.490   3.221  0.5879  0.4236 -0.0631
 3187TIP3    H230977   4.524   5.589   3.106 -0.4989  0.4835 -0.0462
 3188TIP3   OH230978   2.875   4.683  16.524 -0.5052  0.0225  0.0317
 3188TIP3    H130979   2.930   4.716  16.453 -2.4201  1.3616 -0.8816
 3188TIP3    H230980   2.918   4.712  16.604 -0.8334  2.6223 -0.7083
 3189TIP3   OH230981   3.931   2.856   1.400 -0.6513 -0.4191 -1.0505
 3189TIP3    H130982   3.905   2.856   1.492 -0.1050  0.5106 -0.8903
 3189TIP3    H230983   3.930   2.948   1.374  2.5244 -0.2933 -1.0087
 3190TIP3   OH230984   1.843   2.184  15.404 -0.4290 -0.1737 -0.0208
 3190TIP3    H130985   1.830   2.175  15.499  0.9003 -0.1733  0.1765
 3190TIP3    H230986   1.793   2.112  15.366  0.4649 -1.2413  0.7983
 3191TIP3   OH230987   1.746   6.450   5.942  0.3891  0.0206  0.5637
 3191TIP3    H130988   1.768   6.533   5.899  1.4153 -0.5259 -0.0050
 3191TIP3    H230989   1.770   6.463   6.034  2.5374 -0.3243  0.0902
 3192TIP3   OH230990   3.484   3.382  12.893 -0.2093  0.0623 -0.5926
 3192TIP3    H130991   3.499   3.322  12.965 -0.0869  2.1349  1.1652
 3192TIP3    H230992   3.571   3.406  12.861 -0.2632 -0.8884 -1.4968
 3193TIP3   OH230993   0.802   4.125  14.294  0.1583  0.1168  0.2352
 3193TIP3    H130994   0.741   4.089  14.359 -0.1721  0.6535  0.2277
 3193TIP3    H230995   0.752   4.127  14.213  0.5945 -0.6181 -0.0622
 3194TIP3   OH230996   3.355   2.910  12.115  0.4850 -0.3116  0.0298
 3194TIP3    H130997   3.437   2.957  12.101 -0.2768  0.8614 -0.5999
 3194TIP3    H230998   3.288   2.970  12.082 -0.9080  0.1115  3.5070
 3195TIP3   OH230999   1.340   1.049   0.956  0.2040 -0.6514  0.0529
 3195TIP3    H131000   1.322   1.072   1.047  1.4290  2.0925 -0.3362
 3195TIP3    H231001   1.436   1.056   0.948  0.1380 -1.2050 -1.3288
 3196TIP3   OH231002   0.120   3.976   4.027  0.5209 -0.6021  0.1026
 3196TIP3    H131003   0.193   3.917   4.009  0.6586 -0.2470 -0.5482
 3196TIP3    H231004   0.162   4.061   4.044  0.4527 -1.1117  3.0700
 3197TIP3   OH231005   2.912   0.608   3.738 -0.1550  0.3658 -0.2704
 3197TIP3    H131006   2.871   0.671   3.679 -0.2392  0.1621 -0.4335
 3197TIP3    H231007   2.972   0.660   3.792 -0.9877  0.7320  0.3007
 3198TIP3   OH231008   1.722   5.945   1.572 -0.0055 -0.0066 -0.3911
 3198TIP3    H131009   1.789   6.007   1.544  0.0071 -0.2043 -0.8057
 3198TIP3    H231010   1.738   5.867   1.518 -0.4280 -0.1351 -0.3313
 3199TIP3   OH231011   2.271   3.760   3.135  0.1070 -0.1209 -0.6702
 3199TIP3    H131012   2.284   3.838   3.080 -2.8312  0.7317 -0.2176
 3199TIP3    H231013   2.179   3.738   3.124  0.2137 -1.7879  1.5341
 3200TIP3   OH231014   1.202   6.557  15.612 -0.0849 -0.2794  0.0042
 3200TIP3    H131015   1.255   6.564  15.533  0.7479 -0.5488  0.5434
 3200TIP3    H231016   1.156   6.474  15.603  0.8851 -0.8559  0.3446
 3201TIP3   OH231017   0.461   5.204   6.067 -0.4251 -0.1506 -0.0689
 3201TIP3    H131018   0.536   5.160   6.107  0.2102 -0.3633 -1.4489
 3201TIP3    H231019   0.406   5.230   6.141  0.4834 -0.9349  0.9046
 3202TIP3   OH231020   1.043   6.108  17.232 -0.5098 -0.2113  0.3688
 3202TIP3    H131021   0.962   6.060  17.217 -0.6156  0.1078 -0.1035
 3202TIP3    H231022   1.109   6.041  17.249  0.0834 -0.7479 -3.6577
 3203TIP3   OH231023   6.059   5.926  10.373 -0.6172 -0.2604 -0.0012
 3203TIP3    H131024   6.025   5.995  10.315 -0.2850  0.1177  0.2529
 3203TIP3    H231025   6.151   5.917  10.348 -0.2672  0.4570  1.0043
 3204TIP3   OH231026   1.168   3.829   6.574 -0.2246  0.1435 -1.0936
 3204TIP3    H131027   1.084   3.875   6.576 -0.5625 -0.4864 -0.3874
 3204TIP3    H231028   1.222   3.876   6.637  0.0056  0.6317 -1.6459
 3205TIP3   OH231029   2.231   6.322   3.120  0.5163 -0.3619  0.6487
 3205TIP3    H131030   2.257   6.400   3.071  2.3848 -2.2878 -1.5388
 3205TIP3    H231031   2.138   6.311   3.099  0.0140  1.7197  1.6548
 3206TIP3   OH231032   3.463   3.081  14.265  0.1531 -0.4108  0.2478
 3206TIP3    H131033   3.396   3.145  14.241 -0.2666 -0.6585  0.7475
 3206TIP3    H231034   3.545   3.129  14.259 -0.2640  0.5723  1.9797
 3207TIP3   OH231035   0.974   3.656   2.805  0.3033 -0.3201  0.3036
 3207TIP3    H131036   1.055   3.692   2.842 -0.1430 -0.3978  1.3880
 3207TIP3    H231037   0.920   3.635   2.882 -0.4721 -0.9004 -0.3892
 3208TIP3   OH231038   4.968   3.705  13.175  0.2266 -0.0206  0.4922
 3208TIP3    H131039   5.048   3.656  13.158 -0.5407 -1.0656 -0.1286
 3208TIP3    H231040   4.946   3.746  13.092 -0.8498 -1.1918  0.1733
 3209TIP3   OH231041   5.577   5.117   1.325  0.1954  0.2226  0.6685
 3209TIP3    H131042   5.508   5.145   1.385  1.4434  1.3536  1.6310
 3209TIP3    H231043   5.592   5.193   1.269  0.8653  0.1043  0.6774
 3210TIP3   OH231044   1.316   5.693   2.173  0.0096 -0.0050  0.2337
 3210TIP3    H131045   1.368   5.758   2.220 -1.1395  0.7232  0.5082
 3210TIP3    H231046   1.293   5.628   2.240 -0.2563  0.1784  0.3178
 3211TIP3   OH231047   4.178   2.196   2.420  0.2604  0.2400 -0.2930
 3211TIP3    H131048   4.196   2.279   2.465 -1.6242  0.1476  0.6921
 3211TIP3    H231049   4.138   2.223   2.337  1.8270  0.3504 -1.0428
 3212TIP3   OH231050   0.127   3.808   2.681 -0.1854  0.0704  0.7986
 3212TIP3    H131051   0.206   3.774   2.639 -0.2744  0.1752  0.5443
 3212TIP3    H231052   0.107   3.889   2.633 -1.3005 -0.7434 -0.1343
 3213TIP3   OH231053   6.773   5.620  16.014  0.2043 -0.1135 -0.4881
 3213TIP3    H131054   6.722   5.593  16.091  0.9172 -0.2523 -0.0670
 3213TIP3    H231055   6.714   5.604  15.941 -1.3253  2.0940  0.1858
 3214TIP3   OH231056   6.304   1.297   2.559 -0.1492 -0.4284  0.0222
 3214TIP3    H131057   6.244   1.296   2.484 -0.0539 -1.7599 -0.0363
 3214TIP3    H231058   6.304   1.389   2.588 -2.1662 -0.3989 -0.0067
 3215TIP3   OH231059   5.611   5.029   5.783  0.8732 -0.1542  0.4331
 3215TIP3    H131060   5.601   5.115   5.824  0.8634 -0.6476  1.4939
 3215TIP3    H231061   5.526   4.988   5.793  0.5450  0.1440 -1.0948
 3216TIP3   OH231062   4.842   0.911  12.303 -0.0659 -0.2214  0.3965
 3216TIP3    H131063   4.844   0.990  12.357  0.0610  1.1216 -1.5404
 3216TIP3    H231064   4.923   0.864  12.325  0.5186  0.8589  0.5599
 3217TIP3   OH231065   1.239   4.596   2.556  0.7111  0.4816 -0.0504
 3217TIP3    H131066   1.214   4.634   2.472  0.3312  2.5275  0.9701
 3217TIP3    H231067   1.166   4.537   2.578  0.1577  0.9994 -0.4764
 3218TIP3   OH231068   5.886   5.475   2.532 -0.1318  0.2602  0.2464
 3218TIP3    H131069   5.922   5.562   2.547 -1.7588  0.7622  1.3440
 3218TIP3    H231070   5.959   5.415   2.549  1.1229  1.4067 -0.9499
 3219TIP3   OH231071   2.823   3.699  12.019 -0.0840 -0.2623  0.6797
 3219TIP3    H131072   2.746   3.736  12.062 -1.4654 -1.9343 -0.2954
 3219TIP3    H231073   2.834   3.751  11.940 -0.6608 -0.4850  0.4494
 3220TIP3   OH231074   3.792   0.107   2.606  0.3735 -0.3249  0.3347
 3220TIP3    H131075   3.868   0.055   2.578 -0.3671 -0.5946 -1.2138
 3220TIP3    H231076   3.755   0.057   2.679  1.3598 -0.4854  0.7299
 3221TIP3   OH231077   1.027   3.855   2.330 -0.5784 -0.0708 -0.1560
 3221TIP3    H131078   0.957   3.914   2.301 -0.3716  0.2418 -0.0243
 3221TIP3    H231079   1.035   3.872   2.424  0.2241  0.4786 -0.3191
 3222TIP3   OH231080   1.457   5.144  12.259 -0.3159  0.0039  0.0645
 3222TIP3    H131081   1.390   5.077  12.268  0.3237 -0.7561 -0.6796
 3222TIP3    H231082   1.411   5.227  12.272 -1.4191 -0.4998 -0.5666
 3223TIP3   OH231083   2.825   4.309   2.983  0.1763 -0.3760 -0.6501
 3223TIP3    H131084   2.872   4.357   2.915 -1.0878  1.7506 -0.0703
 3223TIP3    H231085   2.877   4.320   3.062 -0.9781  1.5440 -0.1257
 3224TIP3   OH231086   4.285   1.491  15.017  0.2261  0.0588 -0.2154
 3224TIP3    H131087   4.194   1.493  14.987  0.4788 -2.4756 -1.2455
 3224TIP3    H231088   4.319   1.578  14.997 -2.2671  1.4034  1.1790
 3225TIP3   OH231089   4.679   6.757   3.863  0.4174 -0.0065 -0.7586
 3225TIP3    H131090   4.769   6.738   3.891 -0.3316 -1.8483  0.5089
 3225TIP3    H231091   4.689   6.797   3.777  2.3729 -1.8835 -1.4635
 3226TIP3   OH231092   0.810   3.368  15.564  0.1931 -0.2803  0.2396
 3226TIP3    H131093   0.724   3.378  15.524  1.0316 -2.1503 -2.1290
 3226TIP3    H231094   0.824   3.274  15.570  2.2442 -0.0099  0.2513
 3227TIP3   OH231095   1.175   4.992   2.724 -0.0589 -0.0557 -0.0629
 3227TIP3    H131096   1.100   5.051   2.722 -1.0788 -1.3102  0.6178
 3227TIP3    H231097   1.224   5.019   2.802 -0.7602 -0.3788  0.5016
 3228TIP3   OH231098   6.598   5.402  16.128  0.2332  0.3360  0.0167
 3228TIP3    H131099   6.611   5.407  16.223 -1.5671 -1.1886  0.3695
 3228TIP3    H231100   6.504   5.414  16.116  0.3239 -0.4032 -1.5043
 3229TIP3   OH231101   2.493   4.671   5.719 -0.1068 -0.1260  0.7020
 3229TIP3    H131102   2.570   4.722   5.744  1.3881 -1.0818 -1.7794
 3229TIP3    H231103   2.528   4.586   5.692 -1.7709  0.1409 -2.5384
 3230TIP3   OH231104   1.378   2.828   0.934  0.3406  0.4245 -0.4946
 3230TIP3    H131105   1.322   2.761   0.894  1.2287  0.0144 -1.0697
 3230TIP3    H231106   1.396   2.889   0.863 -0.3423  1.2067 -0.0056
 3231TIP3   OH231107   0.644   5.282   1.980  0.4116  0.0950 -0.5394
 3231TIP3    H131108   0.711   5.350   1.973  0.5895  0.0312  0.5350
 3231TIP3    H231109   0.688   5.202   1.949  0.5285  0.2589 -0.7933
 3232TIP3   OH231110   1.740   0.750  12.268 -0.2155 -0.1305  0.0725
 3232TIP3    H131111   1.788   0.708  12.339  0.3172  0.1086 -0.1425
 3232TIP3    H231112   1.727   0.680  12.203 -0.3456 -0.2462  0.2220
 3233TIP3   OH231113   2.146   4.028  14.572 -0.5346 -0.6213  0.6747
 3233TIP3    H131114   2.084   4.048  14.642 -0.7946  1.7704 -0.1907
 3233TIP3    H231115   2.224   3.997  14.618 -1.7243 -1.9545  1.8521
 3234TIP3   OH231116   4.479   6.615  13.914  0.0938  0.9113 -0.0810
 3234TIP3    H131117   4.482   6.531  13.960  0.6431  0.5748 -0.7198
 3234TIP3    H231118   4.394   6.615  13.871 -0.3473  1.1482  0.7874
 3235TIP3   OH231119   5.118   1.607   4.696  0.4888  0.9208 -0.1963
 3235TIP3    H131120   5.078   1.629   4.780  0.4098  0.3715 -0.0861
 3235TIP3    H231121   5.052   1.555   4.651  1.0243  0.1183 -0.0677
 3236TIP3   OH231122   3.584   5.178  12.458 -0.2542  0.6414  0.3893
 3236TIP3    H131123   3.631   5.250  12.499  0.3541  0.3387  0.2387
 3236TIP3    H231124   3.648   5.106  12.456 -0.4726  0.4669 -0.5264
 3237TIP3   OH231125   2.224   1.764  16.370  0.0523 -0.0152 -0.4033
 3237TIP3    H131126   2.214   1.669  16.379  0.0005  0.1109  0.8874
 3237TIP3    H231127   2.193   1.800  16.453 -0.5153  1.1806 -1.1123
 3238TIP3   OH231128   0.419   0.004   0.646 -0.1953 -0.3703 -0.3061
 3238TIP3    H131129   0.476   0.081   0.645 -0.5183 -0.1012  0.8794
 3238TIP3    H231130   0.467  -0.062   0.596  1.4043 -0.3095  1.0995
 3239TIP3   OH231131   3.495   0.384   4.011 -0.1289  0.0911 -0.4462
 3239TIP3    H131132   3.476   0.347   3.925  0.7578 -0.1888 -0.5275
 3239TIP3    H231133   3.422   0.357   4.066 -0.7574  0.3771 -1.1432
 3240TIP3   OH231134   3.688   3.378  11.026  0.1971 -0.0585  0.1201
 3240TIP3    H131135   3.779   3.358  11.050  0.4869 -0.3689 -1.1855
 3240TIP3    H231136   3.687   3.374  10.930 -0.7493  1.8616  0.0082
 3241TIP3   OH231137   5.663   6.532  15.336  0.1429  0.2670 -0.0598
 3241TIP3    H131138   5.614   6.560  15.413  0.2874 -1.0525  0.5126
 3241TIP3    H231139   5.692   6.614  15.296 -2.0598  1.0757 -0.1205
 3242TIP3   OH231140   0.965   3.970  13.199 -0.0397 -0.3047 -0.1136
 3242TIP3    H131141   0.930   3.894  13.153 -1.3944 -0.5143  1.1895
 3242TIP3    H231142   0.887   4.016  13.231  0.8230 -0.7643  2.8492
 3243TIP3   OH231143   2.910   5.239   0.773 -0.2186  0.4003 -0.6262
 3243TIP3    H131144   2.973   5.278   0.713 -0.9851  1.1368 -0.9710
 3243TIP3    H231145   2.963   5.199   0.842  0.6216  0.7245 -1.0809
 3244TIP3   OH231146   2.149   0.104  13.385  0.0212 -0.3349  0.3709
 3244TIP3    H131147   2.070   0.057  13.410  0.4863 -1.2693  0.1325
 3244TIP3    H231148   2.217   0.070  13.445  0.8978 -1.7951 -1.3927
 3245TIP3   OH231149   0.170   4.747  13.765 -0.9428 -0.3356 -0.2655
 3245TIP3    H131150   0.150   4.679  13.699  1.0770 -2.0779  0.8631
 3245TIP3    H231151   0.153   4.704  13.849  1.3452  0.1809  0.4977
 3246TIP3   OH231152   1.581   6.641   2.163  0.4848 -0.0631  0.1401
 3246TIP3    H131153   1.506   6.693   2.134  0.1263 -1.3927 -1.3400
 3246TIP3    H231154   1.591   6.663   2.256 -0.6107  1.4750 -0.0978
 3247TIP3   OH231155   6.624   1.752   1.262 -0.1961  0.1708 -0.9537
 3247TIP3    H131156   6.575   1.670   1.253  0.1774 -0.0297 -1.1278
 3247TIP3    H231157   6.710   1.733   1.226  0.2075  0.3563 -0.0813
 3248TIP3   OH231158   2.997   1.736  11.471 -0.2834  0.5304  0.1491
 3248TIP3    H131159   3.074   1.680  11.458 -0.3493  0.2833  0.8097
 3248TIP3    H231160   3.007   1.805  11.406  0.3713  0.3585  0.0597
 3249TIP3   OH231161   5.411   0.139  11.697 -0.3471 -0.7103 -0.0402
 3249TIP3    H131162   5.500   0.115  11.724 -0.1193  1.3371  1.0845
 3249TIP3    H231163   5.365   0.159  11.779 -1.1799  0.4568 -0.7735
 3250TIP3   OH231164   3.488   3.532   4.846  0.0674  0.3462 -0.1282
 3250TIP3    H131165   3.428   3.579   4.788  0.3211  0.4178 -0.3341
 3250TIP3    H231166   3.436   3.460   4.882 -0.0355  0.1888 -0.5905
 3251TIP3   OH231167   5.882   4.263   3.845 -0.4271 -0.3821 -0.0605
 3251TIP3    H131168   5.855   4.250   3.936 -0.6107  2.0999  0.2839
 3251TIP3    H231169   5.953   4.328   3.851  0.7994 -1.5638 -1.5378
 3252TIP3   OH231170   1.105   6.583   3.448 -0.0756 -0.2228 -0.2759
 3252TIP3    H131171   1.100   6.679   3.450  0.8957 -0.0575 -3.2446
 3252TIP3    H231172   1.198   6.564   3.457 -0.3091 -0.8961  0.6855
 3253TIP3   OH231173   1.156   5.359   5.905  0.1471  0.0016  0.0766
 3253TIP3    H131174   1.095   5.348   5.978 -0.2538  1.1322 -0.0754
 3253TIP3    H231175   1.239   5.325   5.937  0.1142  1.0109  1.2693
 3254TIP3   OH231176   4.631   3.474   2.502 -0.2145 -0.1271  0.4298
 3254TIP3    H131177   4.656   3.463   2.594  0.2100  1.0449  0.4534
 3254TIP3    H231178   4.544   3.434   2.496  0.1961 -1.1463  1.1088
 3255TIP3   OH231179   3.265   2.653  13.914 -0.7140 -0.0004 -0.3341
 3255TIP3    H131180   3.322   2.579  13.894  0.1964  0.5734  0.0926
 3255TIP3    H231181   3.324   2.721  13.946 -0.9813  2.3195 -4.3339
 3256TIP3   OH231182   3.842   5.573   5.184 -0.3679  0.0818 -0.4262
 3256TIP3    H131183   3.873   5.483   5.196 -1.1936 -0.1260  0.1855
 3256TIP3    H231184   3.909   5.628   5.225  0.2387 -0.2366 -0.9763
 3257TIP3   OH231185   6.260   3.434  14.385  0.3829 -0.1458  0.5653
 3257TIP3    H131186   6.283   3.522  14.414 -0.8902  0.6989 -0.8597
 3257TIP3    H231187   6.241   3.445  14.291 -2.6192 -1.3532  0.9862
 3258TIP3   OH231188   1.537   2.872  15.255 -0.2107 -0.1764 -0.2353
 3258TIP3    H131189   1.593   2.822  15.195 -0.3992  0.4017 -0.8962
 3258TIP3    H231190   1.456   2.821  15.259  0.4995 -1.2563  1.0781
 3259TIP3   OH231191   5.216   1.702  14.313 -0.0117 -0.0394 -0.4219
 3259TIP3    H131192   5.246   1.611  14.307 -0.2979 -0.2498  1.0153
 3259TIP3    H231193   5.176   1.720  14.228  0.6246 -1.0444 -0.9485
 3260TIP3   OH231194   5.182   5.445   5.043 -0.1602 -0.0684 -0.1181
 3260TIP3    H131195   5.129   5.487   5.110  1.3264  0.7581  0.5787
 3260TIP3    H231196   5.246   5.392   5.092 -0.4925 -1.2604 -0.9355
 3261TIP3   OH231197   0.309   3.690  12.353 -0.2315 -0.0010  0.0661
 3261TIP3    H131198   0.313   3.602  12.315  1.2358 -0.7497  1.8828
 3261TIP3    H231199   0.285   3.676  12.444  0.2457  1.4748  0.4340
 3262TIP3   OH231200   6.550   2.560   1.058 -0.3544 -0.1542  0.0151
 3262TIP3    H131201   6.626   2.534   1.110  0.1544  0.7322 -0.2735
 3262TIP3    H231202   6.478   2.508   1.092  0.9943 -3.3583 -1.7572
 3263TIP3   OH231203   4.999   4.511  14.016 -0.1798  0.4244 -0.0876
 3263TIP3    H131204   4.995   4.447  14.087  0.0134 -0.2756 -0.6969
 3263TIP3    H231205   4.996   4.596  14.059 -0.8708  0.0023  0.7033
 3264TIP3   OH231206   4.306   0.704  12.406  0.4824  0.8058 -0.8195
 3264TIP3    H131207   4.355   0.777  12.368 -0.4166  2.1286  0.5073
 3264TIP3    H231208   4.356   0.678  12.483  1.0568 -0.3231 -1.5528
 3265TIP3   OH231209   6.486   5.041  13.587 -0.2741  0.3504  0.0901
 3265TIP3    H131210   6.507   5.114  13.527 -1.3717  1.2545  0.8032
 3265TIP3    H231211   6.544   5.055  13.662  0.4989 -0.3054 -0.3755
 3266TIP3   OH231212   4.703   1.592   0.635  0.1079  0.0324  0.3263
 3266TIP3    H131213   4.723   1.498   0.635 -1.0710 -0.2452 -0.9598
 3266TIP3    H231214   4.750   1.626   0.559 -1.4403  0.0146 -0.6604
 3267TIP3   OH231215   5.223   4.520  15.584  0.1320  0.3331 -0.0703
 3267TIP3    H131216   5.304   4.500  15.632  0.2233 -0.5191 -0.5751
 3267TIP3    H231217   5.174   4.576  15.644  1.4306  1.5035 -0.0665
 3268TIP3   OH231218   4.445   4.692  13.073 -0.3795  0.3007  0.2405
 3268TIP3    H131219   4.406   4.605  13.077  1.4295 -0.6172 -1.1555
 3268TIP3    H231220   4.511   4.692  13.142  1.0386 -0.1820 -1.0984
 3269TIP3   OH231221   3.702   4.857  14.885 -0.0101 -0.1621  0.7677
 3269TIP3    H131222   3.747   4.861  14.969  0.8262 -0.1619  0.3308
 3269TIP3    H231223   3.714   4.766  14.856 -0.7239 -0.2941  0.8779
 3270TIP3   OH231224   1.004   6.418  12.213 -0.4132 -0.3275 -0.3244
 3270TIP3    H131225   0.986   6.512  12.222 -0.9028 -0.3313 -1.2351
 3270TIP3    H231226   0.928   6.376  12.256 -0.2287 -0.3120  0.0215
 3271TIP3   OH231227   6.385   4.660   4.695  0.1628  0.0603 -0.2133
 3271TIP3    H131228   6.345   4.713   4.626  0.7070  0.3472 -0.3122
 3271TIP3    H231229   6.312   4.610   4.732 -0.5471  1.6068  0.5487
 3272TIP3   OH231230   1.507   1.629   5.976  0.2719  0.1961  0.2628
 3272TIP3    H131231   1.521   1.599   6.065  0.1100 -0.6398  0.0100
 3272TIP3    H231232   1.595   1.632   5.937  0.0539 -2.5885 -0.5410
 3273TIP3   OH231233   0.496   3.086   4.492  0.0031  0.1047 -0.6719
 3273TIP3    H131234   0.586   3.105   4.520  0.7231 -2.4281 -1.1244
 3273TIP3    H231235   0.478   3.151   4.424  1.8026  0.1120 -1.1684
 3274TIP3   OH231236   2.424   6.613  15.863  0.2661  0.3019  0.0785
 3274TIP3    H131237   2.429   6.702  15.898 -0.0521 -0.1220  1.2118
 3274TIP3    H231238   2.332   6.589  15.873  0.7780 -0.9989  1.8990
 3275TIP3   OH231239   5.856   4.893   5.829 -0.5536 -0.2315 -0.1234
 3275TIP3    H131240   5.779   4.882   5.773 -3.2480  1.3082  3.1325
 3275TIP3    H231241   5.850   4.983   5.861  2.9310  0.0900 -0.2075
 3276TIP3   OH231242   5.487   3.121   1.254 -0.5952  0.6043 -0.8257
 3276TIP3    H131243   5.525   3.198   1.297 -1.0807 -0.5384  1.7547
 3276TIP3    H231244   5.556   3.056   1.255 -1.3395 -0.1803  0.2991
 3277TIP3   OH231245   1.173   4.240   1.698 -0.0181  0.4707  0.1107
 3277TIP3    H131246   1.110   4.181   1.740 -0.3981  0.2531 -0.7621
 3277TIP3    H231247   1.202   4.193   1.620  0.3705  1.0548 -0.1017
 3278TIP3   OH231248   4.498   0.837  15.025 -0.1093 -0.1270  0.0838
 3278TIP3    H131249   4.485   0.932  15.021  0.4203 -0.0078  0.9464
 3278TIP3    H231250   4.524   0.813  14.936  0.0071  0.5781 -0.0776
 3279TIP3   OH231251   1.228   4.778   0.859 -0.8457 -0.6436 -0.4861
 3279TIP3    H131252   1.314   4.738   0.871  0.4397  2.2208  0.1455
 3279TIP3    H231253   1.232   4.819   0.772 -0.9400  0.9588  0.2465
 3280TIP3   OH231254   4.939   5.644  16.054  0.4255 -0.3827  0.2052
 3280TIP3    H131255   5.022   5.647  16.101  1.1706  0.8687 -1.1729
 3280TIP3    H231256   4.907   5.734  16.056 -0.2637 -0.6090 -0.3867
 3281TIP3   OH231257   0.778   2.322   4.279 -0.3162 -0.3438  0.0539
 3281TIP3    H131258   0.688   2.297   4.261 -0.2511 -0.1697 -0.5064
 3281TIP3    H231259   0.800   2.275   4.360 -1.2699  0.5015  0.8148
 3282TIP3   OH231260   0.682   0.029  12.091  0.4340 -0.0672 -0.0927
 3282TIP3    H131261   0.597   0.060  12.123  0.8800  0.8296  0.2187
 3282TIP3    H231262   0.669  -0.065  12.076 -0.9314  0.2747 -1.1004
 3283TIP3   OH231263   0.035   5.705  12.694 -0.2440 -0.6101 -0.1845
 3283TIP3    H131264   0.107   5.678  12.636 -0.3597  1.0244 -1.1030
 3283TIP3    H231265   0.045   5.800  12.702 -1.5796 -0.5392  0.6689
 3284TIP3   OH231266   6.242   1.495   1.481  0.6509  0.2603 -0.0782
 3284TIP3    H131267   6.192   1.483   1.562 -0.1939 -1.2434 -0.8177
 3284TIP3    H231268   6.275   1.408   1.460 -1.1565  0.1361 -2.6496
 3285TIP3   OH231269   4.514   0.512  15.264  0.0870 -0.3317  0.2186
 3285TIP3    H131270   4.570   0.486  15.337  0.1920  1.4176  0.7872
 3285TIP3    H231271   4.468   0.590  15.296  1.2147  1.3278 -2.0592
 3286TIP3   OH231272   1.244   6.604  15.882  0.2007  0.0859  0.6229
 3286TIP3    H131273   1.332   6.574  15.907  0.3479  0.9036  1.0900
 3286TIP3    H231274   1.233   6.572  15.792  1.9225  1.9776 -0.3041
 3287TIP3   OH231275   2.112   2.579   5.750 -0.2632  0.2160  0.3598
 3287TIP3    H131276   2.204   2.573   5.774 -0.1834  0.6770  0.1691
 3287TIP3    H231277   2.080   2.489   5.754  0.4089 -0.0535 -0.4220
 3288TIP3   OH231278   3.914   4.443   3.804 -0.7998  0.1881 -0.3645
 3288TIP3    H131279   3.863   4.428   3.725  0.0698  0.7391 -1.0418
 3288TIP3    H231280   3.980   4.508   3.778  0.0688 -0.3112  0.5562
 3289TIP3   OH231281   1.520   6.782  10.649 -0.2066  0.2113  0.3075
 3289TIP3    H131282   1.493   6.843  10.580 -0.7437  0.1280  0.4422
 3289TIP3    H231283   1.552   6.839  10.719  1.1962  0.2669 -0.3558
 3290TIP3   OH231284   3.566   6.446  11.564  0.7480 -0.1587 -0.8125
 3290TIP3    H131285   3.593   6.510  11.499  0.3305  0.1919 -0.6386
 3290TIP3    H231286   3.561   6.495  11.646 -0.6600 -0.1534 -0.8799
 3291TIP3   OH231287   1.746   1.503  16.029  0.0180  0.5124  0.0485
 3291TIP3    H131288   1.673   1.449  16.058 -1.4637  1.3152 -2.0065
 3291TIP3    H231289   1.713   1.593  16.036  1.4606  0.9888  0.8209
 3292TIP3   OH231290   4.071   0.494  13.286  0.6300 -0.1579 -0.7264
 3292TIP3    H131291   4.081   0.564  13.223 -0.8281  0.9786  0.2912
 3292TIP3    H231292   3.980   0.468  13.281  0.2831  0.4847  1.4338
 3293TIP3   OH231293   6.115   5.525   0.249 -0.2504 -0.0934  0.0142
 3293TIP3    H131294   6.122   5.558   0.159  0.7715  2.1098  0.8665
 3293TIP3    H231295   6.071   5.440   0.240 -0.9866  0.5074 -2.4739
 3294TIP3   OH231296   1.193   3.770   4.861  0.1156  0.3580  0.1327
 3294TIP3    H131297   1.152   3.846   4.903  0.0692  0.0512  0.6517
 3294TIP3    H231298   1.187   3.701   4.927  0.9791  0.1586 -0.0042
 3295TIP3   OH231299   3.254   5.067   0.518 -0.6474 -0.3638 -0.1382
 3295TIP3    H131300   3.262   5.078   0.423  0.1077  0.2563 -0.0036
 3295TIP3    H231301   3.266   4.973   0.532  2.4755 -0.0326 -0.3615
 3296TIP3   OH231302   3.658   5.758   0.327  0.9437  0.0424  0.4268
 3296TIP3    H131303   3.581   5.756   0.269  2.4224 -1.6582 -1.5564
 3296TIP3    H231304   3.733   5.755   0.268  2.5067 -1.8508  2.4079
 3297TIP3   OH231305   0.329   5.624   5.305 -0.4402  0.1233  0.1113
 3297TIP3    H131306   0.269   5.674   5.250 -1.0788 -1.4933 -0.7016
 3297TIP3    H231307   0.386   5.690   5.345 -2.1184  1.6007  0.1370
 3298TIP3   OH231308   3.092   0.240  11.180 -0.1031  0.1641  0.6545
 3298TIP3    H131309   3.026   0.266  11.116  0.4152  0.1684  0.1197
 3298TIP3    H231310   3.164   0.205  11.127  0.6132  0.8076  1.2009
 3299TIP3   OH231311   3.642   4.062  13.303 -0.3402  0.5936  0.3781
 3299TIP3    H131312   3.600   4.086  13.220 -0.4206  1.2170  0.5960
 3299TIP3    H231313   3.735   4.055  13.282 -0.6197 -1.4749 -0.2600
 3300TIP3   OH231314   1.389   5.898   0.243  0.2048 -0.5544 -0.6180
 3300TIP3    H131315   1.416   5.811   0.273  2.7918  0.0338 -1.1089
 3300TIP3    H231316   1.359   5.884   0.153  0.3734 -0.9906 -0.6084
 3301TIP3   OH231317   4.678   3.862  17.049  0.3142 -0.3411 -0.3891
 3301TIP3    H131318   4.611   3.927  17.028  1.0395  0.0623 -1.4987
 3301TIP3    H231319   4.664   3.792  16.986  1.2211 -0.0381 -0.9488
 3302TIP3   OH231320   3.239   2.068  15.386 -0.2614 -0.1902 -0.4809
 3302TIP3    H131321   3.307   2.010  15.353  0.7086  0.4178  0.4352
 3302TIP3    H231322   3.185   2.088  15.309  1.1973  0.1501 -1.4281
 3303TIP3   OH231323   4.421   0.362   4.451  0.4412  0.2593  0.3984
 3303TIP3    H131324   4.351   0.413   4.493 -1.2371 -0.6299 -1.2346
 3303TIP3    H231325   4.399   0.364   4.358  0.6736 -2.8560  0.2169
 3304TIP3   OH231326   2.158   0.047  14.568  0.5912  0.2826 -0.1251
 3304TIP3    H131327   2.129   0.138  14.576  0.2600  0.2321 -0.7638
 3304TIP3    H231328   2.077  -0.005  14.569  0.6678  0.1138 -1.4310
 3305TIP3   OH231329   1.600   3.296   0.370 -0.1534  0.6081 -0.0818
 3305TIP3    H131330   1.690   3.282   0.400 -0.6276 -1.6589  0.3642
 3305TIP3    H231331   1.559   3.346   0.441  0.1305 -0.3515  0.7650
 3306TIP3   OH231332   1.883   6.044   0.530 -0.3807  0.4276 -0.0316
 3306TIP3    H131333   1.795   6.035   0.566 -0.3018 -0.9063 -0.1387
 3306TIP3    H231334   1.877   6.011   0.441 -0.5634  3.7313 -1.2798
 3307TIP3   OH231335   4.593   0.209  11.847 -0.1072  0.1820  0.5308
 3307TIP3    H131336   4.526   0.163  11.897 -1.1012 -0.4661 -1.3505
 3307TIP3    H231337   4.555   0.295  11.828  0.4790  0.6242  1.3392
 3308TIP3   OH231338   3.348   2.502  17.209  0.2817 -0.1501 -0.2300
 3308TIP3    H131339   3.441   2.485  17.195  0.2419 -0.2265 -0.4066
 3308TIP3    H231340   3.309   2.416  17.224  0.3471 -0.0557  0.5001
 3309TIP3   OH231341   3.480   2.161   5.940 -0.5718  0.4357  0.4750
 3309TIP3    H131342   3.466   2.254   5.954  0.6775  0.7698 -0.3962
 3309TIP3    H231343   3.431   2.141   5.860  2.0257  1.1476 -1.3716
 3310TIP3   OH231344   2.512   5.782  16.294 -0.4346 -0.4354  0.7653
 3310TIP3    H131345   2.517   5.749  16.204  1.3955 -1.0770  1.0824
 3310TIP3    H231346   2.480   5.707  16.344  1.2050 -0.9479  1.0719
 3311TIP3   OH231347   0.911   2.879   5.911 -0.3600 -0.3329 -0.2075
 3311TIP3    H131348   0.854   2.945   5.951  2.4708  0.7351  2.2793
 3311TIP3    H231349   0.938   2.824   5.984  3.4211  0.4767 -0.9139
 3312TIP3   OH231350   2.231   1.656   0.884 -0.2256  0.3418  0.3907
 3312TIP3    H131351   2.318   1.665   0.925 -0.1552  0.4668  0.2129
 3312TIP3    H231352   2.190   1.584   0.932  0.1492 -0.0208  0.1732
 3313TIP3   OH231353   6.583   4.533   4.201  0.3370  0.0533  0.0513
 3313TIP3    H131354   6.653   4.500   4.144 -0.3351  0.7070 -1.1669
 3313TIP3    H231355   6.603   4.626   4.212 -0.3934  0.2688 -0.4005
 3314TIP3   OH231356   0.608   5.635   4.693 -0.0738 -0.0258  0.2622
 3314TIP3    H131357   0.553   5.592   4.627 -0.7763  0.3239  0.6107
 3314TIP3    H231358   0.546   5.663   4.761  0.0876  3.1581 -0.8188
 3315TIP3   OH231359   4.385   5.643  15.988  0.5288  0.7005 -0.2449
 3315TIP3    H131360   4.317   5.605  15.932 -0.3972  1.9122  0.0420
 3315TIP3    H231361   4.380   5.737  15.971  2.1015  0.7958 -0.1735
 3316TIP3   OH231362   1.622   1.092   1.516 -0.3663  0.1385 -0.1428
 3316TIP3    H131363   1.544   1.136   1.481  0.5218  0.5969 -1.6116
 3316TIP3    H231364   1.638   1.020   1.454 -0.6575 -1.0499  1.1446
 3317TIP3   OH231365   6.610   3.517  16.770 -0.2864 -0.8230  0.0520
 3317TIP3    H131366   6.670   3.583  16.803 -1.2780  0.0507  0.1661
 3317TIP3    H231367   6.666   3.446  16.740  0.7924 -0.0438  0.1832
 3318TIP3   OH231368   1.243   3.230   1.196 -0.5874  0.6103  0.5305
 3318TIP3    H131369   1.287   3.145   1.187 -0.5174  0.7041 -0.0843
 3318TIP3    H231370   1.228   3.240   1.290  0.3884  0.4152  0.7167
 3319TIP3   OH231371   1.469   4.816   5.238 -0.1511 -0.2173  0.0653
 3319TIP3    H131372   1.437   4.774   5.158 -0.7946  0.1657  0.1218
 3319TIP3    H231373   1.545   4.867   5.209 -0.9629  0.6964 -0.4815
 3320TIP3   OH231374   4.087   5.015   0.204 -0.1616 -0.2917 -0.7438
 3320TIP3    H131375   4.149   5.081   0.233 -2.2054  0.8891  1.0586
 3320TIP3    H231376   4.142   4.940   0.178  1.9495  0.3009  1.8382
 3321TIP3   OH231377   3.365   3.898  11.343  1.1617 -0.2559  0.3163
 3321TIP3    H131378   3.364   3.918  11.436  0.1226  0.4827  0.1436
 3321TIP3    H231379   3.443   3.843  11.332  1.9311  0.5902  1.4129
 3322TIP3   OH231380   0.594   1.749   5.152  0.8440  0.3327  0.1219
 3322TIP3    H131381   0.665   1.710   5.204 -1.5170 -1.0871  2.4204
 3322TIP3    H231382   0.586   1.838   5.186  0.9942  0.2325  0.4249
 3323TIP3   OH231383   0.154   2.541   5.222  0.1379 -0.3439  0.2920
 3323TIP3    H131384   0.189   2.486   5.292  0.0765  1.0381  1.4286
 3323TIP3    H231385   0.222   2.606   5.207 -0.2405 -0.0866 -0.3149
 3324TIP3   OH231386   5.401   3.629   4.171 -0.1161 -0.3492  0.1403
 3324TIP3    H131387   5.387   3.655   4.262 -0.6731  0.9092 -0.2882
 3324TIP3    H231388   5.343   3.686   4.121  0.6317 -0.6182 -1.0510
 3325TIP3   OH231389   4.787   0.429  10.753 -0.6857 -0.6820 -0.1461
 3325TIP3    H131390   4.719   0.382  10.800 -1.7377 -2.0703 -2.9032
 3325TIP3    H231391   4.762   0.521  10.758 -2.9046 -1.1981 -1.3134
 3326TIP3   OH231392   4.089   4.973  14.252 -0.2453 -0.4029  0.2420
 3326TIP3    H131393   4.072   5.052  14.202  0.4005  0.8829  2.0051
 3326TIP3    H231394   4.074   4.998  14.343  0.6519 -2.1098  0.8937
 3327TIP3   OH231395   0.825   4.498   5.192 -0.1135 -0.1604  0.0741
 3327TIP3    H131396   0.862   4.546   5.118  0.0245 -1.2977 -0.5918
 3327TIP3    H231397   0.818   4.408   5.162 -1.1086 -0.4196  1.0614
 3328TIP3   OH231398   4.837   1.981  12.999  0.1334  0.3561  0.1332
 3328TIP3    H131399   4.901   1.984  13.070 -0.0298 -2.1004  0.4208
 3328TIP3    H231400   4.881   1.934  12.929 -0.9043 -0.2464 -0.1249
 3329TIP3   OH231401   2.446   3.192  12.598  0.3272 -0.0575  0.6005
 3329TIP3    H131402   2.412   3.226  12.680  1.9591  1.4919  0.6703
 3329TIP3    H231403   2.370   3.191  12.539 -0.3508  1.1089  1.4193
 3330TIP3   OH231404   0.554   6.640  15.068  0.3051  0.4436  0.1996
 3330TIP3    H131405   0.629   6.593  15.030 -0.5210 -1.4150  0.8054
 3330TIP3    H231406   0.503   6.668  14.993 -0.1018 -1.1793 -0.1473
 3331TIP3   OH231407   2.214   1.001  12.613  0.3780  0.3181 -0.0030
 3331TIP3    H131408   2.206   1.007  12.708 -0.0157 -3.3499  0.2655
 3331TIP3    H231409   2.132   1.040  12.580  0.4407  1.4438  1.1391
 3332TIP3   OH231410   6.750   1.878  14.913  0.1812 -0.2587  0.2418
 3332TIP3    H131411   6.705   1.826  14.847 -2.2061 -2.0990  3.1463
 3332TIP3    H231412   6.761   1.965  14.873 -0.1675 -1.6053 -2.8976
 3333TIP3   OH231413   6.630   6.657   3.576 -0.3123 -0.2366 -0.0458
 3333TIP3    H131414   6.598   6.628   3.491  2.5397  1.1804 -1.6861
 3333TIP3    H231415   6.684   6.584   3.608 -0.3706 -0.2783 -0.0433
 3334TIP3   OH231416   4.454   5.613  12.467 -0.7490 -0.3962 -0.2313
 3334TIP3    H131417   4.434   5.629  12.374 -3.2818 -0.3648  0.2893
 3334TIP3    H231418   4.518   5.680  12.489 -0.5235 -0.0631 -1.8171
 3335TIP3   OH231419   1.549   2.155  14.501 -0.2968 -0.7540 -0.3032
 3335TIP3    H131420   1.516   2.105  14.426  0.7184  1.2655 -2.1247
 3335TIP3    H231421   1.583   2.088  14.561 -1.0134 -2.3832 -1.6641
 3336TIP3   OH231422   3.352   1.843   5.686  0.2437 -0.4247  0.4262
 3336TIP3    H131423   3.336   1.758   5.726 -1.4798  0.2545  1.2089
 3336TIP3    H231424   3.358   1.825   5.592  1.9960 -1.6881  0.7592
 3337TIP3   OH231425   5.177   5.150  10.843 -0.3575  0.2901 -0.5736
 3337TIP3    H131426   5.112   5.084  10.865  0.2677 -0.6487 -1.5546
 3337TIP3    H231427   5.257   5.121  10.887 -0.5690  1.4423  0.6300
 3338TIP3   OH231428   6.209   6.050   3.491  0.5733  0.5128  0.1656
 3338TIP3    H131429   6.233   6.115   3.557 -0.1824  0.0945  0.8746
 3338TIP3    H231430   6.137   6.001   3.531  0.3414  0.0152 -0.8313
 3339TIP3   OH231431   0.705   5.342   2.818  0.0344  0.3664 -0.2147
 3339TIP3    H131432   0.671   5.377   2.735  0.9727  0.4279 -0.5816
 3339TIP3    H231433   0.740   5.419   2.863  0.7109  0.1438 -0.3459
 3340TIP3   OH231434   1.335   5.134   2.936  0.2110 -0.8979  0.1460
 3340TIP3    H131435   1.417   5.144   2.985 -0.6771  0.0675  1.4877
 3340TIP3    H231436   1.338   5.202   2.869  0.1444 -0.2988  0.7413
 3341TIP3   OH231437   1.686   1.192  14.708 -0.2690 -0.4375  0.3662
 3341TIP3    H131438   1.732   1.162  14.786  1.5124  1.7856  0.2281
 3341TIP3    H231439   1.737   1.156  14.635  1.3120  1.9989  0.2140
 3342TIP3   OH231440   1.914   5.998  12.461 -0.2242 -0.3785  0.5028
 3342TIP3    H131441   1.969   5.982  12.384  1.7900  1.6157  1.4550
 3342TIP3    H231442   1.866   6.078  12.440 -0.5770 -0.5081  0.8146
 3343TIP3   OH231443   6.272   2.009   0.643 -0.5841  0.3994 -0.1666
 3343TIP3    H131444   6.313   2.022   0.728 -0.6681 -1.8985  0.2592
 3343TIP3    H231445   6.179   2.001   0.662 -1.2069  4.2853 -0.9938
 3344TIP3   OH231446   5.040   6.558   1.268  0.3961 -0.2864  0.3567
 3344TIP3    H131447   5.093   6.635   1.290 -0.3226  0.5587 -0.8226
 3344TIP3    H231448   5.069   6.534   1.180 -2.3191  1.2013 -1.0082
 3345TIP3   OH231449   6.112   2.910   4.213  0.1188  0.4137 -0.1953
 3345TIP3    H131450   6.042   2.970   4.239 -0.1967 -0.8205  1.9367
 3345TIP3    H231451   6.067   2.835   4.174  0.3272  0.1936 -0.0158
 3346TIP3   OH231452   2.601   6.314  12.863 -0.1253  0.8724 -0.3620
 3346TIP3    H131453   2.654   6.368  12.923 -0.5177  0.8224  0.0331
 3346TIP3    H231454   2.633   6.336  12.776  0.0087  1.4262 -0.1718
 3347TIP3   OH231455   3.713   4.368   1.191  0.0212 -0.2137 -0.2808
 3347TIP3    H131456   3.705   4.459   1.222 -0.1718 -0.3247 -0.0015
 3347TIP3    H231457   3.797   4.339   1.227  0.7430  0.2978 -1.5254
 3348TIP3   OH231458   6.214   5.486   0.812 -0.6467  0.0247  0.4981
 3348TIP3    H131459   6.135   5.490   0.759  0.0898 -1.3015 -0.7224
 3348TIP3    H231460   6.184   5.505   0.901 -2.1630  0.5588 -0.1179
 3349TIP3   OH231461   6.154   4.126  14.486 -0.1682  0.4170 -0.3116
 3349TIP3    H131462   6.095   4.067  14.533 -0.6315  1.3067  0.2344
 3349TIP3    H231463   6.242   4.101  14.515 -0.5268  2.2099  2.5446
 3350TIP3   OH231464   4.804   6.765  12.228  0.4339 -0.2445  0.4148
 3350TIP3    H131465   4.785   6.715  12.149  2.6334 -1.9160  0.9087
 3350TIP3    H231466   4.859   6.837  12.198  1.3277 -0.9204  0.4408
 3351TIP3   OH231467   5.664   5.075  16.051 -0.5003 -0.4804  0.6034
 3351TIP3    H131468   5.591   5.121  16.008 -0.8992  0.2090  1.9846
 3351TIP3    H231469   5.659   4.986  16.017 -0.8688  0.0302 -0.6969
 3352TIP3   OH231470   3.490   4.182  13.051 -0.1380 -0.1403 -0.1193
 3352TIP3    H131471   3.535   4.266  13.056 -0.0164 -0.2459  0.5124
 3352TIP3    H231472   3.402   4.200  13.083 -1.1153  0.4672 -3.0066
 3353TIP3   OH231473   4.460   4.046  12.298 -0.1204 -0.2872 -0.7416
 3353TIP3    H131474   4.407   3.970  12.273 -0.1291 -0.1320 -1.1933
 3353TIP3    H231475   4.519   4.013  12.366 -1.3277 -0.2852  0.3412
 3354TIP3   OH231476   3.137   4.503   6.644 -0.3826 -0.0770  0.5221
 3354TIP3    H131477   3.161   4.527   6.555 -0.5760  1.4703  0.8857
 3354TIP3    H231478   3.155   4.409   6.648  2.6582  0.4092 -0.1887
 3355TIP3   OH231479   2.790   5.356   5.081 -0.4370  0.0721 -0.4664
 3355TIP3    H131480   2.840   5.362   4.999  2.1238  0.9748  1.0688
 3355TIP3    H231481   2.767   5.264   5.088 -1.2873  0.0983 -2.5290
 3356TIP3   OH231482   6.151   4.579  15.413 -0.3560  0.1045  0.7438
 3356TIP3    H131483   6.238   4.554  15.444 -0.1619  0.2105  0.3067
 3356TIP3    H231484   6.148   4.674  15.427 -0.9453 -0.1047  2.0574
 3357TIP3   OH231485   5.256   6.705  16.000  0.5898  0.2780  0.0391
 3357TIP3    H131486   5.183   6.655  16.037  1.7022 -0.3110  1.5089
 3357TIP3    H231487   5.328   6.691  16.062  1.6544  1.6621 -0.8547
 3358TIP3   OH231488   0.317   2.757   1.906 -0.0051 -0.0195 -0.1749
 3358TIP3    H131489   0.267   2.828   1.946  1.6435  0.6382  0.7691
 3358TIP3    H231490   0.318   2.777   1.813 -1.0120  0.2575 -0.1309
 3359TIP3   OH231491   6.376   0.952   1.001  0.7007  0.1402 -0.7003
 3359TIP3    H131492   6.349   0.977   1.089 -0.2277 -1.2164 -0.5732
 3359TIP3    H231493   6.471   0.941   1.007  0.5351 -0.8676  0.3903
 3360TIP3   OH231494   3.003   1.411   1.546  0.5852  0.1129 -0.0949
 3360TIP3    H131495   3.041   1.447   1.466 -0.3763  0.4450 -0.4086
 3360TIP3    H231496   2.952   1.482   1.583  1.2462  0.0461  0.9759
 3361TIP3   OH231497   3.575   1.913   6.576 -0.2998 -0.1380  0.3794
 3361TIP3    H131498   3.536   1.982   6.631  1.3110 -0.4950  2.0209
 3361TIP3    H231499   3.667   1.911   6.603  0.1876 -1.3354 -1.3331
 3362TIP3   OH231500   0.229   1.507  12.238 -0.4725  0.0983 -0.0206
 3362TIP3    H131501   0.135   1.520  12.236 -0.5166  0.0730  1.5487
 3362TIP3    H231502   0.264   1.571  12.176 -1.4343  0.8112  0.1816
 3363TIP3   OH231503   3.734   1.864   4.989 -0.2880  0.2685 -0.9572
 3363TIP3    H131504   3.644   1.833   5.000  0.1495 -0.5545  0.5014
 3363TIP3    H231505   3.788   1.786   5.005  0.6912  0.8475 -1.3983
 3364TIP3   OH231506   0.465   3.078  13.284 -0.5884  0.1605 -0.5395
 3364TIP3    H131507   0.451   2.998  13.234  2.1901  0.4024 -1.7656
 3364TIP3    H231508   0.377   3.114  13.298 -1.6271 -1.5834 -2.4523
 3365TIP3   OH231509   2.606   5.935  11.982 -0.0786 -0.5080  0.3541
 3365TIP3    H131510   2.612   5.888  11.899  1.4845  0.7382 -0.2615
 3365TIP3    H231511   2.696   5.942  12.012 -0.4711  0.4915  1.3424
 3366TIP3   OH231512   2.719   2.470   3.518 -0.7756  0.2873 -0.6300
 3366TIP3    H131513   2.762   2.420   3.588  0.8501  1.3513 -0.8468
 3366TIP3    H231514   2.727   2.561   3.544 -1.5026  0.6017 -1.4665
 3367TIP3   OH231515   5.964   3.570   2.826  0.2415 -0.1404 -0.1735
 3367TIP3    H131516   6.025   3.500   2.802 -0.9171 -1.2024 -0.0564
 3367TIP3    H231517   5.968   3.573   2.922 -0.0635 -0.3699 -0.1532
 3368TIP3   OH231518   0.138   3.489   2.588  0.5797 -0.3658  0.3034
 3368TIP3    H131519   0.046   3.479   2.563  1.2367 -0.7948 -2.0503
 3368TIP3    H231520   0.159   3.409   2.636 -0.4336  0.0285  1.4303
 3369TIP3   OH231521   3.351   1.519  16.339 -0.1022  0.2627 -0.2365
 3369TIP3    H131522   3.396   1.600  16.364 -0.9442  0.6303  0.1326
 3369TIP3    H231523   3.371   1.508  16.246 -0.1477  1.0128 -0.3385
 3370TIP3   OH231524   0.836   0.318   1.022 -1.3792 -0.3718 -0.2357
 3370TIP3    H131525   0.813   0.277   0.938 -0.2784 -1.3296 -0.0716
 3370TIP3    H231526   0.791   0.265   1.087  0.8220 -1.9332  0.0495
 3371TIP3   OH231527   5.212   6.463   0.522 -0.3005  0.0126 -0.3980
 3371TIP3    H131528   5.148   6.398   0.553  0.5169 -0.3426  0.5827
 3371TIP3    H231529   5.293   6.413   0.513  0.0265  0.6349 -0.8618
 3372TIP3   OH231530   6.544   3.432   0.755  0.5828 -0.1600  0.0675
 3372TIP3    H131531   6.458   3.399   0.729  0.6640  0.2519 -0.7192
 3372TIP3    H231532   6.589   3.356   0.792 -0.1344 -0.3653  0.5082
 3373TIP3   OH231533   6.558   3.020   0.358 -0.1320 -0.3592  0.6020
 3373TIP3    H131534   6.558   3.080   0.282  0.0227 -1.4184 -0.2456
 3373TIP3    H231535   6.470   2.983   0.359  0.2231 -1.2252  0.2320
 3374TIP3   OH231536   2.499   4.022  11.560  0.2735  0.7204 -0.4604
 3374TIP3    H131537   2.427   3.965  11.584 -0.8191  2.5351  0.6727
 3374TIP3    H231538   2.547   3.973  11.493 -0.6661 -1.4661  0.4329
 3375TIP3   OH231539   6.625   1.918   2.728 -0.0139  0.5130  0.0325
 3375TIP3    H131540   6.615   1.982   2.798  1.5478  0.6581  0.1428
 3375TIP3    H231541   6.582   1.959   2.653 -0.4317  0.9929  0.5241
 3376TIP3   OH231542   3.734   3.601   4.001  0.0675  0.1364 -0.9353
 3376TIP3    H131543   3.689   3.600   4.086  0.5428  1.9695 -0.6349
 3376TIP3    H231544   3.762   3.511   3.988 -0.5753 -0.3082  0.5553
 3377TIP3   OH231545   5.303   3.838  12.446  0.3820  0.2763  0.1893
 3377TIP3    H131546   5.350   3.801  12.521 -1.6056 -0.4819  1.1214
 3377TIP3    H231547   5.247   3.905  12.485 -0.5610 -0.0230 -0.6323
 3378TIP3   OH231548   3.880   5.126  16.346 -0.3800  0.4809 -0.1155
 3378TIP3    H131549   3.828   5.130  16.265 -0.8845 -1.4908  0.0682
 3378TIP3    H231550   3.927   5.043  16.339  2.1145  1.8257  0.1307
 3379TIP3   OH231551   4.499   5.942  14.435  0.5574 -0.7088  0.3660
 3379TIP3    H131552   4.550   6.003  14.381 -0.5777 -0.3125 -0.2705
 3379TIP3    H231553   4.536   5.856  14.414 -0.2926 -0.6444 -1.5894
 3380TIP3   OH231554   2.002   3.305   3.442 -0.0594 -0.9692  0.1798
 3380TIP3    H131555   2.052   3.227   3.417  1.8561  0.1735  0.3782
 3380TIP3    H231556   1.942   3.274   3.509  2.0772 -1.8959  1.7236
 3381TIP3   OH231557   6.107   1.539  10.830  0.6659 -0.8762  0.2274
 3381TIP3    H131558   6.149   1.472  10.776 -1.8015 -1.6544 -0.7794
 3381TIP3    H231559   6.176   1.568  10.890  1.3892 -5.4447  1.7835
 3382TIP3   OH231560   4.490   3.740  13.620 -0.4006 -0.3234  0.9286
 3382TIP3    H131561   4.412   3.687  13.604 -1.8159  1.2707  2.1789
 3382TIP3    H231562   4.514   3.720  13.711 -0.5430  0.6098  1.1867
 3383TIP3   OH231563   4.820   3.485   4.554  0.0714  0.0622  0.0314
 3383TIP3    H131564   4.776   3.401   4.571 -1.1241  0.5972 -0.3736
 3383TIP3    H231565   4.864   3.473   4.470  1.6240 -0.8369  0.9432
 3384TIP3   OH231566   3.783   0.223   1.853 -0.3814 -0.0222  0.3096
 3384TIP3    H131567   3.756   0.246   1.941 -1.9579 -1.7676  0.3190
 3384TIP3    H231568   3.735   0.283   1.796 -0.3532  0.2554  0.5829
 3385TIP3   OH231569   3.937   0.687  13.453  0.5638  0.0112  0.6017
 3385TIP3    H131570   3.933   0.779  13.481  1.2455  0.5213 -0.9013
 3385TIP3    H231571   4.031   0.668  13.450  0.3846 -1.1955  2.3299
 3386TIP3   OH231572   4.736   2.483   1.576 -0.1290 -0.2776 -0.0354
 3386TIP3    H131573   4.753   2.388   1.583  0.5353  0.0059  3.1349
 3386TIP3    H231574   4.812   2.523   1.618 -0.8523  1.6411 -0.5476
 3387TIP3   OH231575   0.338   0.510   2.406  0.1114  0.3475  0.2393
 3387TIP3    H131576   0.396   0.435   2.411 -1.2106 -0.5847  1.9765
 3387TIP3    H231577   0.257   0.476   2.368 -0.8823  0.6410  2.0574
 3388TIP3   OH231578   4.920   1.219   1.025 -0.1005  0.3492 -0.0977
 3388TIP3    H131579   4.960   1.197   1.109  0.1602  0.3247 -0.2285
 3388TIP3    H231580   4.984   1.191   0.960 -0.8643 -0.8764 -0.3544
 3389TIP3   OH231581   4.156   5.427   2.302 -0.4830  0.0644  0.7441
 3389TIP3    H131582   4.238   5.378   2.309 -0.7378 -0.4651  0.0302
 3389TIP3    H231583   4.143   5.439   2.208 -0.5639  1.2665  0.9051
 3390TIP3   OH231584   2.026   6.112  17.135 -0.0801 -0.3515  0.0673
 3390TIP3    H131585   2.044   6.156  17.218  1.2513  0.2671 -0.5387
 3390TIP3    H231586   1.987   6.029  17.160  0.1145 -0.0697  1.3152
 3391TIP3   OH231587   6.017   4.683   5.688  0.0825 -0.5004  0.0889
 3391TIP3    H131588   6.021   4.764   5.637  0.8032  0.2695  1.3237
 3391TIP3    H231589   5.986   4.711   5.774  1.0817 -1.4067  0.7627
 3392TIP3   OH231590   1.816   4.067   4.675  0.6462 -0.5452 -0.3902
 3392TIP3    H131591   1.843   3.998   4.614  2.0132  0.0867 -0.5027
 3392TIP3    H231592   1.877   4.138   4.660 -1.1139  0.9446 -0.6689
 3393TIP3   OH231593   6.671   2.990   0.600 -0.7377  1.2110 -0.3843
 3393TIP3    H131594   6.611   2.926   0.639  1.0062  0.2704  0.7905
 3393TIP3    H231595   6.639   2.999   0.510 -2.0433 -0.0206 -0.0739
 3394TIP3   OH231596   2.837   0.854  13.803  0.0593  0.1869  0.1198
 3394TIP3    H131597   2.932   0.852  13.811 -0.0962 -0.8863  2.2275
 3394TIP3    H231598   2.811   0.930  13.855 -0.3294 -0.6001  1.0978
 3395TIP3   OH231599   6.080   3.670  11.774 -0.3149  0.6841 -0.0780
 3395TIP3    H131600   5.991   3.646  11.750 -0.5483  0.2478  1.2174
 3395TIP3    H231601   6.135   3.619  11.713 -0.9713  2.8682 -2.5799
 3396TIP3   OH231602   6.309   1.866   1.554 -0.3458 -0.1998  0.0970
 3396TIP3    H131603   6.383   1.810   1.578  0.3288 -0.6442 -2.8315
 3396TIP3    H231604   6.325   1.890   1.463 -2.5569  1.7336  0.1655
 3397TIP3   OH231605   5.810   3.790  15.418  0.2266  0.1668 -0.1234
 3397TIP3    H131606   5.857   3.824  15.342  0.7403 -0.9237 -0.2955
 3397TIP3    H231607   5.724   3.765  15.385 -0.6702  2.5777  0.2785
 3398TIP3   OH231608   3.997   4.311  13.817  0.5072  0.2763 -0.8023
 3398TIP3    H131609   4.052   4.307  13.895 -0.1163 -1.3449 -0.4206
 3398TIP3    H231610   4.026   4.237  13.763 -0.4449  0.1372 -1.1437
 3399TIP3   OH231611   4.260   5.004   1.221 -0.0636 -0.3212  0.5427
 3399TIP3    H131612   4.290   4.928   1.171  0.2785 -0.3265  0.7520
 3399TIP3    H231613   4.280   4.981   1.312  2.0922  0.9464  0.4277
 3400TIP3   OH231614   4.154   1.533  16.801 -0.2134  0.4964  0.7575
 3400TIP3    H131615   4.085   1.513  16.864 -1.0458  0.6740 -0.0792
 3400TIP3    H231616   4.198   1.611  16.836  0.7185 -0.6749  2.2000
 3401TIP3   OH231617   0.838   4.178  14.646 -0.4951  0.2913  0.8967
 3401TIP3    H131618   0.786   4.119  14.592  3.5972 -0.4681 -2.5267
 3401TIP3    H231619   0.791   4.261  14.644 -2.7452 -0.9669 -0.1000
 3402TIP3   OH231620   3.192   5.954  16.350 -0.3035  0.3808 -0.0092
 3402TIP3    H131621   3.229   6.034  16.314 -1.2408  1.5097  1.5026
 3402TIP3    H231622   3.119   5.932  16.292  0.3357  0.2542 -0.7795
 3403TIP3   OH231623   6.559   1.133  17.214 -0.5996 -0.4060  0.2550
 3403TIP3    H131624   6.478   1.131  17.163 -0.9304 -0.3111  0.7775
 3403TIP3    H231625   6.628   1.118  17.149 -1.1362 -1.9546  0.0201
 3404TIP3   OH231626   0.149   1.314  17.053 -0.7261  0.2412 -0.2401
 3404TIP3    H131627   0.169   1.253  17.124 -2.2284  1.0222  0.8838
 3404TIP3    H231628   0.233   1.353  17.030 -0.3286  0.5819  1.6940
 3405TIP3   OH231629   5.921   1.284  14.098 -0.4372 -0.1894  0.6325
 3405TIP3    H131630   5.922   1.216  14.031  0.7372 -0.3028  0.7598
 3405TIP3    H231631   5.963   1.243  14.174 -0.3588  0.4591  0.9378
 3406TIP3   OH231632   4.735   3.532  15.415 -0.0337 -0.2718  0.2044
 3406TIP3    H131633   4.731   3.465  15.483 -1.4552 -0.1391  0.2611
 3406TIP3    H231634   4.667   3.508  15.353  2.2600 -1.2674 -2.0226
 3407TIP3   OH231635   5.517   2.478  16.564 -0.0812  0.1355  0.4825
 3407TIP3    H131636   5.604   2.438  16.560  0.0859  0.6703 -1.3876
 3407TIP3    H231637   5.528   2.552  16.623  1.0072  0.8546 -0.6102
 3408TIP3   OH231638   1.780   1.311   3.488  0.3430  0.2714 -0.0013
 3408TIP3    H131639   1.848   1.361   3.443  0.6634  1.6316  1.9512
 3408TIP3    H231640   1.714   1.376   3.513 -0.8765 -0.7919 -0.3919
 3409TIP3   OH231641   6.243   1.197   3.028  0.0337  0.2558 -0.4126
 3409TIP3    H131642   6.336   1.194   3.005  0.0138  1.3909 -0.6981
 3409TIP3    H231643   6.212   1.108   3.014  0.7191  0.2311 -1.8448
 3410TIP3   OH231644   6.456   5.138   1.009  0.1862 -1.0777 -0.3683
 3410TIP3    H131645   6.464   5.195   0.932 -2.7507  0.1654  0.1842
 3410TIP3    H231646   6.436   5.052   0.973 -0.6469 -0.6192 -1.0275
 3411TIP3   OH231647   1.606   6.583  11.847 -0.1908 -0.1625 -0.3241
 3411TIP3    H131648   1.510   6.584  11.855 -0.0891  1.0702  0.7624
 3411TIP3    H231649   1.626   6.657  11.790  0.0439 -1.0916 -1.4639
 3412TIP3   OH231650   0.573   2.335   0.307 -0.0118  0.0237 -0.1740
 3412TIP3    H131651   0.531   2.415   0.337  1.1237  0.7868 -0.6044
 3412TIP3    H231652   0.662   2.361   0.285 -0.3609 -0.7958 -2.8083
 3413TIP3   OH231653   6.376   6.152  15.094  0.1519 -0.4845 -0.9363
 3413TIP3    H131654   6.439   6.104  15.040 -0.4944 -0.6527 -1.5336
 3413TIP3    H231655   6.420   6.235  15.113 -0.0452  0.0045 -2.5951
 3414TIP3   OH231656   2.577   5.754  10.823 -0.4122 -0.2998  1.0702
 3414TIP3    H131657   2.615   5.667  10.811  0.0364  0.1141 -0.5448
 3414TIP3    H231658   2.649   5.806  10.859  0.3281  0.2394 -1.1002
 3415TIP3   OH231659   3.559   5.311  17.114  0.3848 -0.2680  0.3253
 3415TIP3    H131660   3.629   5.316  17.049 -1.2703 -1.4324 -1.5846
 3415TIP3    H231661   3.573   5.228  17.158 -0.1087 -0.7725 -0.4532
 3416TIP3   OH231662   5.246   5.611   2.883 -0.8709  0.4595  0.2176
 3416TIP3    H131663   5.153   5.596   2.897 -1.1004  0.6148 -1.1106
 3416TIP3    H231664   5.255   5.706   2.878 -1.3591  0.3936 -4.1504
 3417TIP3   OH231665   0.445   2.133  13.581  0.4025 -0.2151  0.2913
 3417TIP3    H131666   0.470   2.074  13.509  1.5397  1.4892 -0.7526
 3417TIP3    H231667   0.421   2.215  13.537 -0.6097  0.2877  1.7603
 3418TIP3   OH231668   2.015   2.610  13.135 -0.4355 -0.1867 -0.1376
 3418TIP3    H131669   1.953   2.680  13.153 -0.2113  0.6122 -2.4137
 3418TIP3    H231670   2.042   2.580  13.222 -1.8230  1.3726  0.8653
 3419TIP3   OH231671   2.410   2.093   6.317 -0.7253  0.1462 -0.1270
 3419TIP3    H131672   2.463   2.014   6.303  0.7587  1.5969 -3.1424
 3419TIP3    H231673   2.458   2.144   6.382  1.1425  0.9674 -2.0782
 3420TIP3   OH231674   5.705   6.779  13.963  0.6746  0.0875 -0.3310
 3420TIP3    H131675   5.628   6.776  13.906  0.6372 -0.8669 -0.2390
 3420TIP3    H231676   5.762   6.844  13.922 -0.0458  0.5810 -0.5699
 3421TIP3   OH231677   1.249   1.324   5.166  0.9585  0.0467  0.3068
 3421TIP3    H131678   1.298   1.264   5.222 -2.4535 -1.0045  2.3210
 3421TIP3    H231679   1.228   1.398   5.223 -0.6877 -0.0207 -0.2025
 3422TIP3   OH231680   2.441   6.518   3.679  0.0376  0.3624 -0.3178
 3422TIP3    H131681   2.517   6.553   3.726 -0.3634 -0.7342  1.1690
 3422TIP3    H231682   2.425   6.433   3.719 -2.4794  0.9273 -0.0293
 3423TIP3   OH231683   4.428   0.356   4.173 -0.1628  0.4374  0.2762
 3423TIP3    H131684   4.358   0.307   4.130 -2.1531  3.1963  0.2719
 3423TIP3    H231685   4.441   0.433   4.118  1.6299  0.8685  1.2538
 3424TIP3   OH231686   4.132   2.738   2.258 -0.5782 -0.0490 -0.3099
 3424TIP3    H131687   4.123   2.832   2.270  1.0065  0.1250 -0.3421
 3424TIP3    H231688   4.187   2.729   2.180  1.0923 -0.9321  0.9147
 3425TIP3   OH231689   6.683   6.589   1.911 -0.1594 -0.7903 -0.4794
 3425TIP3    H131690   6.692   6.663   1.970  1.2182 -0.6897 -0.7982
 3425TIP3    H231691   6.670   6.627   1.825  2.4667 -0.8626 -0.9499
 3426TIP3   OH231692   5.109   2.866  13.774 -0.2941 -0.7535  0.7951
 3426TIP3    H131693   5.086   2.941  13.828  1.8937  0.4420  0.1219
 3426TIP3    H231694   5.114   2.793  13.836 -0.6727  0.0006  1.7346
 3427TIP3   OH231695   4.321   4.836   4.489  0.8527  0.1345  0.1926
 3427TIP3    H131696   4.299   4.928   4.480 -0.2340 -0.2359 -1.0955
 3427TIP3    H231697   4.256   4.801   4.550  2.2116  0.5326  1.9109
 3428TIP3   OH231698   5.479   6.329  15.632  0.1486 -0.5364 -0.6682
 3428TIP3    H131699   5.544   6.345  15.700  0.2720 -0.9774 -0.6821
 3428TIP3    H231700   5.395   6.327  15.678  0.1456 -0.0125 -0.6444
 3429TIP3   OH231701   2.395   3.347  13.763 -0.3586  0.3175 -0.4500
 3429TIP3    H131702   2.427   3.258  13.749 -3.2137 -0.6838 -1.0638
 3429TIP3    H231703   2.414   3.394  13.682 -2.0387 -0.7966 -1.5284
 3430TIP3   OH231704   0.417   3.818   2.853 -0.0636  0.1891  0.2109
 3430TIP3    H131705   0.400   3.794   2.762 -1.0875 -0.5911  0.6005
 3430TIP3    H231706   0.390   3.742   2.904  0.5291  0.6082  1.1786
 3431TIP3   OH231707   2.638   4.048  15.309  0.2771  0.6809  0.3515
 3431TIP3    H131708   2.708   4.010  15.256 -0.6783 -2.7925  1.4540
 3431TIP3    H231709   2.621   4.133  15.269  1.6590 -0.5590 -3.0373
 3432TIP3   OH231710   1.960   2.958   2.900 -0.1748 -0.3463 -0.1603
 3432TIP3    H131711   1.928   2.868   2.904  1.1164 -0.7378  1.8738
 3432TIP3    H231712   2.055   2.950   2.897 -0.0110  0.9607  0.9508
 3433TIP3   OH231713   3.186   2.686   1.602  0.4091  0.2186  0.7560
 3433TIP3    H131714   3.217   2.596   1.613 -0.9455 -0.1309  1.8625
 3433TIP3    H231715   3.225   2.734   1.675  0.5371  0.3756  0.5861
 3434TIP3   OH231716   1.802   2.931   0.928 -0.0834 -0.1474  0.1556
 3434TIP3    H131717   1.809   2.953   0.835  0.7179  1.4813  0.5708
 3434TIP3    H231718   1.725   2.874   0.934  0.9751 -1.8209 -1.7583
 3435TIP3   OH231719   4.859   6.526  10.775 -0.4090  0.2406  0.3898
 3435TIP3    H131720   4.850   6.536  10.680  0.2895  1.1260  0.4148
 3435TIP3    H231721   4.933   6.581  10.798  0.4799 -1.2724  1.2276
 3436TIP3   OH231722   4.909   4.704   5.497 -0.5197  0.2242 -0.4304
 3436TIP3    H131723   4.950   4.646   5.561  2.0176 -0.4978 -2.6378
 3436TIP3    H231724   4.824   4.664   5.480  0.7315 -2.2456 -1.0571
 3437TIP3   OH231725   2.072   5.729   3.627  0.3769 -0.0014  0.4888
 3437TIP3    H131726   2.048   5.639   3.649 -0.4731 -0.3777 -1.8608
 3437TIP3    H231727   1.991   5.779   3.641  0.3803  0.1054  0.1102
 3438TIP3   OH231728   6.446   6.236  13.898  0.1983  0.1987  0.5487
 3438TIP3    H131729   6.476   6.314  13.852 -0.1478  1.0159  1.6873
 3438TIP3    H231730   6.502   6.232  13.976  1.0577 -1.3934 -0.1362
 3439TIP3   OH231731   5.558   4.718  13.387  0.3207 -0.1874  0.2120
 3439TIP3    H131732   5.538   4.768  13.466  2.3480  1.4262 -0.2302
 3439TIP3    H231733   5.625   4.656  13.413  1.0189  0.3695 -0.2172
 3440TIP3   OH231734   3.087   6.035  13.791 -0.3857 -0.1104 -0.0604
 3440TIP3    H131735   3.159   6.095  13.768 -0.3975 -0.6098 -1.4415
 3440TIP3    H231736   3.109   5.953  13.748 -0.5399 -1.0296  1.5573
 3441TIP3   OH231737   5.073   6.726  15.124  0.7804  0.1308 -0.1044
 3441TIP3    H131738   5.083   6.804  15.178 -1.2021  1.0862 -1.0280
 3441TIP3    H231739   4.978   6.712  15.120  0.9613 -0.7082 -2.1763
 3442TIP3   OH231740   2.894   6.373  16.452 -0.1149 -0.1508 -0.2932
 3442TIP3    H131741   2.846   6.309  16.505  0.8310  0.0224  0.8036
 3442TIP3    H231742   2.840   6.386  16.375 -2.4632  0.9534  1.4510
 3443TIP3   OH231743   0.106   4.432   0.790  0.1039 -0.4676 -0.2333
 3443TIP3    H131744   0.084   4.383   0.711  2.0427 -1.2928 -0.2987
 3443TIP3    H231745   0.179   4.383   0.829 -0.2478  0.4096  1.6028
 3444TIP3   OH231746   6.433   5.853   0.596 -0.5959  0.2110 -0.3756
 3444TIP3    H131747   6.352   5.831   0.642 -0.3076 -2.7417 -1.1246
 3444TIP3    H231748   6.500   5.853   0.665 -1.1360  2.3523  0.1942
 3445TIP3   OH231749   1.863   1.769  16.497  0.5169 -0.6900  0.2362
 3445TIP3    H131750   1.821   1.844  16.539  0.8707 -0.3743  0.0351
 3445TIP3    H231751   1.820   1.762  16.412  0.2920 -0.8814  0.3662
 3446TIP3   OH231752   0.189   3.923  16.932 -0.3491 -0.5438 -0.1342
 3446TIP3    H131753   0.212   3.962  16.847 -1.5239  1.5992  0.5152
 3446TIP3    H231754   0.139   3.990  16.977  0.8026 -1.4222  2.5550
 3447TIP3   OH231755   0.204   4.190   4.314 -0.4977  0.1776 -0.1486
 3447TIP3    H131756   0.231   4.251   4.246 -0.5791 -0.7447 -1.0152
 3447TIP3    H231757   0.119   4.222   4.343 -0.4647  0.5721 -0.4902
 3448TIP3   OH231758   1.455   1.763  17.230 -0.1271  0.0328  0.1915
 3448TIP3    H131759   1.543   1.780  17.195 -0.8553  0.3915 -1.5109
 3448TIP3    H231760   1.401   1.745  17.153 -1.6545  0.2708  1.1820
 3449TIP3   OH231761   2.504   4.731  12.232 -0.1771 -0.7021 -0.8236
 3449TIP3    H131762   2.562   4.663  12.198  1.2800  0.1530 -0.0731
 3449TIP3    H231763   2.496   4.712  12.325  0.8936  0.6005 -0.4470
 3450TIP3   OH231764   4.346   4.808   1.767  0.3958 -0.0318 -0.4680
 3450TIP3    H131765   4.314   4.869   1.833 -1.4623 -0.6008 -0.8119
 3450TIP3    H231766   4.415   4.857   1.721 -0.6400  1.5951 -0.3396
 3451TIP3   OH231767   5.845   4.365  16.259  0.0583 -0.0937 -0.1344
 3451TIP3    H131768   5.769   4.405  16.217 -0.3502 -1.4562 -0.7235
 3451TIP3    H231769   5.919   4.418  16.231 -0.7735  1.8932  1.2856
 3452TIP3   OH231770   0.887   2.729   0.469  0.0353  0.2599 -0.1984
 3452TIP3    H131771   0.893   2.647   0.420  2.8879 -0.2734  0.9488
 3452TIP3    H231772   0.855   2.702   0.555 -1.7504  0.7541 -0.6902
 3453TIP3   OH231773   2.000   6.345  12.820  0.3324  0.1395 -0.0337
 3453TIP3    H131774   2.086   6.312  12.795  0.2648 -0.2684  0.2566
 3453TIP3    H231775   1.941   6.314  12.750  0.5346  0.9908 -0.5816
 3454TIP3   OH231776   1.017   5.380  11.933  0.2201 -0.0418  0.2441
 3454TIP3    H131777   0.985   5.441  12.000 -0.8294  2.3168 -2.3077
 3454TIP3    H231778   0.955   5.308  11.935 -0.5599  0.6338  0.9458
 3455TIP3   OH231779   2.382   5.946   6.050 -0.4683 -0.2941  0.1488
 3455TIP3    H131780   2.289   5.943   6.072 -0.3264  0.3823  0.8505
 3455TIP3    H231781   2.423   5.889   6.115 -0.5706 -1.9008 -1.1588
 3456TIP3   OH231782   2.343   2.660   2.458 -0.1882 -0.1948 -0.0393
 3456TIP3    H131783   2.346   2.565   2.449 -2.0325 -0.2393 -0.2348
 3456TIP3    H231784   2.254   2.679   2.486  0.4794  1.3968  1.0804
 3457TIP3   OH231785   0.291   4.478   4.087  0.0361  0.4485  0.6681
 3457TIP3    H131786   0.297   4.568   4.053  1.4251  0.2932  0.4662
 3457TIP3    H231787   0.233   4.485   4.162 -0.1625  1.4553  0.4288
 3458TIP3   OH231788   4.312   1.006   2.001  0.0165 -0.0767  0.0027
 3458TIP3    H131789   4.330   0.937   1.937 -2.2721 -0.6139 -0.0762
 3458TIP3    H231790   4.260   1.071   1.954 -1.6139 -0.4285  1.2762
 3459TIP3   OH231791   3.569   1.118   2.828  0.1833 -0.8333  0.2074
 3459TIP3    H131792   3.478   1.149   2.827  0.1240 -0.9879  0.8168
 3459TIP3    H231793   3.612   1.172   2.895  0.2457 -1.6038  0.7828
 3460TIP3   OH231794   2.792   2.480   1.473  0.0901  0.2723 -0.8952
 3460TIP3    H131795   2.792   2.419   1.547  0.2608  0.8711 -0.3916
 3460TIP3    H231796   2.884   2.502   1.461 -0.0258  0.9011 -0.6713
 3461TIP3   OH231797   2.721   2.398  16.262  0.1242  0.2043  0.5228
 3461TIP3    H131798   2.689   2.469  16.318 -0.4460 -1.0613  1.8271
 3461TIP3    H231799   2.658   2.327  16.274  1.9955 -1.4099  1.1079
 3462TIP3   OH231800   1.755   1.872  13.615  0.1080  0.1378 -0.3257
 3462TIP3    H131801   1.749   1.961  13.582 -0.2617  0.2681  0.0972
 3462TIP3    H231802   1.671   1.832  13.594  0.1073  0.0261 -0.1168
 3463TIP3   OH231803   1.623   4.310  15.804 -0.0616  0.1854  0.4067
 3463TIP3    H131804   1.578   4.275  15.881  1.2163  1.5552  1.8284
 3463TIP3    H231805   1.698   4.359  15.840  0.4414  1.0423 -1.6946
 3464TIP3   OH231806   2.490   1.389  11.721  0.2921  0.5831  0.5777
 3464TIP3    H131807   2.519   1.303  11.752 -1.0523 -0.5512 -1.2408
 3464TIP3    H231808   2.436   1.371  11.644  0.7307  3.1223 -0.3862
 3465TIP3   OH231809   1.502   0.500   1.395  0.2403  0.2359 -0.1753
 3465TIP3    H131810   1.446   0.530   1.467  1.6475  1.4671  0.4329
 3465TIP3    H231811   1.496   0.569   1.330  2.3338  1.1980  0.6040
 3466TIP3   OH231812   4.779   0.519  13.234  0.2987 -0.1802  0.6970
 3466TIP3    H131813   4.716   0.478  13.293  0.5415 -0.9850  0.3950
 3466TIP3    H231814   4.757   0.612  13.237 -0.5509 -0.3873  1.0252
 3467TIP3   OH231815   4.645   2.934   3.062 -0.0088 -0.1384  0.6857
 3467TIP3    H131816   4.687   2.972   3.140  2.2016 -0.7220 -0.1623
 3467TIP3    H231817   4.593   3.005   3.026  0.4808  0.7232  1.6383
 3468TIP3   OH231818   5.425   1.218   3.155  0.2310 -0.0691 -0.0334
 3468TIP3    H131819   5.389   1.306   3.168 -0.6559 -0.4006 -0.1526
 3468TIP3    H231820   5.484   1.227   3.081 -0.3568  0.2951 -0.4646
 3469TIP3   OH231821   4.576   5.727   0.421  0.5055 -0.4160 -0.1014
 3469TIP3    H131822   4.490   5.756   0.392  1.1002  0.8922 -0.6102
 3469TIP3    H231823   4.590   5.770   0.505  0.6755 -0.5776 -0.0460
 3470TIP3   OH231824   6.168   6.100   1.951  0.5702  0.5829 -0.0963
 3470TIP3    H131825   6.191   6.060   2.034 -0.8006 -0.4539 -0.2016
 3470TIP3    H231826   6.251   6.129   1.914  1.4683 -1.2263  0.4710
 3471TIP3   OH231827   2.218   5.587  11.046 -0.2209 -0.5107 -0.5779
 3471TIP3    H131828   2.198   5.675  11.015  0.6976 -0.5438 -1.2782
 3471TIP3    H231829   2.242   5.598  11.138 -1.8881 -0.2716 -0.1615
 3472TIP3   OH231830   6.209   4.800  17.175  0.1425 -0.4623  0.2209
 3472TIP3    H131831   6.143   4.737  17.145  1.6458 -1.6152 -0.7225
 3472TIP3    H231832   6.171   4.885  17.156 -1.0845 -1.1116 -0.2914
 3473TIP3   OH231833   2.322   2.687  11.822  0.2949 -0.0858  0.3815
 3473TIP3    H131834   2.352   2.614  11.767 -0.0724 -1.0078  1.3973
 3473TIP3    H231835   2.296   2.755  11.759  4.5180  0.7957 -0.5677
 3474TIP3   OH231836   1.172   0.384  12.146  0.3354 -0.0567  0.2318
 3474TIP3    H131837   1.080   0.404  12.128  0.2234 -3.2207 -3.2820
 3474TIP3    H231838   1.215   0.386  12.061  1.7459 -6.5140  0.4967
 3475TIP3   OH231839   3.055   4.985   3.053  0.0942  0.3982  0.1845
 3475TIP3    H131840   2.960   4.985   3.067  0.1093  0.0135  0.3224
 3475TIP3    H231841   3.087   5.061   3.102 -0.0297 -0.0668  1.0134
 3476TIP3   OH231842   0.744   6.658  16.815  0.0110  0.1437  0.1275
 3476TIP3    H131843   0.725   6.577  16.862 -0.5632  0.1975 -0.0078
 3476TIP3    H231844   0.836   6.651  16.790 -0.0862 -0.5426 -0.0295
 3477TIP3   OH231845   3.809   2.237   3.798  0.0791  0.0845 -0.7712
 3477TIP3    H131846   3.776   2.234   3.888 -0.9075 -2.4604 -1.1604
 3477TIP3    H231847   3.730   2.230   3.744  0.6961  1.2582 -1.8392
 3478TIP3   OH231848   1.029   2.661   1.959  0.2757  0.0232  0.4147
 3478TIP3    H131849   1.078   2.664   1.876 -1.1044  0.6574 -0.3844
 3478TIP3    H231850   1.036   2.570   1.987  3.6869  0.5078  1.4044
 3479TIP3   OH231851   3.206   3.632   0.047  0.3546 -0.0551  0.4224
 3479TIP3    H131852   3.137   3.621   0.112 -0.1810 -1.3419 -0.3583
 3479TIP3    H231853   3.286   3.642   0.099 -0.4636  2.0010  1.3394
 3480TIP3   OH231854   0.446   5.269   2.915 -0.6173  0.0356  0.2212
 3480TIP3    H131855   0.535   5.302   2.902 -0.2774 -0.6395  0.8523
 3480TIP3    H231856   0.425   5.290   3.006 -0.0397 -2.3376  0.9185
 3481TIP3   OH231857   4.193   0.346   2.290  0.3150 -0.2134  0.1009
 3481TIP3    H131858   4.126   0.414   2.300  0.1811 -0.3012 -0.2122
 3481TIP3    H231859   4.242   0.349   2.372  0.6531  0.6402 -0.1295
 3482TIP3   OH231860   0.813   0.604  15.658 -0.0290  0.3349  0.0083
 3482TIP3    H131861   0.768   0.666  15.602 -0.5278  0.9639  1.0988
 3482TIP3    H231862   0.906   0.613  15.634  0.0250  2.2015  0.8358
 3483TIP3   OH231863   1.688   6.438   2.023 -0.0873 -0.2019 -0.9332
 3483TIP3    H131864   1.651   6.507   2.078  1.3723  0.8385 -1.2288
 3483TIP3    H231865   1.717   6.483   1.944  1.6675 -0.9784 -0.7710
 3484TIP3   OH231866   1.102   1.653  15.211  0.2266  0.1258  0.0560
 3484TIP3    H131867   1.041   1.653  15.285  1.5862  0.3797  1.2066
 3484TIP3    H231868   1.175   1.599  15.241  0.0000 -1.2495 -1.7951
 3485TIP3   OH231869   2.664   6.048  14.322  0.3376 -0.4788 -0.2716
 3485TIP3    H131870   2.569   6.060  14.319  0.0907 -2.4794 -1.8568
 3485TIP3    H231871   2.693   6.068  14.233  1.6355  1.6318  0.5839
 3486TIP3   OH231872   3.970   5.227   4.430  0.0121 -0.0393 -0.8447
 3486TIP3    H131873   3.880   5.194   4.431 -0.1511  0.4063 -0.4507
 3486TIP3    H231874   4.015   5.177   4.497  0.2587 -0.8018 -1.5692
 3487TIP3   OH231875   3.989   3.061  11.935 -0.2856  0.4353  0.1954
 3487TIP3    H131876   3.988   3.149  11.897  0.7307  0.8611  1.1149
 3487TIP3    H231877   3.946   3.071  12.020  3.9415  1.1054  2.4084
 3488TIP3   OH231878   0.579   0.872  16.756 -0.1793  0.2450 -0.6749
 3488TIP3    H131879   0.613   0.961  16.768 -1.8200  1.0935 -2.2238
 3488TIP3    H231880   0.527   0.856  16.835  1.0712  0.1877  0.1617
 3489TIP3   OH231881   1.999   3.597  16.621 -0.4718  0.0834  0.7063
 3489TIP3    H131882   1.984   3.605  16.526 -0.3613 -2.7035  0.3989
 3489TIP3    H231883   1.987   3.685  16.655  0.0060  1.2339 -1.9895
 3490TIP3   OH231884   4.931   4.625   0.925 -0.0859 -0.0779  0.7795
 3490TIP3    H131885   4.955   4.638   1.016 -1.5053  1.1259  1.0115
 3490TIP3    H231886   4.871   4.550   0.926 -0.3885  0.1631  0.8943
 3491TIP3   OH231887   0.236   6.639   2.756  0.3768  0.2722  0.2452
 3491TIP3    H131888   0.187   6.698   2.814 -0.1882  0.2503 -0.1926
 3491TIP3    H231889   0.264   6.567   2.811 -0.0329  0.3227  0.5209
 3492TIP3   OH231890   4.529   6.091  12.782 -0.1822  0.0657 -0.1344
 3492TIP3    H131891   4.590   6.030  12.824  0.0197  0.6151  0.3724
 3492TIP3    H231892   4.585   6.153  12.735 -0.3048  1.1270  1.0913
 3493TIP3   OH231893   4.377   6.719  16.098 -0.0948  0.1894  0.5657
 3493TIP3    H131894   4.468   6.709  16.068 -0.0920  0.3725  0.5171
 3493TIP3    H231895   4.332   6.761  16.025  0.2015  1.8443  1.3267
 3494TIP3   OH231896   0.837   5.302   4.780 -0.2252 -0.1875 -0.1882
 3494TIP3    H131897   0.868   5.261   4.860  1.0716  0.8595 -0.1290
 3494TIP3    H231898   0.746   5.275   4.773  0.8347 -3.8869 -0.7089
 3495TIP3   OH231899   4.115   0.971   4.459  0.2075  0.2432 -0.0502
 3495TIP3    H131900   4.201   0.940   4.488 -0.2197 -0.5637  0.3622
 3495TIP3    H231901   4.089   1.035   4.525  0.4524  0.4157 -0.1221
 3496TIP3   OH231902   4.195   4.687  17.073 -0.5517 -0.0581  0.1431
 3496TIP3    H131903   4.187   4.601  17.115 -0.2843  0.2436  0.8064
 3496TIP3    H231904   4.152   4.675  16.988 -1.1839 -0.6454  0.5289
 3497TIP3   OH231905   3.801   1.608   5.042  0.3472 -0.1775 -0.5263
 3497TIP3    H131906   3.841   1.626   5.127 -0.3557 -0.3082 -0.1569
 3497TIP3    H231907   3.726   1.552   5.064 -0.2089  0.3219 -1.1687
 3498TIP3   OH231908   0.116   6.454   2.486  0.9262 -0.3068  0.1055
 3498TIP3    H131909   0.143   6.395   2.556  0.1041 -0.8906 -0.0637
 3498TIP3    H231910   0.114   6.400   2.408  0.6592  0.0558 -0.1425
 3499TIP3   OH231911   4.349   3.266   1.081 -0.3689  0.0528 -0.2958
 3499TIP3    H131912   4.388   3.232   1.162  1.1696  0.5809 -0.7952
 3499TIP3    H231913   4.255   3.248   1.090  0.0098 -1.4677  0.8337
 3500TIP3   OH231914   4.937   2.729   2.631 -0.1222  0.7722 -0.0000
 3500TIP3    H131915   4.999   2.674   2.679  0.8113  0.4729 -1.5077
 3500TIP3    H231916   4.867   2.746   2.693  1.0836  0.4406  1.4813
 3501TIP3   OH231917   0.141   2.023  13.051  0.2207  0.1743 -0.8548
 3501TIP3    H131918   0.136   2.063  13.138 -0.4597 -1.0663 -0.3142
 3501TIP3    H231919   0.189   1.941  13.064  0.9161  0.4218 -1.8153
 3502TIP3   OH231920   0.668   4.838   3.851 -0.0286 -0.0145 -0.3772
 3502TIP3    H131921   0.687   4.876   3.937  2.1697 -0.0531 -0.8364
 3502TIP3    H231922   0.701   4.748   3.857  1.6636  0.4830 -1.7970
 3503TIP3   OH231923   2.535   0.030  14.533  0.1716 -0.0222 -0.6062
 3503TIP3    H131924   2.538  -0.042  14.470  0.2322  0.9404 -1.7187
 3503TIP3    H231925   2.553   0.109  14.481  0.6095  0.7469  0.6793
 3504TIP3   OH231926   4.094   3.877   2.303 -0.4797 -0.0336 -0.5460
 3504TIP3    H131927   4.166   3.931   2.271  1.5784 -2.8365 -0.8777
 3504TIP3    H231928   4.050   3.847   2.223 -2.0423  1.6600 -0.3431
 3505TIP3   OH231929   3.791   1.010   4.734 -0.2419  0.2455 -0.4205
 3505TIP3    H131930   3.834   1.076   4.680 -0.7887  0.7182 -0.2850
 3505TIP3    H231931   3.715   0.983   4.683 -3.0329  3.5864  1.7719
 3506TIP3   OH231932   0.438   0.623   3.342 -0.2215  0.7251  0.1385
 3506TIP3    H131933   0.358   0.604   3.392 -0.6892  1.8452 -0.1579
 3506TIP3    H231934   0.451   0.717   3.354  0.1555  0.8343 -1.1263
 3507TIP3   OH231935   4.399   0.108  16.764  0.3305 -0.2862 -0.0756
 3507TIP3    H131936   4.363   0.084  16.679 -0.9911 -1.4443  0.7982
 3507TIP3    H231937   4.339   0.175  16.798  0.0196 -0.8827  0.5720
 3508TIP3   OH231938   2.952   4.798  15.659  0.0561  0.2505 -0.2191
 3508TIP3    H131939   2.859   4.819  15.656  0.6798  3.0393 -2.5465
 3508TIP3    H231940   2.985   4.847  15.735 -0.0397  0.7975 -0.5276
 3509TIP3   OH231941   0.026   3.470  13.856 -0.0798 -0.0846 -0.3243
 3509TIP3    H131942   0.003   3.508  13.771 -0.5473  1.1420  0.3446
 3509TIP3    H231943  -0.018   3.385  13.857  0.2343 -0.2725 -1.4555
 3510TIP3   OH231944   0.237   4.161   2.707 -0.2581 -0.2537 -0.0629
 3510TIP3    H131945   0.321   4.146   2.751 -0.2287  0.2714  0.0670
 3510TIP3    H231946   0.235   4.255   2.691 -1.3832 -0.0748  1.0613
 3511TIP3   OH231947   2.212   0.279   3.914 -0.1641  0.1032  0.0583
 3511TIP3    H131948   2.243   0.319   3.833 -0.5961  2.8204  1.1790
 3511TIP3    H231949   2.124   0.248   3.894 -0.0925  0.3661 -0.6586
 3512TIP3   OH231950   4.024   5.078   3.206 -0.1009 -0.5324  0.1410
 3512TIP3    H131951   4.048   5.064   3.298  0.7277  0.3502  0.0793
 3512TIP3    H231952   4.055   4.999   3.161  1.1705 -0.1578  0.3399
 3513TIP3   OH231953   6.739   0.146   3.922 -0.0015 -0.3014  0.0718
 3513TIP3    H131954   6.645   0.163   3.923  0.0180 -0.1746 -0.3230
 3513TIP3    H231955   6.751   0.075   3.985 -0.7344 -2.2188 -1.8929
 3514TIP3   OH231956   5.883   0.826  11.322  0.1975 -0.0431  0.2143
 3514TIP3    H131957   5.951   0.769  11.288  0.0977  0.6749 -1.2075
 3514TIP3    H231958   5.801   0.781  11.301 -0.0003  1.6496 -2.9883
 3515TIP3   OH231959   3.023   3.919  15.511 -0.0204  0.5715  0.3242
 3515TIP3    H131960   3.035   3.938  15.418 -0.9453  2.7066  0.6211
 3515TIP3    H231961   2.936   3.881  15.517  0.0307  0.4541  0.3279
 3516TIP3   OH231962   2.808   0.643  15.983  0.1376 -0.5810  0.2044
 3516TIP3    H131963   2.895   0.635  15.945 -0.3777  1.0121 -1.3659
 3516TIP3    H231964   2.823   0.639  16.078  1.8149 -1.1335 -0.0645
 3517TIP3   OH231965   2.288   1.410   3.433  1.0169 -0.1170  0.3995
 3517TIP3    H131966   2.343   1.376   3.504 -0.9158  0.2251  2.0915
 3517TIP3    H231967   2.272   1.334   3.377  0.9014 -0.8459  1.4151
 3518TIP3   OH231968   6.069   5.093   5.312 -0.4933 -0.5694 -0.0021
 3518TIP3    H131969   6.096   5.154   5.244 -1.2957 -0.8613 -0.5833
 3518TIP3    H231970   6.060   5.147   5.391  2.2265 -0.5393  0.3336
 3519TIP3   OH231971   3.998   1.854   3.647 -0.2516 -0.4298 -0.2096
 3519TIP3    H131972   4.052   1.781   3.677  1.3056  0.4120 -0.8650
 3519TIP3    H231973   3.990   1.911   3.724  1.8560  0.6229 -0.7182
 3520TIP3   OH231974   0.091   0.866   5.908 -0.2293 -0.1126  0.7418
 3520TIP3    H131975   0.028   0.851   5.978 -1.1205  0.7676  0.1490
 3520TIP3    H231976   0.126   0.954   5.925  1.0069 -0.6785  1.1863
 3521TIP3   OH231977   0.100   0.345   2.272 -0.1187  0.0799 -0.0687
 3521TIP3    H131978   0.171   0.312   2.217 -1.0785 -1.6860 -0.2895
 3521TIP3    H231979   0.066   0.421   2.224  1.6642  0.9950  0.0912
 3522TIP3   OH231980   6.293   2.703  13.307  0.5017  0.4037 -0.6024
 3522TIP3    H131981   6.307   2.709  13.212 -0.7183 -0.0557 -0.8220
 3522TIP3    H231982   6.372   2.742  13.345  1.0746  0.4573 -1.8017
 3523TIP3   OH231983   5.956   2.899  12.567 -0.2958  0.6755  0.2433
 3523TIP3    H131984   6.024   2.924  12.504  0.0413 -0.3760  0.1776
 3523TIP3    H231985   5.921   2.983  12.599 -0.6832  1.2434 -1.5512
 3524TIP3   OH231986   5.481   1.068  15.280  0.4615  0.5797  0.8102
 3524TIP3    H131987   5.444   1.081  15.193  2.2406 -0.0840 -0.0637
 3524TIP3    H231988   5.560   1.122  15.281  0.6316  0.3360  1.9167
 3525TIP3   OH231989   4.159   3.059   5.446 -0.2598  0.5996  0.0771
 3525TIP3    H131990   4.178   2.966   5.463  1.4988  0.7474 -0.9008
 3525TIP3    H231991   4.222   3.106   5.501 -0.1242  1.1820 -0.5723
 3526TIP3   OH231992   3.226   0.784   0.037  0.2107  0.5277 -0.4666
 3526TIP3    H131993   3.165   0.748   0.101  0.8360  0.6783  0.2179
 3526TIP3    H231994   3.179   0.858  -0.002 -0.0601  0.6205  0.0286
 3527TIP3   OH231995   2.131   2.977   2.480  0.5782 -0.0947  0.1341
 3527TIP3    H131996   2.105   2.897   2.525 -1.6340  1.0628  0.9624
 3527TIP3    H231997   2.200   3.014   2.535 -1.3889  0.7691  2.1208
 3528TIP3   OH231998   0.385   2.804  15.778  0.4055  0.1593 -0.2231
 3528TIP3    H131999   0.325   2.763  15.840  0.4036  1.7781  0.8896
 3528TIP3    H232000   0.333   2.815  15.698  0.8484 -3.2768 -1.0392
 3529TIP3   OH232001   5.657   4.892   1.571  0.1675  0.0952  0.0814
 3529TIP3    H132002   5.603   4.947   1.628  0.8845 -0.7516  1.6168
 3529TIP3    H232003   5.627   4.803   1.588  0.9522 -0.2384 -0.2481
 3530TIP3   OH232004   2.936   6.523  13.050 -0.6747  0.1550  0.5742
 3530TIP3    H132005   2.988   6.600  13.074 -0.0805 -0.2392  0.5689
 3530TIP3    H232006   3.000   6.461  13.013 -1.3712  0.2418 -0.8145
 3531TIP3   OH232007   4.882   3.338  16.719 -0.3979  0.7532 -0.0891
 3531TIP3    H132008   4.890   3.427  16.687 -0.6470  0.6611 -0.4030
 3531TIP3    H232009   4.880   3.284  16.640 -1.2581  0.5490  0.0710
 3532TIP3   OH232010   1.791   4.094  16.806 -0.0713 -0.5459  0.1179
 3532TIP3    H132011   1.733   4.051  16.743  2.1596 -1.8007 -1.1369
 3532TIP3    H232012   1.845   4.153  16.752  0.7824 -0.4517  1.0684
 3533TIP3   OH232013   6.093   2.928   2.460  0.2179 -0.3431 -0.1126
 3533TIP3    H132014   6.182   2.912   2.430  0.4757  0.8000  0.0068
 3533TIP3    H232015   6.067   3.009   2.416 -1.0402 -1.0615 -0.7299
 3534TIP3   OH232016   2.773   3.520  14.479  0.3088  0.9719  0.0486
 3534TIP3    H132017   2.824   3.594  14.512  1.5600  0.0251  0.2745
 3534TIP3    H232018   2.816   3.496  14.397 -0.0108  0.4248  0.0388
 3535TIP3   OH232019   1.917   1.591  11.285 -0.2007  0.0689 -0.3983
 3535TIP3    H132020   1.946   1.675  11.248 -0.4949 -0.7788 -2.5988
 3535TIP3    H232021   1.951   1.525  11.225 -0.8418 -1.3461  0.7646
 3536TIP3   OH232022   3.412   0.892  13.023 -0.2327 -0.0115  0.4931
 3536TIP3    H132023   3.380   0.804  13.000  0.5988 -0.3592  0.6352
 3536TIP3    H232024   3.348   0.952  12.985 -2.0846 -0.7269  2.4031
 3537TIP3   OH232025   6.216   0.064  12.082  0.0787 -0.1374  0.3514
 3537TIP3    H132026   6.205  -0.029  12.101 -2.3627 -0.4097 -2.0634
 3537TIP3    H232027   6.202   0.071  11.988 -1.2005  2.8571  0.6961
 3538TIP3   OH232028   0.985   5.336  16.888 -0.2475  0.1368 -0.1227
 3538TIP3    H132029   1.065   5.381  16.863 -1.4471  1.2306 -2.1754
 3538TIP3    H232030   0.929   5.343  16.811 -1.2188 -3.1845  0.2070
 3539TIP3   OH232031   0.304   2.738  14.559 -0.3603  0.2217 -0.0893
 3539TIP3    H132032   0.319   2.816  14.505 -1.3386  0.4545 -0.0234
 3539TIP3    H232033   0.389   2.695  14.562 -0.2502  0.3080 -1.6598
 3540TIP3   OH232034   6.597   6.612  11.023 -0.1706 -0.1141 -0.6822
 3540TIP3    H132035   6.551   6.646  10.946  0.6381 -1.6927 -1.8779
 3540TIP3    H232036   6.668   6.675  11.038  1.7650 -1.5735 -3.3186
 3541TIP3   OH232037   6.439   6.246  14.232 -0.1602 -0.5442  0.0276
 3541TIP3    H132038   6.365   6.295  14.269  0.8694  0.5792  0.6293
 3541TIP3    H232039   6.408   6.156  14.228 -1.7332 -0.0125 -0.1522
 3542TIP3   OH232040   5.307   1.202  12.014  0.1694 -0.3377  0.4963
 3542TIP3    H132041   5.219   1.167  12.002  0.6187 -0.8964 -1.2614
 3542TIP3    H232042   5.333   1.172  12.101 -1.4386 -0.0087  1.1170
 3543TIP3   OH232043   2.340   0.442   1.248  0.0049 -0.1057  0.4298
 3543TIP3    H132044   2.294   0.500   1.187 -1.1829 -2.4304 -0.9616
 3543TIP3    H232045   2.275   0.423   1.316 -0.1142 -0.9908  0.0742
 3544TIP3   OH232046   0.027   3.943   3.064  0.1113  0.4008 -0.4674
 3544TIP3    H132047   0.122   3.941   3.058  0.0563  0.0391 -1.1613
 3544TIP3    H232048   0.003   4.031   3.035  0.2636  0.6574  0.1688
 3545TIP3   OH232049   2.055   2.682   0.555 -0.4544 -0.0702  0.1210
 3545TIP3    H132050   2.023   2.595   0.579  0.0958 -0.0498  0.9479
 3545TIP3    H232051   2.077   2.675   0.462 -1.4067 -0.5112 -0.0730
 3546TIP3   OH232052   4.719   1.853   5.463 -0.4704 -0.5224 -0.4673
 3546TIP3    H132053   4.770   1.933   5.448  0.5139 -0.9662  0.4455
 3546TIP3    H232054   4.642   1.863   5.407 -0.5333  1.2258 -0.1044
 3547TIP3   OH232055   1.436   1.357   2.960  0.3092  0.3706  0.4900
 3547TIP3    H132056   1.440   1.393   3.048 -0.7111 -2.0438  1.5604
 3547TIP3    H232057   1.520   1.312   2.949  0.3248  0.4412  0.3164
 3548TIP3   OH232058   4.936   4.178   1.861  0.5552  0.4635  0.0961
 3548TIP3    H132059   4.939   4.085   1.883  1.1673 -0.0459 -2.0154
 3548TIP3    H232060   5.008   4.190   1.799  0.5334  2.3736  0.4161
 3549TIP3   OH232061   3.600   3.611  17.114  0.1742 -0.2600  0.5634
 3549TIP3    H132062   3.671   3.584  17.172 -0.4875  0.8884  1.9402
 3549TIP3    H232063   3.547   3.531  17.103  1.6147 -1.0952 -0.4062
 3550TIP3   OH232064   2.880   5.170   2.833 -0.9734  0.3155 -0.1836
 3550TIP3    H132065   2.812   5.107   2.809  0.7853 -1.8811  0.4187
 3550TIP3    H232066   2.963   5.124   2.815  0.3732  2.8663 -0.7650
 3551TIP3   OH232067   4.965   5.756  11.282  0.3987 -0.3553 -0.5077
 3551TIP3    H132068   4.984   5.783  11.372 -1.0304  0.1269 -0.3417
 3551TIP3    H232069   5.005   5.823  11.227 -1.1926  0.9162 -0.1514
 3552TIP3   OH232070   5.314   1.849  14.519 -0.3039 -0.6322  0.9423
 3552TIP3    H132071   5.278   1.801  14.444 -1.6738  1.5677  0.1603
 3552TIP3    H232072   5.368   1.918  14.481  2.3935 -2.0359  2.0802
 3553TIP3   OH232073   5.412   0.408  10.488  0.1046 -0.4450 -0.5389
 3553TIP3    H132074   5.354   0.357  10.431  0.8215 -0.1191 -1.5721
 3553TIP3    H232075   5.357   0.480  10.520 -0.1655 -0.3470 -1.2178
 3554TIP3   OH232076   2.969   6.134   2.112  0.0037  0.6375 -0.0723
 3554TIP3    H132077   2.935   6.122   2.024 -1.7632 -0.7353  0.7753
 3554TIP3    H232078   3.056   6.094   2.111 -0.2050  0.2197 -1.0531
 3555TIP3   OH232079   2.546   5.908  15.378  0.0572  0.5032 -0.1319
 3555TIP3    H132080   2.476   5.844  15.390  0.8643 -0.2683  0.4613
 3555TIP3    H232081   2.553   5.917  15.283 -1.9110  1.7731 -0.1961
 3556TIP3   OH232082   1.437   6.589  16.259  0.3963 -0.4709 -0.4551
 3556TIP3    H132083   1.427   6.536  16.179 -0.2207 -1.4091  0.2320
 3556TIP3    H232084   1.532   6.597  16.270  0.4940  0.6218 -1.8949
 3557TIP3   OH232085   6.283   6.767   3.156 -0.3048  0.1098  0.3882
 3557TIP3    H132086   6.237   6.780   3.074  0.1269  1.0938  0.2849
 3557TIP3    H232087   6.313   6.855   3.181 -0.4725 -0.1637  1.6150
 3558TIP3   OH232088   4.142   2.426   3.116  0.0620  0.1427 -0.0662
 3558TIP3    H132089   4.116   2.421   3.208  0.9481  1.1484  0.2365
 3558TIP3    H232090   4.082   2.490   3.077 -0.6407 -0.6504 -0.3141
 3559TIP3   OH232091   1.280   3.009  16.116  0.6340  0.3057  0.8568
 3559TIP3    H132092   1.335   2.937  16.084 -0.6292 -0.1533 -0.3045
 3559TIP3    H232093   1.300   3.083  16.059 -0.0382  0.1030  0.3560
 3560TIP3   OH232094   2.809   5.921   2.634 -0.1094 -0.3776  0.6092
 3560TIP3    H132095   2.852   5.941   2.551 -1.6174  0.6887  0.0829
 3560TIP3    H232096   2.793   6.007   2.674 -0.9650 -0.8090  1.2042
 3561TIP3   OH232097   2.563   4.524  12.659  0.5194  0.0176  0.4617
 3561TIP3    H132098   2.644   4.513  12.608 -0.2619  0.6002 -0.9237
 3561TIP3    H232099   2.523   4.603  12.623  0.2697  0.8102  2.4344
 3562TIP3   OH232100   1.171   4.315  15.941  0.2442  0.1074 -0.5775
 3562TIP3    H132101   1.132   4.228  15.934 -0.4446  0.2277  1.3353
 3562TIP3    H232102   1.222   4.326  15.861 -0.7803 -1.4953 -1.4557
 3563TIP3   OH232103   2.819   3.398  11.125 -0.0150  0.4876  0.3001
 3563TIP3    H132104   2.862   3.482  11.139 -0.8066  1.1384 -1.0426
 3563TIP3    H232105   2.890   3.340  11.097  0.8398  0.2272  2.9189
 3564TIP3   OH232106   3.958   5.162   3.756 -0.1272  0.1309 -0.2529
 3564TIP3    H132107   3.918   5.085   3.797  2.1779 -1.0072 -0.0541
 3564TIP3    H232108   3.915   5.236   3.798 -1.2521 -1.0338  0.7148
 3565TIP3   OH232109   3.719   3.826   1.521  0.7330 -0.1681  0.3917
 3565TIP3    H132110   3.763   3.805   1.439 -0.2739 -0.7306 -0.0115
 3565TIP3    H232111   3.790   3.832   1.585  1.2877 -2.5716  0.0613
 3566TIP3   OH232112   5.815   0.300   3.441 -0.3270 -0.0325  0.1141
 3566TIP3    H132113   5.720   0.307   3.431 -0.3200  0.7892  0.5266
 3566TIP3    H232114   5.831   0.209   3.466 -0.9636 -0.2776 -0.3673
 3567TIP3   OH232115   2.621   1.084   0.754 -0.3581 -0.2210  0.3007
 3567TIP3    H132116   2.568   1.160   0.779 -0.2356  0.1679 -0.5708
 3567TIP3    H232117   2.686   1.120   0.694  0.3840 -0.8382  0.7399
 3568TIP3   OH232118   2.156   4.720   4.474  0.3853  0.4517 -0.6780
 3568TIP3    H132119   2.201   4.712   4.389 -0.9315  0.1089 -1.3599
 3568TIP3    H232120   2.115   4.634   4.487  2.2824 -0.1676  1.2968
 3569TIP3   OH232121   6.609   0.345   3.075  0.3537 -0.3005 -0.0980
 3569TIP3    H132122   6.575   0.409   3.137 -0.9080 -2.3316  1.3930
 3569TIP3    H232123   6.628   0.268   3.129  0.7391 -1.5655 -1.9945
 3570TIP3   OH232124   3.944   0.816  14.060 -0.9971  0.2123  0.2946
 3570TIP3    H132125   3.950   0.907  14.088 -1.9951  0.2833  0.2874
 3570TIP3    H232126   4.012   0.771  14.109 -1.3050  0.7340  1.2084
 3571TIP3   OH232127   4.284   1.957   3.473  0.5956 -0.1090  0.6171
 3571TIP3    H132128   4.214   1.893   3.464  0.9998 -0.2005 -2.1731
 3571TIP3    H232129   4.364   1.904   3.480  0.8253  0.0631 -0.6487
 3572TIP3   OH232130   2.444   4.382  14.577 -0.2783 -0.1535  0.1083
 3572TIP3    H132131   2.411   4.438  14.648 -0.5145  0.2924 -0.3492
 3572TIP3    H232132   2.531   4.418  14.559 -0.3936  0.0079 -0.1231
 3573TIP3   OH232133   2.247   2.120  14.842  0.2961  0.7377 -0.2147
 3573TIP3    H132134   2.299   2.181  14.894 -0.0149  1.8781 -1.2403
 3573TIP3    H232135   2.302   2.098  14.767  0.5732 -0.5842  0.3451
 3574TIP3   OH232136   1.491   4.928   1.517 -0.3408  0.4170  0.2393
 3574TIP3    H132137   1.542   4.884   1.584 -0.8927  1.1835  1.1680
 3574TIP3    H232138   1.420   4.867   1.496  0.0537  0.0170  0.0670
 3575TIP3   OH232139   0.376   5.935   2.329 -0.5468  0.4819  0.4789
 3575TIP3    H132140   0.303   5.995   2.346 -1.5940 -0.6822  0.1521
 3575TIP3    H232141   0.335   5.858   2.289  0.6607 -0.8075  1.6687
 3576TIP3   OH232142   5.371   2.505   1.660  0.2573  0.6010  0.0342
 3576TIP3    H132143   5.447   2.562   1.669 -0.2545  1.0685  1.5134
 3576TIP3    H232144   5.296   2.565   1.661 -0.2360 -0.0175  0.7660
 3577TIP3   OH232145   5.329   6.745  14.703 -0.5731  0.4828 -0.3723
 3577TIP3    H132146   5.300   6.697  14.626  0.9976 -1.7240  0.3942
 3577TIP3    H232147   5.278   6.708  14.775 -1.5726  2.1093 -0.1945
 3578TIP3   OH232148   6.726   1.411  13.068 -0.1486  0.1770 -0.7770
 3578TIP3    H132149   6.703   1.427  12.976 -1.7243 -0.5666 -0.5335
 3578TIP3    H232150   6.705   1.318  13.082  0.4903  0.1795  0.2145
 3579TIP3   OH232151   2.629   4.669   4.454  0.0721 -0.4167  0.4060
 3579TIP3    H132152   2.643   4.642   4.545  1.1338 -0.7401  0.1441
 3579TIP3    H232153   2.706   4.720   4.432 -0.0896 -0.5144 -0.3806
 3580TIP3   OH232154   4.266   4.521   6.854 -0.3956  0.0230  0.0618
 3580TIP3    H132155   4.305   4.603   6.823  0.1727  0.1180  1.0048
 3580TIP3    H232156   4.327   4.453   6.826 -0.1173  0.0655  0.5572
 3581TIP3   OH232157   2.479   1.011   2.194  0.6695  0.2164 -0.5381
 3581TIP3    H132158   2.483   1.106   2.181 -0.3922  0.3399  0.0617
 3581TIP3    H232159   2.409   0.998   2.258  1.3630 -0.9115  0.0018
 3582TIP3   OH232160   4.615   5.436   2.409 -0.1809  0.0537 -0.9444
 3582TIP3    H132161   4.687   5.375   2.423 -0.1600  0.0068 -1.2470
 3582TIP3    H232162   4.656   5.522   2.405 -0.2960  0.1721  0.2466
 3583TIP3   OH232163   2.878   3.207  15.826  0.0639  0.0880 -0.4357
 3583TIP3    H132164   2.968   3.222  15.798  1.0703 -2.1059  1.5087
 3583TIP3    H232165   2.885   3.188  15.919 -2.1989 -2.2205 -0.7059
 3584TIP3   OH232166   5.517   4.514  10.565 -0.1217  0.4252 -0.7377
 3584TIP3    H132167   5.485   4.592  10.611 -1.1800  0.5096 -1.6102
 3584TIP3    H232168   5.439   4.465  10.542  0.5049 -0.5444 -0.8517
 3585TIP3   OH232169   2.832   2.074   3.773  0.0032 -0.1342  0.0954
 3585TIP3    H132170   2.876   1.996   3.740 -1.1651 -0.6520 -0.2558
 3585TIP3    H232171   2.747   2.074   3.730 -0.1066  1.1954  0.2941
 3586TIP3   OH232172   1.564   5.413  14.682 -0.0660 -0.0417  0.2102
 3586TIP3    H132173   1.572   5.339  14.621  0.5129 -0.2971  0.5893
 3586TIP3    H232174   1.651   5.421  14.721  0.0531  1.2756 -0.3177
 3587TIP3   OH232175   0.970   4.933   3.697 -0.2237  0.0609  0.4546
 3587TIP3    H132176   0.893   4.990   3.693  1.0888  1.7885 -1.1628
 3587TIP3    H232177   0.981   4.915   3.791 -0.9058  2.1579  0.9672
 3588TIP3   OH232178   1.622   3.260  13.494  0.0529 -0.0321  0.2435
 3588TIP3    H132179   1.560   3.323  13.460  0.0269 -0.4441 -0.4771
 3588TIP3    H232180   1.601   3.178  13.449  0.9206 -0.2423  0.2106
 3589TIP3   OH232181   2.432   4.170  14.799 -0.4343  0.2255  0.5057
 3589TIP3    H132182   2.404   4.245  14.746  1.2977  0.4572 -0.1115
 3589TIP3    H232183   2.471   4.110  14.735 -0.6034 -0.6098  1.1874
 3590TIP3   OH232184   0.515   2.918  16.368 -0.0856  0.3519 -0.3254
 3590TIP3    H132185   0.609   2.923  16.386  0.0157  0.2501 -0.8313
 3590TIP3    H232186   0.489   2.832  16.400  0.3298 -0.3258 -1.7319
 3591TIP3   OH232187   3.360   5.548  13.996  0.1997  1.0098  0.4375
 3591TIP3    H132188   3.407   5.467  14.014  0.9085  0.7669 -2.3131
 3591TIP3    H232189   3.268   5.522  13.990  0.1567  0.8089  1.7186
 3592TIP3   OH232190   2.805   3.303   2.562  0.2049 -0.4481  0.0180
 3592TIP3    H132191   2.736   3.265   2.616  1.2648 -1.7828  0.4779
 3592TIP3    H232192   2.768   3.306   2.474 -0.3879 -1.3254  0.2284
 3593TIP3   OH232193   5.421   3.774  16.540  0.0852 -0.3432 -0.0260
 3593TIP3    H132194   5.335   3.738  16.563  0.7885 -2.4348 -0.5382
 3593TIP3    H232195   5.406   3.819  16.457 -0.2332 -1.9869 -0.8869
 3594TIP3   OH232196   1.831   2.472   1.914 -0.0390  0.1117  0.0718
 3594TIP3    H132197   1.864   2.426   1.836 -0.6970  2.7055 -1.8303
 3594TIP3    H232198   1.736   2.467   1.906 -0.1272  2.0805 -0.4041
 3595TIP3   OH232199   5.239   4.089   0.936  0.0362 -0.0845  0.4739
 3595TIP3    H132200   5.235   4.000   0.900  2.1890  0.5111 -1.3208
 3595TIP3    H232201   5.199   4.144   0.869  4.8684  1.1521 -1.5674
 3596TIP3   OH232202   1.711   4.321   3.286 -0.2616 -0.4859 -0.0704
 3596TIP3    H132203   1.739   4.358   3.203 -0.6048  0.6667  0.3122
 3596TIP3    H232204   1.764   4.367   3.352  0.4635 -1.8394  0.3128
 3597TIP3   OH232205   6.702   4.599   1.197  0.5773  0.0872 -0.1748
 3597TIP3    H132206   6.693   4.650   1.117  0.9703 -1.2142 -1.0612
 3597TIP3    H232207   6.785   4.553   1.188  0.0133 -1.0760  0.3988
 3598TIP3   OH232208   3.995   3.299  16.702 -0.6149 -0.4580 -0.2736
 3598TIP3    H132209   4.053   3.229  16.731 -1.8013 -1.5573 -0.4797
 3598TIP3    H232210   3.987   3.356  16.778 -0.3518 -1.0409  0.1960
 3599TIP3   OH232211   3.003   3.225   3.396 -0.3015  0.1860  0.4475
 3599TIP3    H132212   3.040   3.162   3.459 -0.3383  1.4004  1.7089
 3599TIP3    H232213   3.063   3.300   3.399  0.9064 -0.5760 -2.5869
 3600TIP3   OH232214   0.902   4.442   4.383 -0.2297 -0.2475  0.2289
 3600TIP3    H132215   0.986   4.488   4.390 -0.8408  1.0672 -1.0687
 3600TIP3    H232216   0.837   4.506   4.409 -1.2106  0.0632 -2.8481
 3601TIP3   OH232217   4.827   6.466   1.418 -0.4543 -0.0178  0.4564
 3601TIP3    H132218   4.888   6.477   1.345 -0.8562 -1.2645 -0.0937
 3601TIP3    H232219   4.809   6.555   1.449  0.6962  0.4309 -0.1547
 3602TIP3   OH232220   2.551   4.865  13.237 -0.4595 -0.8551  0.7124
 3602TIP3    H132221   2.624   4.883  13.296 -1.0884 -2.8336  2.1547
 3602TIP3    H232222   2.563   4.774  13.211  0.1701  0.1431 -2.8207
 3603TIP3   OH232223   5.926   1.565   0.308  0.2712 -0.8853  0.8548
 3603TIP3    H132224   5.964   1.478   0.311  0.0038 -1.0511 -0.1225
 3603TIP3    H232225   5.930   1.589   0.215  0.2688  0.1061  1.1048
 3604TIP3   OH232226   4.266   0.724  17.037 -0.2454 -0.0117 -0.5923
 3604TIP3    H132227   4.319   0.705  16.959  0.6497 -2.5611  0.5687
 3604TIP3    H232228   4.180   0.688  17.017 -0.0038 -0.7041 -0.4207
 3605TIP3   OH232229   0.941   1.090   5.522  0.6109  0.0338 -0.2836
 3605TIP3    H132230   0.888   1.055   5.450  2.3744 -1.0213 -1.0896
 3605TIP3    H232231   0.890   1.071   5.601 -0.9330  0.4338 -1.1730
 3606TIP3   OH232232   0.144   2.557  13.979 -0.5161 -0.2652  0.0704
 3606TIP3    H132233   0.157   2.643  14.018 -1.3991  0.0419 -0.3065
 3606TIP3    H232234   0.052   2.556  13.953  0.4740  0.2427 -3.7181
 3607TIP3   OH232235   2.170   6.179   2.375 -0.2465  0.1462  0.0126
 3607TIP3    H132236   2.080   6.201   2.351 -0.8834 -1.6962  0.6004
 3607TIP3    H232237   2.222   6.253   2.345 -2.1352  1.8898  0.8847
 3608TIP3   OH232238   3.681   6.223   1.065  1.0542  0.0751 -0.1051
 3608TIP3    H132239   3.658   6.288   0.999 -0.8094 -0.5370 -0.0924
 3608TIP3    H232240   3.654   6.261   1.148  0.6663 -0.3715 -0.0192
 3609TIP3   OH232241   6.398   3.728  11.519  0.2491  0.8147 -0.8364
 3609TIP3    H132242   6.341   3.664  11.562  1.2052  1.1363  0.9844
 3609TIP3    H232243   6.344   3.807  11.512  0.5839  1.2891  1.3761
 3610TIP3   OH232244   4.063   4.739  13.865  0.3902  0.4472 -0.4705
 3610TIP3    H132245   4.051   4.668  13.801  0.6372  0.1360 -0.1791
 3610TIP3    H232246   4.140   4.786  13.833  0.7199  0.0843 -0.2194
 3611TIP3   OH232247   4.956   1.662  13.222  0.1657  0.0515  0.8332
 3611TIP3    H132248   4.925   1.621  13.141  0.2121 -0.6086  1.1409
 3611TIP3    H232249   5.049   1.637  13.226 -0.0538 -0.6876  1.5458
 3612TIP3   OH232250   0.108   2.930  13.438  0.5221  0.0333 -1.2098
 3612TIP3    H132251   0.156   2.853  13.467  0.1897  0.0696 -0.5478
 3612TIP3    H232252   0.090   2.914  13.345  0.0650 -0.8923 -0.9645
 3613TIP3   OH232253   4.471   2.467   5.296 -0.3782  0.0162 -0.2797
 3613TIP3    H132254   4.511   2.485   5.381  0.5939  1.3053 -1.0015
 3613TIP3    H232255   4.385   2.510   5.300 -0.9096 -1.0895  0.5405
 3614TIP3   OH232256   1.844   2.303   4.891  0.0901  0.2539 -0.1852
 3614TIP3    H132257   1.934   2.322   4.863 -0.8526  2.2324 -1.9819
 3614TIP3    H232258   1.816   2.230   4.836 -0.1515  1.0770 -1.1557
 3615TIP3   OH232259   0.655   4.843   1.685 -0.4358 -0.0862 -0.4476
 3615TIP3    H132260   0.671   4.749   1.681  3.8211  0.5250  0.0600
 3615TIP3    H232261   0.667   4.873   1.595 -0.0687  0.1790 -0.3138
 3616TIP3   OH232262   5.479   0.271  10.770 -0.3902  0.0244  0.1467
 3616TIP3    H132263   5.485   0.282  10.675  1.0207 -0.4632  0.1600
 3616TIP3    H232264   5.569   0.282  10.801 -0.9556  0.9127  1.5144
 3617TIP3   OH232265   2.366   1.329   5.534 -0.6235  0.5386 -0.1227
 3617TIP3    H132266   2.390   1.381   5.610 -1.8455  1.4450 -0.3523
 3617TIP3    H232267   2.312   1.258   5.569 -0.5625  0.5230 -0.0590
 3618TIP3   OH232268   1.014   5.890  13.868 -0.0739  0.4728 -0.3955
 3618TIP3    H132269   1.074   5.825  13.904  0.9732  1.6086 -0.0433
 3618TIP3    H232270   0.927   5.856  13.889  0.4095 -1.5952 -1.6210
 3619TIP3   OH232271   5.837   2.925  15.233 -0.3999  0.0387 -0.3559
 3619TIP3    H132272   5.835   2.838  15.194 -0.6524 -0.3187  0.4445
 3619TIP3    H232273   5.753   2.932  15.279 -0.2671  0.6026 -0.1977
 3620TIP3   OH232274   0.175   5.632   0.148 -0.0160  0.2934  0.1088
 3620TIP3    H132275   0.244   5.634   0.081 -2.3716  1.0058 -2.4107
 3620TIP3    H232276   0.129   5.549   0.132 -0.5416  0.4244  0.9208
 3621TIP3   OH232277   0.883   0.030   2.149  0.4580  0.5919 -0.1791
 3621TIP3    H132278   0.879  -0.059   2.184  0.9904  0.7932  0.4085
 3621TIP3    H232279   0.931   0.022   2.067  1.4900  0.4986  0.4261
 3622TIP3   OH232280   2.152   4.725  13.978  0.3846 -0.0892 -0.5918
 3622TIP3    H132281   2.057   4.715  13.981  0.3932  0.0138  0.4241
 3622TIP3    H232282   2.185   4.636  13.967  0.1502 -0.0535 -1.5970
 3623TIP3   OH232283   5.355   3.459   2.731 -0.3075 -0.1351 -0.1445
 3623TIP3    H132284   5.288   3.498   2.675  2.0388  3.3895 -0.6238
 3623TIP3    H232285   5.333   3.489   2.819 -0.5041 -0.6266 -0.0263
 3624TIP3   OH232286   6.348   6.766  12.588 -0.2140  0.8734  0.2612
 3624TIP3    H132287   6.255   6.765  12.608  0.0365  1.3097  1.4565
 3624TIP3    H232288   6.376   6.856  12.607  0.6224  0.5275  0.6959
 3625TIP3   OH232289   1.112   1.514   6.631  0.0391 -0.5233 -0.4834
 3625TIP3    H132290   1.080   1.555   6.551  1.4889  1.5878 -0.0344
 3625TIP3    H232291   1.191   1.563   6.652 -0.8431 -0.3882  2.7706
 3626TIP3   OH232292   2.370   3.480  16.471 -0.0499 -0.2923 -0.1995
 3626TIP3    H132293   2.416   3.401  16.498  1.4160  0.5444 -0.1887
 3626TIP3    H232294   2.303   3.449  16.410 -0.7448 -1.7341  1.2707
 3627TIP3   OH232295   0.322   0.175   1.135 -0.1250 -0.0654 -0.2408
 3627TIP3    H132296   0.242   0.123   1.128  0.9123 -1.5597 -1.2953
 3627TIP3    H232297   0.377   0.146   1.062  1.6651  0.4221  0.8667
 3628TIP3   OH232298   3.319   1.962   3.363  0.7409  0.0179 -0.1345
 3628TIP3    H132299   3.403   1.997   3.334  0.7999 -0.6569 -0.8187
 3628TIP3    H232300   3.262   1.973   3.287 -0.6026  3.0805  1.2394
 3629TIP3   OH232301   0.181   5.674  13.856 -0.2112  0.5717  0.3263
 3629TIP3    H132302   0.200   5.686  13.949  0.6157  1.4229  0.0576
 3629TIP3    H232303   0.089   5.696  13.847 -0.1969  0.8711  0.8784
 3630TIP3   OH232304   6.519   6.009   1.533 -0.1307  0.4727 -0.4223
 3630TIP3    H132305   6.505   5.961   1.451 -0.3625 -0.9720  0.4558
 3630TIP3    H232306   6.614   6.022   1.537  0.0678 -0.9682 -0.0897
 3631TIP3   OH232307   4.016   1.806   2.058  0.0242  0.3724 -0.3189
 3631TIP3    H132308   3.961   1.728   2.056  1.2152 -0.5017  0.7923
 3631TIP3    H232309   4.099   1.777   2.096  1.1387  1.7678 -1.6169
 3632TIP3   OH232310   3.562   6.464  13.011 -0.7662 -0.3832 -0.5435
 3632TIP3    H132311   3.488   6.524  13.000 -0.8954 -0.4184  0.0949
 3632TIP3    H232312   3.577   6.462  13.106  1.4688  1.3287 -0.8087
 3633TIP3   OH232313   5.823   4.814   3.225 -0.5136 -0.1857  0.0813
 3633TIP3    H132314   5.891   4.751   3.249 -0.9065 -0.8923 -0.6319
 3633TIP3    H232315   5.748   4.791   3.280 -0.6270 -0.2844 -0.1130
 3634TIP3   OH232316   0.824   2.899  12.599 -0.3454 -0.0097  0.4653
 3634TIP3    H132317   0.868   2.937  12.523 -0.1080 -1.1671  0.0255
 3634TIP3    H232318   0.755   2.845  12.562 -0.2872 -0.5000  1.0751
 3635TIP3   OH232319   3.136   4.036   3.545  0.5533 -0.2325  0.5876
 3635TIP3    H132320   3.089   3.969   3.495  0.6217  0.5110 -0.4740
 3635TIP3    H232321   3.216   3.991   3.574  0.6459 -0.5910 -0.2020
 3636TIP3   OH232322   3.157   3.977   2.555  0.2234 -0.2306 -0.7803
 3636TIP3    H132323   3.127   4.067   2.539  1.3627  0.2384 -0.3571
 3636TIP3    H232324   3.241   3.988   2.598  0.2885 -1.5159 -0.5736
 3637TIP3   OH232325   0.739   2.153  15.117  0.6047 -0.0854  0.0613
 3637TIP3    H132326   0.776   2.065  15.123  0.0512 -0.2544  1.0495
 3637TIP3    H232327   0.764   2.196  15.199 -0.7263  0.0451  0.4152
 3638TIP3   OH232328   5.482   1.504  17.076 -0.2734  0.0185 -0.2373
 3638TIP3    H132329   5.534   1.507  17.157 -1.3973 -0.7236  0.5285
 3638TIP3    H232330   5.423   1.579  17.083 -0.9227 -0.5085  0.0238
 3639TIP3   OH232331   1.911   2.670   1.061  0.3504 -0.1501 -0.4135
 3639TIP3    H132332   1.995   2.662   1.017  1.3831  0.1834  1.4505
 3639TIP3    H232333   1.852   2.707   0.995  1.5245 -0.8990 -1.8836
 3640TIP3   OH232334   6.514   6.030  14.890  0.1562 -0.2007 -0.1919
 3640TIP3    H132335   6.452   6.067  14.827 -1.0913  0.8027  1.5769
 3640TIP3    H232336   6.595   6.077  14.873 -0.2645  0.3117 -0.8273
 3641TIP3   OH232337   0.929   1.467  14.726  0.0640 -0.5557 -0.5027
 3641TIP3    H132338   0.938   1.541  14.665 -0.3333 -0.1457 -0.0664
 3641TIP3    H232339   0.945   1.504  14.812 -0.4462 -0.9111 -0.2499
 3642TIP3   OH232340   6.302   5.324   4.838 -0.3695  0.2343  0.1279
 3642TIP3    H132341   6.215   5.363   4.827 -1.5487 -2.1452  0.6482
 3642TIP3    H232342   6.311   5.311   4.932  1.4888  2.4440  0.2940
 3643TIP3   OH232343   6.651   5.038  13.830 -0.2530 -0.4049 -0.3197
 3643TIP3    H132344   6.743   5.024  13.808 -0.4140 -1.4039 -0.3753
 3643TIP3    H232345   6.630   4.968  13.893 -1.5588 -1.5142 -1.9425
 3644TIP3   OH232346   4.671   0.677  10.767 -0.0888  0.3904  0.5363
 3644TIP3    H132347   4.587   0.646  10.732  0.7697 -0.1982 -1.0695
 3644TIP3    H232348   4.678   0.766  10.735  1.1182 -0.4461 -1.6506
 3645TIP3   OH232349   5.338   0.078   1.759 -0.3393  0.2114  0.0920
 3645TIP3    H132350   5.326   0.127   1.678 -1.8615 -0.4391 -0.1019
 3645TIP3    H232351   5.396   0.133   1.812  0.1787  0.9237 -1.1846
 3646TIP3   OH232352   2.292   5.147  14.033  0.1886 -0.2888  0.0088
 3646TIP3    H132353   2.308   5.063  14.077 -1.3584 -0.9183 -0.5845
 3646TIP3    H232354   2.292   5.126  13.940 -0.5989  0.2917 -0.1310
 3647TIP3   OH232355   1.030   5.117   1.316 -0.3058 -0.3178  0.1823
 3647TIP3    H132356   1.002   5.122   1.225  0.1849  1.2588  0.0911
 3647TIP3    H232357   0.956   5.153   1.365 -0.0831  0.0127  0.2830
 3648TIP3   OH232358   4.818   2.029  14.127 -0.9795  0.0729 -0.3091
 3648TIP3    H132359   4.895   1.974  14.116 -0.1018  1.3690 -0.7487
 3648TIP3    H232360   4.744   1.969  14.116 -0.0483 -1.0458 -0.5853
 3649TIP3   OH232361   5.670   2.166   2.421 -0.2544 -0.2953  0.1765
 3649TIP3    H132362   5.600   2.231   2.431  0.1238 -0.0496  1.2510
 3649TIP3    H232363   5.683   2.160   2.326  0.0473  1.5573  0.0746
 3650TIP3   OH232364   4.498   3.420   3.471  0.2624  0.1100 -0.3160
 3650TIP3    H132365   4.481   3.337   3.514  1.0585 -0.4412 -1.0682
 3650TIP3    H232366   4.573   3.404   3.414  0.4421  1.3451 -0.4453
 3651TIP3   OH232367   3.328   6.259  14.169 -0.2559  0.4647  0.2716
 3651TIP3    H132368   3.331   6.347  14.131 -0.7859  0.9795  1.4115
 3651TIP3    H232369   3.295   6.272  14.258 -0.6054 -0.9174  0.3550
 3652TIP3   OH232370   4.040   2.130  10.388  0.2576  0.6237 -0.8714
 3652TIP3    H132371   3.975   2.067  10.359  0.8741  0.3670 -1.7224
 3652TIP3    H232372   3.997   2.215  10.380 -1.0714  0.2226  1.6584
 3653TIP3   OH232373   2.177   2.508   6.551  0.4951 -0.2191 -0.1133
 3653TIP3    H132374   2.112   2.473   6.491  0.2514  0.0239  0.0071
 3653TIP3    H232375   2.155   2.601   6.559 -0.3853 -0.5361  1.5006
 3654TIP3   OH232376   2.849   0.577  17.217 -0.0733 -0.2678 -0.4585
 3654TIP3    H132377   2.809   0.524  17.286 -0.6049 -0.8754 -1.2279
 3654TIP3    H232378   2.925   0.525  17.189  0.3930  0.1815 -0.0388
 3655TIP3   OH232379   6.450   3.129  12.414  0.4809  0.0175  0.3241
 3655TIP3    H132380   6.481   3.063  12.477  3.0230  1.5253  0.7459
 3655TIP3    H232381   6.488   3.101  12.330 -0.0004 -0.0787  0.1390
 3656TIP3   OH232382   3.600   3.141  11.373  0.0136 -0.0160 -0.1022
 3656TIP3    H132383   3.626   3.101  11.456  1.9989 -0.1479 -0.7792
 3656TIP3    H232384   3.621   3.234  11.383  1.1065 -0.1831 -0.7842
 3657TIP3   OH232385   2.837   5.387  15.348 -0.1897  0.5261  0.0626
 3657TIP3    H132386   2.880   5.304  15.369 -0.4464  0.5386  0.6193
 3657TIP3    H232387   2.823   5.430  15.432 -0.0375  1.1494 -0.2266
 3658TIP3   OH232388   1.241   2.174   2.536  0.3758  0.0871  0.2457
 3658TIP3    H132389   1.291   2.127   2.603  0.5240  0.0098  0.0806
 3658TIP3    H232390   1.210   2.253   2.581 -1.1668 -0.8916  0.9762
 3659TIP3   OH232391   1.936   0.679   2.886 -0.3027 -0.1618 -0.2887
 3659TIP3    H132392   1.977   0.605   2.840 -1.1689  0.5827 -2.2969
 3659TIP3    H232393   1.861   0.640   2.932 -0.7478 -0.5368 -1.3275
 3660TIP3   OH232394   5.098   0.100  14.276  0.5455 -0.2190 -0.4202
 3660TIP3    H132395   5.021   0.146  14.244 -0.4704 -1.2933  0.4197
 3660TIP3    H232396   5.080   0.007  14.258  0.2694 -0.7823  2.4962
 3661TIP3   OH232397   0.615   2.906   2.871 -0.1382  0.0168 -1.0284
 3661TIP3    H132398   0.550   2.976   2.867 -1.0959 -0.5195  2.8560
 3661TIP3    H232399   0.572   2.831   2.829 -1.5060  0.0719  0.2211
 3662TIP3   OH232400   6.217   2.675  12.353 -0.0201 -0.5600  0.5897
 3662TIP3    H132401   6.168   2.756  12.369 -1.6194 -1.3364 -0.2046
 3662TIP3    H232402   6.151   2.615  12.317  1.5116 -1.6802 -0.3623
 3663TIP3   OH232403   1.218   2.292   4.354  0.2141  0.4011  0.6510
 3663TIP3    H132404   1.132   2.256   4.331  1.1475 -0.3963 -1.6546
 3663TIP3    H232405   1.216   2.298   4.450 -2.0963 -0.3713  0.6852
 3664TIP3   OH232406   1.014   4.691   3.344  0.0503 -0.3721  0.5050
 3664TIP3    H132407   0.965   4.729   3.417 -0.8176 -2.5787  1.1026
 3664TIP3    H232408   0.976   4.732   3.266 -1.4915 -0.6713  1.0815
 3665TIP3   OH232409   3.845   0.604   3.434  0.0513 -0.1655 -0.0385
 3665TIP3    H132410   3.928   0.590   3.479  0.2602 -0.0875 -0.3998
 3665TIP3    H232411   3.823   0.519   3.396  0.6970  0.1593 -1.1749
 3666TIP3   OH232412   2.987   1.980  11.827  0.4488 -0.2674  0.6214
 3666TIP3    H132413   3.004   2.046  11.760 -0.7489  1.3082  1.8293
 3666TIP3    H232414   2.978   1.898  11.779  3.4974  0.1443 -0.7594
 3667TIP3   OH232415   0.325   2.026   0.987  0.0587  0.0972  0.5507
 3667TIP3    H132416   0.266   2.009   1.060  0.3122 -0.0157  0.7320
 3667TIP3    H232417   0.301   1.961   0.921 -0.8985  0.8967  0.0944
 3668TIP3   OH232418   3.058   4.239  13.794 -0.1864  0.2724  0.0997
 3668TIP3    H132419   3.077   4.186  13.717 -0.4187  0.2051  0.0884
 3668TIP3    H232420   3.108   4.198  13.864 -1.6315 -0.9493  0.4522
 3669TIP3   OH232421   5.202   4.643  17.178 -0.0051 -0.2218  0.1271
 3669TIP3    H132422   5.198   4.593  17.260 -1.2852 -1.2404 -0.5225
 3669TIP3    H232423   5.188   4.734  17.204 -0.6925 -0.5761  1.0198
 3670TIP3   OH232424   3.427   0.871  14.155  0.0953  0.6952  0.5682
 3670TIP3    H132425   3.394   0.814  14.085 -0.5360  0.8225  0.7616
 3670TIP3    H232426   3.372   0.949  14.150 -1.9080 -0.4779  3.0657
 3671TIP3   OH232427   0.234   1.752  13.016 -0.1063  0.0989  0.0657
 3671TIP3    H132428   0.201   1.705  13.093 -0.3510 -0.2151 -0.2319
 3671TIP3    H232429   0.173   1.729  12.946 -0.3979  1.0748 -0.0189
 3672TIP3   OH232430   1.805   2.641  17.190  0.0027 -0.3438 -0.1056
 3672TIP3    H132431   1.783   2.606  17.276  1.0251  2.5341  1.4121
 3672TIP3    H232432   1.761   2.726  17.186  0.1157 -0.3422 -2.3642
 3673TIP3   OH232433   3.391   2.626   6.263 -0.2957  0.5407  0.0036
 3673TIP3    H132434   3.484   2.606   6.272 -0.4188 -0.1057 -0.1352
 3673TIP3    H232435   3.351   2.587   6.341 -0.4801  0.6265 -0.0493
 3674TIP3   OH232436   2.392   6.119  15.600  0.0270  0.5469 -0.0118
 3674TIP3    H132437   2.441   6.174  15.539 -0.3549 -0.0762 -0.8838
 3674TIP3    H232438   2.438   6.129  15.684  2.2243 -0.7512 -1.0131
 3675TIP3   OH232439   1.282   5.881  10.540  0.2238 -0.0431 -0.1383
 3675TIP3    H132440   1.329   5.912  10.616 -0.1234 -0.7080  0.3581
 3675TIP3    H232441   1.254   5.960  10.494  2.8737  0.3620 -1.1141
 3676TIP3   OH232442   2.054   2.080   0.232 -0.1464  0.1870  0.2479
 3676TIP3    H132443   2.145   2.076   0.261 -0.7510  1.1795  2.3669
 3676TIP3    H232444   2.053   2.151   0.168  0.8075 -0.6715 -0.7383
 3677TIP3   OH232445   3.944   2.309   1.301 -0.1371  0.0228 -0.7479
 3677TIP3    H132446   3.931   2.216   1.323  1.5751  0.0744  0.5523
 3677TIP3    H232447   3.950   2.310   1.206  0.0439 -1.2400 -0.7698
 3678TIP3   OH232448   0.292   5.243  16.829  0.7973  0.8331 -0.6190
 3678TIP3    H132449   0.296   5.186  16.906  0.3270 -0.3461 -1.4707
 3678TIP3    H232450   0.346   5.318  16.853 -1.0971  1.5292  1.7329
 3679TIP3   OH232451   0.238   0.368  13.675  0.3702 -0.4165 -0.0127
 3679TIP3    H132452   0.280   0.454  13.683 -0.4794 -0.1755  1.8925
 3679TIP3    H232453   0.165   0.383  13.614  0.6480  0.0517 -0.2358
 3680TIP3   OH232454   5.871   5.623  17.168 -0.1331  0.2981 -0.3125
 3680TIP3    H132455   5.848   5.713  17.191  0.6121  0.1394  1.1409
 3680TIP3    H232456   5.814   5.569  17.223  0.1576 -0.1108 -0.4098
 3681TIP3   OH232457   5.335   1.334   3.454 -0.2661 -0.3651 -0.2546
 3681TIP3    H132458   5.321   1.275   3.528 -2.2183 -1.3892 -1.4217
 3681TIP3    H232459   5.247   1.361   3.427  0.3662 -0.7789 -2.8282
 3682TIP3   OH232460   0.656   4.006  11.145 -0.1541 -0.4830 -0.4572
 3682TIP3    H132461   0.613   4.088  11.167  0.7587  0.1691 -1.0295
 3682TIP3    H232462   0.648   3.999  11.050  1.6842  0.0695 -0.6846
 3683TIP3   OH232463   3.919   3.759   1.318 -0.0007  0.0509 -0.4225
 3683TIP3    H132464   3.924   3.700   1.243 -1.6446 -1.7775  0.8490
 3683TIP3    H232465   4.005   3.754   1.360  0.1921 -0.6525 -0.9025
 3684TIP3   OH232466   0.990   6.301  15.132  0.1267  0.1687  0.1859
 3684TIP3    H132467   0.937   6.348  15.196 -0.8850 -0.0838 -0.4376
 3684TIP3    H232468   1.031   6.369  15.079 -1.2278  0.3914 -0.6295
 3685TIP3   OH232469   0.440   2.826   4.665  0.0970 -0.1499  0.1138
 3685TIP3    H132470   0.423   2.856   4.576 -1.7976 -0.3991  0.3708
 3685TIP3    H232471   0.515   2.878   4.694 -0.1171  0.8864 -1.1570
 3686TIP3   OH232472   5.379   5.062  14.710 -0.2858 -0.2532  0.2721
 3686TIP3    H132473   5.423   5.086  14.628 -1.4763 -2.0174 -0.8972
 3686TIP3    H232474   5.394   4.968  14.719 -1.7241 -0.4140  1.1350
 3687TIP3   OH232475   6.062   2.791  16.325 -0.2593 -0.3941 -0.0454
 3687TIP3    H132476   6.096   2.819  16.410  1.0543  1.3064 -1.0984
 3687TIP3    H232477   6.003   2.718  16.346 -0.9715  0.8282  2.4463
 3688TIP3   OH232478   1.797   5.196  12.895  0.1331 -0.4912 -0.0357
 3688TIP3    H132479   1.818   5.275  12.845  1.8260 -0.2472  1.0405
 3688TIP3    H232480   1.847   5.127  12.852  3.1718  0.0797  2.4945
 3689TIP3   OH232481   0.501   4.148   6.334 -0.9448  0.1998 -0.3247
 3689TIP3    H132482   0.505   4.175   6.425  0.3697 -0.2903 -0.2159
 3689TIP3    H232483   0.537   4.223   6.286 -1.4817  0.3940 -0.4188
 3690TIP3   OH232484   2.289   4.734  15.856  0.2667  0.4656 -0.1969
 3690TIP3    H132485   2.255   4.814  15.896 -2.1048 -0.2694 -0.6469
 3690TIP3    H232486   2.227   4.715  15.785  0.7891 -1.7580 -0.0788
 3691TIP3   OH232487   2.028   2.046  11.998 -0.1691  0.1603 -0.6859
 3691TIP3    H132488   2.100   2.030  12.060  0.0914 -2.2321 -1.5582
 3691TIP3    H232489   1.970   2.106  12.044  3.1325  3.4619 -0.5378
 3692TIP3   OH232490   3.044   4.573   3.885 -0.1981 -0.7195  0.3452
 3692TIP3    H132491   3.088   4.615   3.811 -0.3555 -1.2635 -0.0636
 3692TIP3    H232492   2.967   4.531   3.846 -0.6861 -0.3841  0.9380
 3693TIP3   OH232493   2.265   2.867  13.841 -0.0373  0.6297 -0.3563
 3693TIP3    H132494   2.334   2.925  13.872  0.9612 -0.4066 -0.5863
 3693TIP3    H232495   2.241   2.814  13.917  1.3162 -0.8396 -0.9216
 3694TIP3   OH232496   2.692   1.868  12.266  0.3548 -0.1534 -0.1197
 3694TIP3    H132497   2.786   1.876  12.285  0.1455  0.7825  0.5465
 3694TIP3    H232498   2.688   1.845  12.174  1.1567  3.1553 -1.0537
 3695TIP3   OH232499   4.989   5.334  15.685  0.2781  0.4447  0.9186
 3695TIP3    H132500   4.911   5.367  15.641  1.4522  0.3524 -1.3072
 3695TIP3    H232501   5.037   5.413  15.711  0.3295  0.5127  0.6251
 3696TIP3   OH232502   2.284   4.592   3.764 -0.3127  0.2434 -0.1212
 3696TIP3    H132503   2.195   4.557   3.767 -0.1391 -0.1793  0.0969
 3696TIP3    H232504   2.309   4.586   3.672 -0.1647 -0.5036 -0.0365
 3697TIP3   OH232505   5.550   4.373   5.656 -0.3992 -0.5000 -0.1153
 3697TIP3    H132506   5.467   4.388   5.610  0.5850  1.7101 -1.2662
 3697TIP3    H232507   5.539   4.418   5.740 -0.5404 -0.5709 -0.0964
 3698TIP3   OH232508   0.708   0.777  16.299  0.6074  0.1648 -0.4432
 3698TIP3    H132509   0.632   0.764  16.357 -0.3219  0.7702 -1.5135
 3698TIP3    H232510   0.779   0.729  16.343 -0.4713 -0.7187  0.3907
 3699TIP3   OH232511   5.136   6.283   5.599  0.0605  0.2452  0.0498
 3699TIP3    H132512   5.042   6.272   5.589  0.0263  1.0271 -0.5496
 3699TIP3    H232513   5.146   6.352   5.664  0.2290 -0.2556  0.5596
 3700TIP3   OH232514   0.388   2.761  14.830  0.0849  0.2424  0.8401
 3700TIP3    H132515   0.321   2.748  14.762 -0.3409  1.1931  1.0673
 3700TIP3    H232516   0.447   2.827  14.793 -0.0171  0.5925  1.3036
 3701TIP3   OH232517   1.505   5.324  16.965 -0.4532  0.0333  0.3063
 3701TIP3    H132518   1.569   5.315  16.895  0.0799  1.1915  0.6333
 3701TIP3    H232519   1.556   5.349  17.042 -1.2290  0.3643  0.7205
 3702TIP3   OH232520   0.240   5.507   3.888  0.4267  0.2239  0.0721
 3702TIP3    H132521   0.157   5.487   3.845 -0.2105 -0.9908  1.7803
 3702TIP3    H232522   0.303   5.516   3.817 -0.5036 -2.1019 -1.0990
 3703TIP3   OH232523   1.655   6.668   1.279  0.3419  0.1860  0.3311
 3703TIP3    H132524   1.664   6.762   1.293  0.0468  0.2876 -0.1198
 3703TIP3    H232525   1.732   6.644   1.228 -1.6523  0.9986 -3.2834
 3704TIP3   OH232526   6.679   4.996  14.376  0.6766  0.2409  0.3640
 3704TIP3    H132527   6.602   5.010  14.321  0.3953 -0.3949  0.5937
 3704TIP3    H232528   6.707   4.907  14.357  1.3854  0.4830  0.2510
 3705TIP3   OH232529   2.960   3.144   2.898  0.1904  0.0685  0.3621
 3705TIP3    H132530   2.964   3.183   2.986  1.2542  0.5708  0.1027
 3705TIP3    H232531   2.888   3.082   2.902  0.5865 -0.3058  1.7564
 3706TIP3   OH232532   1.986   2.257  15.805 -0.1283  0.1174  0.2088
 3706TIP3    H132533   1.890   2.253  15.803 -0.1515 -0.7063  1.8747
 3706TIP3    H232534   2.014   2.201  15.733 -0.8968  1.0641 -0.8487
 3707TIP3   OH232535   3.989   1.629   1.093  0.7276  0.5608  0.3789
 3707TIP3    H132536   3.925   1.592   1.154  0.0077 -0.3911 -0.9163
 3707TIP3    H232537   4.040   1.553   1.064  1.4603  1.0966  0.2494
 3708TIP3   OH232538   1.271   6.742   2.446 -0.5265  0.3116  0.1734
 3708TIP3    H132539   1.306   6.789   2.522 -0.0935  0.1253  0.0913
 3708TIP3    H232540   1.246   6.812   2.385  1.0936  0.4343 -0.3836
 3709TIP3   OH232541   0.968   0.704  12.428 -0.4971 -0.6262 -0.0626
 3709TIP3    H132542   0.984   0.782  12.481  1.2281 -0.4086 -0.8501
 3709TIP3    H232543   1.055   0.680  12.394 -1.1690 -2.2529 -0.7070
 3710TIP3   OH232544   2.068   4.802   0.267 -0.8453  0.6803  0.0813
 3710TIP3    H132545   1.980   4.780   0.297 -1.5828  2.4783 -0.6904
 3710TIP3    H232546   2.058   4.820   0.174  0.9758 -2.4102 -0.7726
 3711TIP3   OH232547   3.913   4.657  12.421  0.3773 -0.7842 -0.6275
 3711TIP3    H132548   3.878   4.637  12.508  0.9738  1.3794  0.1376
 3711TIP3    H232549   3.930   4.571  12.382 -1.0356 -1.8054  0.9147
 3712TIP3   OH232550   0.540   3.194  16.434 -0.0774 -0.5257  0.6129
 3712TIP3    H132551   0.498   3.133  16.494  0.6081 -1.8456 -0.2087
 3712TIP3    H232552   0.516   3.163  16.347  1.0005 -0.1498  0.1638
 3713TIP3   OH232553   1.975   2.324  13.145  0.0999 -0.4377  0.1518
 3713TIP3    H132554   2.043   2.265  13.112 -0.8577 -0.0400 -2.6232
 3713TIP3    H232555   2.013   2.412  13.137 -0.1342 -0.3359  0.1507
 3714TIP3   OH232556   4.499   2.949   1.923 -0.6906 -0.2159 -0.5487
 3714TIP3    H132557   4.475   2.984   2.009 -1.1070  0.4560 -0.9298
 3714TIP3    H232558   4.554   3.016   1.884  1.1031 -1.3718 -0.0448
 3715TIP3   OH232559   4.193   4.008   4.905  0.2768  0.1464  0.5226
 3715TIP3    H132560   4.172   4.080   4.846  0.7691  0.9172  1.2863
 3715TIP3    H232561   4.211   3.934   4.847 -2.5038 -0.0043 -0.2256
 3716TIP3   OH232562   0.009   4.237  11.400 -0.4483  0.1848  0.0696
 3716TIP3    H132563   0.101   4.211  11.399  0.2083  1.9565  4.0489
 3716TIP3    H232564   0.003   4.306  11.335  1.3314  0.8865  0.6231
 3717TIP3   OH232565   1.519   4.455   1.926 -0.0438  0.0396  0.2850
 3717TIP3    H132566   1.532   4.424   2.015  0.6062  0.8985  0.4925
 3717TIP3    H232567   1.433   4.420   1.901 -1.4139  1.9234  2.1637
 3718TIP3   OH232568   0.219   5.623   6.198  0.3712 -0.1919 -0.6052
 3718TIP3    H132569   0.307   5.595   6.174 -0.1440 -1.3614 -1.1722
 3718TIP3    H232570   0.225   5.718   6.203  2.1931 -0.3732  1.5239
 3719TIP3   OH232571   6.660   4.773   0.978  0.1695  0.5013  0.3192
 3719TIP3    H132572   6.658   4.866   0.955 -0.7672  0.2098 -0.8551
 3719TIP3    H232573   6.749   4.744   0.957 -0.1999  0.6207 -1.4944
 3720TIP3   OH232574   2.276   2.321   5.552 -0.2141  0.2900  0.6753
 3720TIP3    H132575   2.341   2.348   5.617  0.1979 -1.2603  0.9284
 3720TIP3    H232576   2.219   2.261   5.599 -0.1990 -0.4674 -0.2597
 3721TIP3   OH232577   2.272   3.942   3.942 -0.1096  0.0177 -0.6107
 3721TIP3    H132578   2.336   4.011   3.928  0.4562 -0.3093  0.2915
 3721TIP3    H232579   2.292   3.876   3.875  1.1352 -0.5279  0.2754
 3722TIP3   OH232580   3.022   5.818   6.635  0.3528 -0.2058 -0.0380
 3722TIP3    H132581   3.043   5.844   6.724  1.4420  1.0901 -0.6572
 3722TIP3    H232582   3.024   5.900   6.585 -1.5748 -0.7168 -1.0028
 3723TIP3   OH232583   4.716   4.146  14.584  0.0461 -0.2988 -0.2710
 3723TIP3    H132584   4.648   4.212  14.574 -0.6738 -0.5842  2.3922
 3723TIP3    H232585   4.798   4.195  14.583 -0.3622  0.3682 -0.6502
 3724TIP3   OH232586   5.162   0.275   6.070 -0.4950 -0.3302  0.3784
 3724TIP3    H132587   5.252   0.245   6.086 -0.3327  0.8141  1.7737
 3724TIP3    H232588   5.117   0.259   6.153 -1.7759 -1.5480 -0.5412
 3725TIP3   OH232589   1.464   6.017   2.821  0.5753 -0.0653 -0.2811
 3725TIP3    H132590   1.452   6.091   2.762 -0.1940 -0.1305 -0.2145
 3725TIP3    H232591   1.452   5.940   2.766  2.3828 -0.1517 -0.5584
 3726TIP3   OH232592   2.304   2.679  13.033 -0.1936  0.0801 -0.2444
 3726TIP3    H132593   2.251   2.753  13.064  1.8968  1.0350  1.2658
 3726TIP3    H232594   2.253   2.601  13.055 -0.9217  0.9631  1.2913
 3727TIP3   OH232595   2.891   4.859  15.152  0.4873  0.2569  0.0922
 3727TIP3    H132596   2.885   4.860  15.057 -1.2369  2.4676  0.1830
 3727TIP3    H232597   2.964   4.917  15.172  0.6491  0.0377  0.1435
 3728TIP3   OH232598   2.595   5.011   5.529  0.6770  0.2004  0.4799
 3728TIP3    H132599   2.550   4.949   5.472  1.4446  0.4041 -0.3492
 3728TIP3    H232600   2.629   4.957   5.601  2.4512 -0.5534 -0.8958
 3729TIP3   OH232601   0.146   3.004   0.326  0.2447 -0.5233 -0.0614
 3729TIP3    H132602   0.208   3.031   0.394  0.1738  2.0969 -0.9867
 3729TIP3    H232603   0.142   3.079   0.266 -1.4855 -1.8648 -1.6757
 3730TIP3   OH232604   5.873   2.145  13.533  0.5721 -0.1935 -0.2576
 3730TIP3    H132605   5.864   2.189  13.448 -0.8127  0.0142 -0.0201
 3730TIP3    H232606   5.959   2.172  13.565 -0.1955  2.2766 -0.1783
 3731TIP3   OH232607   2.565   3.800  12.103 -0.0378  0.2286 -0.2277
 3731TIP3    H132608   2.527   3.733  12.047  1.5866 -3.1982  2.6068
 3731TIP3    H232609   2.494   3.823  12.163  0.7787 -2.4830  1.8359
 3732TIP3   OH232610   4.628   0.163   2.442  0.0803  0.2488  0.1012
 3732TIP3    H132611   4.542   0.181   2.402  0.5376 -1.2455 -1.6283
 3732TIP3    H232612   4.691   0.195   2.378  0.8313 -1.1110  0.1641
 3733TIP3   OH232613   4.223   5.027  12.504  0.2032 -0.3316  0.0593
 3733TIP3    H132614   4.134   5.061  12.512 -0.2489 -1.2838 -0.7776
 3733TIP3    H232615   4.248   5.047  12.413  0.8473 -0.0341  0.3044
 3734TIP3   OH232616   1.811   2.005  13.853  0.3300 -0.1348 -0.2361
 3734TIP3    H132617   1.786   2.095  13.832 -0.9536 -0.6645 -1.0111
 3734TIP3    H232618   1.829   1.964  13.768 -0.1590 -0.9108  0.0221
 3735TIP3   OH232619   1.055   4.290   5.233 -0.2309  0.3558 -0.1641
 3735TIP3    H132620   1.089   4.214   5.280 -0.3676  0.8224  0.7048
 3735TIP3    H232621   0.987   4.255   5.176 -1.1361 -0.0228  1.1266
 3736TIP3   OH232622   5.749   2.658  11.054  0.0668 -0.1074  0.3189
 3736TIP3    H132623   5.678   2.660  10.989 -0.9080 -1.1801  1.3358
 3736TIP3    H232624   5.814   2.598  11.017  1.0782  1.8962 -1.2367
 3737TIP3   OH232625   3.262   2.613  10.262 -0.1768 -0.1509 -0.3530
 3737TIP3    H132626   3.272   2.707  10.278 -2.0628 -0.2394  1.5407
 3737TIP3    H232627   3.316   2.572  10.330 -1.3234 -0.4396  0.3996
 3738TIP3   OH232628   5.173   1.798  13.009 -0.0399 -0.1679  0.1490
 3738TIP3    H132629   5.209   1.737  13.074 -0.2005 -0.4838 -0.0571
 3738TIP3    H232630   5.153   1.877  13.059  0.7500 -0.0577  0.3017
 3739TIP3   OH232631   2.812   0.872  16.253  0.5001  0.2049  0.2945
 3739TIP3    H132632   2.844   0.917  16.175  0.9580 -0.2549  0.2177
 3739TIP3    H232633   2.716   0.872  16.243  0.4428  1.8118  0.6641
 3740TIP3   OH232634   0.275   1.699   5.595  0.3597 -0.4586 -0.7027
 3740TIP3    H132635   0.237   1.781   5.627  2.6141  0.2837  0.1916
 3740TIP3    H232636   0.288   1.714   5.501 -0.8995 -0.4756 -0.8885
 3741TIP3   OH232637   1.663   2.371  11.080 -0.3919 -0.0357  0.1373
 3741TIP3    H132638   1.605   2.314  11.131 -1.6746  0.5718 -0.6314
 3741TIP3    H232639   1.624   2.458  11.088  1.0456  0.5832  0.5367
 3742TIP3   OH232640   0.891   0.738   0.006 -0.3778 -0.0223 -0.2624
 3742TIP3    H132641   0.814   0.787   0.035  0.2166  1.1861 -0.6944
 3742TIP3    H232642   0.948   0.735   0.084 -0.4186 -0.0339 -0.2318
 3743TIP3   OH232643   3.866   4.439   6.350 -0.2127  0.0243 -0.2486
 3743TIP3    H132644   3.944   4.473   6.307 -0.5387 -0.1238 -0.9569
 3743TIP3    H232645   3.899   4.376   6.414  0.2441 -0.0631 -0.5745
 3744TIP3   OH232646   2.545   2.719   0.715 -0.3829 -0.5615 -0.0489
 3744TIP3    H132647   2.558   2.625   0.724 -1.5807 -0.7948 -0.6813
 3744TIP3    H232648   2.454   2.734   0.741  0.4969  0.7809  2.4723
 3745TIP3   OH232649   6.125   0.538   2.153  0.4710 -0.1617  0.5909
 3745TIP3    H132650   6.196   0.509   2.095  2.3373  2.1592  1.6133
 3745TIP3    H232651   6.160   0.526   2.241 -0.4695  0.8532  1.1181
 3746TIP3   OH232652   0.076   0.892   5.502 -0.1530 -0.2532 -0.1758
 3746TIP3    H132653  -0.013   0.926   5.489 -0.0363  1.0048  2.0666
 3746TIP3    H232654   0.133   0.966   5.483  0.4050 -0.8642 -0.9234
 3747TIP3   OH232655   4.902   3.283  11.320  0.5416  0.0179 -0.1566
 3747TIP3    H132656   4.962   3.256  11.251  1.6820  0.1872  0.7597
 3747TIP3    H232657   4.824   3.229  11.306  0.7946 -0.0225 -1.5004
 3748TIP3   OH232658   1.391   3.719  14.874 -0.8826  0.0781  0.0390
 3748TIP3    H132659   1.303   3.703  14.907 -0.2164 -1.7156  1.0378
 3748TIP3    H232660   1.438   3.754  14.949 -0.2663 -0.7526  0.0506
 3749TIP3   OH232661   2.577   2.185   0.719 -0.7272 -0.0916  0.6943
 3749TIP3    H132662   2.539   2.138   0.793 -0.2562 -0.6552  0.5818
 3749TIP3    H232663   2.671   2.186   0.737 -0.7910  1.4122  1.0407
 3750TIP3   OH232664   3.216   2.004   5.895  0.0378 -0.4152  0.4127
 3750TIP3    H132665   3.237   1.947   5.821 -0.4305 -0.9032  0.6478
 3750TIP3    H232666   3.273   1.974   5.965  0.1730 -0.2372  0.3809
 3751TIP3   OH232667   3.886   3.059  16.826 -0.1777 -0.4522 -0.1736
 3751TIP3    H132668   3.831   3.099  16.894  0.5678  1.4166 -0.6448
 3751TIP3    H232669   3.826   3.000  16.779 -1.2776  0.0152  0.6185
 3752TIP3   OH232670   4.783   2.465   3.491  0.1441 -0.5941 -0.1926
 3752TIP3    H132671   4.711   2.408   3.463 -0.4848  0.1819 -0.1608
 3752TIP3    H232672   4.743   2.551   3.501  0.8623 -0.3845  0.8783
 3753TIP3   OH232673   3.596   1.170  14.389  0.6091  0.5729 -0.2995
 3753TIP3    H132674   3.653   1.211  14.454  2.2501  0.2548 -1.5131
 3753TIP3    H232675   3.553   1.243  14.344  1.2750  0.8647 -0.4601
 3754TIP3   OH232676   2.836   0.012  15.415  0.0941  0.6515 -0.1454
 3754TIP3    H132677   2.867  -0.005  15.326  1.0790  0.2767  0.2581
 3754TIP3    H232678   2.896   0.080  15.449 -0.4416  0.9864  0.1343
 3755TIP3   OH232679   1.961   0.777   5.160 -0.6964  0.2920  0.4860
 3755TIP3    H132680   2.003   0.709   5.108  0.5938  1.1233  0.4181
 3755TIP3    H232681   1.970   0.748   5.251 -1.2424 -0.2222  0.3780
 3756TIP3   OH232682   3.220   1.406   5.247  0.3896  0.1211 -0.1244
 3756TIP3    H132683   3.288   1.440   5.189 -0.7749 -0.2132 -1.7210
 3756TIP3    H232684   3.140   1.410   5.195 -0.7708  0.2883  1.6493
 3757TIP3   OH232685   2.849   0.742  14.715  0.1756  0.0129  0.2907
 3757TIP3    H132686   2.779   0.679  14.732 -2.4131  2.1246 -2.0379
 3757TIP3    H232687   2.889   0.757  14.800 -1.3765 -2.1831  1.4646
 3758TIP3   OH232688   3.882   3.633  11.517 -0.3094 -0.0322 -0.1559
 3758TIP3    H132689   3.932   3.662  11.440  0.8889 -1.6084 -0.0013
 3758TIP3    H232690   3.868   3.539  11.503 -2.0633  0.1169  0.4792
 3759TIP3   OH232691   2.204   2.555   1.008 -0.0877 -0.1776 -0.2454
 3759TIP3    H132692   2.182   2.462   1.016 -0.7410 -0.2370 -2.5578
 3759TIP3    H232693   2.291   2.562   1.047 -0.6742 -1.4718  1.3533
 3760TIP3   OH232694   5.339   2.889   0.532  0.1789  0.3717  0.0140
 3760TIP3    H132695   5.331   2.794   0.521 -0.0734  0.5241 -1.1598
 3760TIP3    H232696   5.371   2.900   0.621  0.3313 -0.8279  0.1134
 3761TIP3   OH232697   5.672   3.658   3.500 -0.5749  0.4330 -0.2119
 3761TIP3    H132698   5.599   3.605   3.469 -1.4908  2.5856 -1.8755
 3761TIP3    H232699   5.645   3.690   3.586  0.0029 -1.7684  0.8239
 3762TIP3   OH232700   6.597   3.860   3.169  0.0516 -0.4166 -0.0518
 3762TIP3    H132701   6.612   3.772   3.136  2.0706 -0.6167  1.3150
 3762TIP3    H232702   6.679   3.907   3.152  0.4732  0.0115  2.8272
 3763TIP3   OH232703   3.849   2.141  16.064  0.2382 -0.5058  0.3891
 3763TIP3    H132704   3.869   2.143  16.158  0.5548 -0.6255  0.3269
 3763TIP3    H232705   3.755   2.121  16.060 -0.3269  1.9846  0.7240
 3764TIP3   OH232706   2.064   4.224   1.094 -0.2759 -0.4640 -0.5379
 3764TIP3    H132707   2.074   4.226   1.189 -0.7408 -0.1680 -0.4910
 3764TIP3    H232708   2.143   4.180   1.062 -0.4539 -1.2158  0.0368
 3765TIP3   OH232709   5.418   4.240  17.230 -0.2854  0.4053 -0.2324
 3765TIP3    H132710   5.381   4.184  17.299  1.4153 -0.7799 -0.2537
 3765TIP3    H232711   5.424   4.326  17.271  0.3687 -0.2062  0.9925
 3766TIP3   OH232712   5.105   0.167   4.854 -0.3796  0.2142 -0.6000
 3766TIP3    H132713   5.021   0.123   4.869 -0.8673  1.0141 -0.9386
 3766TIP3    H232714   5.150   0.161   4.938 -0.2762 -1.2579 -0.7475
 3767TIP3   OH232715   2.262   0.281  15.076  0.4943  0.5630  0.1159
 3767TIP3    H132716   2.297   0.212  15.020 -1.5080 -0.5004  0.1478
 3767TIP3    H232717   2.201   0.329  15.020 -0.0600  0.7048  0.8332
 3768TIP3   OH232718   0.023   5.059  12.175 -0.2622 -0.3457  0.1089
 3768TIP3    H132719   0.026   5.155  12.166 -1.2051 -0.4952 -2.1977
 3768TIP3    H232720   0.112   5.031  12.154  0.3915  0.1041  2.1867
 3769TIP3   OH232721   5.626   2.648   1.438 -0.1527 -0.2502 -0.5707
 3769TIP3    H132722   5.609   2.624   1.529 -2.8854 -1.1062 -1.2729
 3769TIP3    H232723   5.721   2.662   1.435 -0.0284 -0.1345  2.4042
 3770TIP3   OH232724   2.296   6.714  11.351 -0.3666  0.1412 -0.0766
 3770TIP3    H132725   2.305   6.691  11.259 -0.2778 -0.9953  0.2019
 3770TIP3    H232726   2.357   6.655  11.397 -1.0836  0.0454  0.7790
 3771TIP3   OH232727   5.683   6.162   3.323  0.3994  0.3112 -0.0855
 3771TIP3    H132728   5.730   6.089   3.365  0.6211 -0.5918 -1.8507
 3771TIP3    H232729   5.739   6.238   3.338  1.5712 -0.4261 -0.6298
 3772TIP3   OH232730   2.098   1.766   2.447 -0.8642 -0.6005 -0.3485
 3772TIP3    H132731   2.123   1.800   2.361 -0.4592 -1.3216 -0.5213
 3772TIP3    H232732   2.169   1.707   2.471 -0.3441  0.5769  1.0705
 3773TIP3   OH232733   1.260   2.156   3.301  0.4818  0.2112 -0.2418
 3773TIP3    H132734   1.327   2.218   3.328  0.8323  0.4824 -1.6592
 3773TIP3    H232735   1.303   2.100   3.236 -0.3611 -0.2740 -0.3961
 3774TIP3   OH232736   6.237   0.513  12.270 -0.2213 -0.3402 -0.0279
 3774TIP3    H132737   6.329   0.527  12.291 -0.0079 -0.6337 -0.7496
 3774TIP3    H232738   6.221   0.421  12.292 -0.0906 -0.5513 -0.8003
 3775TIP3   OH232739   1.446   2.026  11.546  0.6983  0.0461 -0.1022
 3775TIP3    H132740   1.519   2.070  11.502 -0.1021  1.1940 -0.2878
 3775TIP3    H232741   1.487   1.983  11.622  1.5246  0.9067 -0.0523
 3776TIP3   OH232742   1.774   2.322  13.972 -0.4844 -0.1108 -0.0256
 3776TIP3    H132743   1.730   2.260  13.915 -0.9286 -0.4714  0.7069
 3776TIP3    H232744   1.705   2.381  14.002 -0.3801 -0.3603  0.7151
 3777TIP3   OH232745   3.685   5.698   3.426  0.1712  0.4790 -0.3383
 3777TIP3    H132746   3.621   5.712   3.496  2.0529  1.1122  1.2862
 3777TIP3    H232747   3.700   5.785   3.389 -0.1555  0.2771 -0.9539
 3778TIP3   OH232748   4.031   1.263   3.788  0.5366  0.0172 -0.1656
 3778TIP3    H132749   4.095   1.334   3.791  0.3711  0.2532 -1.9374
 3778TIP3    H232750   4.065   1.203   3.722 -0.5500 -0.3710 -0.3718
 3779TIP3   OH232751   3.952   3.943   4.457  0.2505 -0.0391  0.5943
 3779TIP3    H132752   3.859   3.967   4.452  0.6735  1.3189 -1.3643
 3779TIP3    H232753   3.998   4.027   4.459  1.5427 -0.6850 -0.9447
 3780TIP3   OH232754   4.541   5.601  16.342  0.0057  0.4392  0.1645
 3780TIP3    H132755   4.614   5.540  16.326 -0.8411 -1.4300  3.0005
 3780TIP3    H232756   4.480   5.584  16.270  1.0884 -0.0074 -0.6741
 3781TIP3   OH232757   1.618   1.033   2.398  0.6896  0.0553  0.8160
 3781TIP3    H132758   1.557   1.073   2.335 -1.8799 -0.8305  2.6341
 3781TIP3    H232759   1.623   0.941   2.372  1.0716  0.0767  0.8096
 3782TIP3   OH232760   5.493   6.582   0.379  0.2670 -0.2683 -0.7748
 3782TIP3    H132761   5.580   6.596   0.342  1.3690  0.4407  1.9524
 3782TIP3    H232762   5.448   6.666   0.370  0.2530 -0.3229 -1.1997
 3783TIP3   OH232763   3.366   2.561  15.991 -0.4548  0.2478 -0.3705
 3783TIP3    H132764   3.392   2.487  15.935 -1.2294 -0.1049 -0.2776
 3783TIP3    H232765   3.272   2.570  15.976 -0.9363 -0.7281  1.9122
 3784TIP3   OH232766   2.359   3.705  15.583  0.2067  0.0436 -0.1420
 3784TIP3    H132767   2.268   3.675  15.578 -0.4368  1.7801  0.4055
 3784TIP3    H232768   2.411   3.625  15.588 -1.3955 -0.9721  1.0220
 3785TIP3   OH232769   0.266   4.699   1.585 -0.5374 -0.5773  0.0030
 3785TIP3    H132770   0.283   4.788   1.615 -1.3715 -0.4782  0.1832
 3785TIP3    H232771   0.351   4.668   1.553 -0.4653  0.6354 -1.0026
 3786TIP3   OH232772   0.801   1.659  16.335  0.3612  0.3381 -0.6994
 3786TIP3    H132773   0.808   1.742  16.382 -1.2954  0.6629 -0.9913
 3786TIP3    H232774   0.707   1.647  16.321  0.6862 -0.8160 -2.0365
 3787TIP3   OH232775   5.051   6.192   5.218  0.7189  0.5189  0.0933
 3787TIP3    H132776   4.990   6.248   5.266 -0.0704 -0.7551  0.6126
 3787TIP3    H232777   5.108   6.154   5.285  0.4574 -0.2492 -0.1118
 3788TIP3   OH232778   5.800   0.303   2.387 -0.2024 -0.0564  0.4044
 3788TIP3    H132779   5.759   0.231   2.436 -0.7950  0.3302  0.4800
 3788TIP3    H232780   5.871   0.333   2.443 -0.3508 -0.1721  0.6559
 3789TIP3   OH232781   5.370   3.675  13.826 -0.0241  0.1370 -0.4636
 3789TIP3    H132782   5.356   3.688  13.920 -1.3369  0.1666 -0.6449
 3789TIP3    H232783   5.435   3.741  13.802  1.4585 -0.8648  0.7033
 3790TIP3   OH232784   3.491   3.028  12.365 -0.6336 -0.0462 -0.1158
 3790TIP3    H132785   3.409   3.073  12.342 -0.7644 -0.1332  0.1723
 3790TIP3    H232786   3.518   3.068  12.448  1.4355  2.3756 -1.8951
 3791TIP3   OH232787   0.460   3.449   3.899 -0.1193 -0.1272 -0.1866
 3791TIP3    H132788   0.414   3.409   3.825 -0.6765  0.5677 -0.2252
 3791TIP3    H232789   0.466   3.542   3.876 -1.3369  0.3027  1.1598
 3792TIP3   OH232790   0.486   6.496  13.433  0.0628  0.5490  0.2004
 3792TIP3    H132791   0.411   6.516  13.376  1.5921 -0.7399 -2.3554
 3792TIP3    H232792   0.482   6.562  13.502 -1.4149  2.6601 -1.8220
 3793TIP3   OH232793   2.029   5.671  15.090 -0.1969 -0.2063  0.1457
 3793TIP3    H132794   2.022   5.638  15.000 -0.6528  1.2520 -0.3696
 3793TIP3    H232795   1.940   5.699  15.112 -0.5896 -2.7251  1.9255
 3794TIP3   OH232796   4.499   5.000   1.614  0.5048  0.5078  0.2866
 3794TIP3    H132797   4.423   5.033   1.566  0.5226  0.7494  0.4201
 3794TIP3    H232798   4.539   4.936   1.556  0.3384  0.5617  0.1146
 3795TIP3   OH232799   1.901   6.686  15.710 -0.8769  0.2165  0.2734
 3795TIP3    H132800   1.877   6.779  15.705  1.0983  0.7305 -0.3598
 3795TIP3    H232801   1.893   6.655  15.620 -0.9225 -0.0572  0.3720
 3796TIP3   OH232802   3.319   3.797  17.059 -0.3559  0.0195  0.4177
 3796TIP3    H132803   3.389   3.855  17.087 -1.3582  0.4603  2.0712
 3796TIP3    H232804   3.284   3.760  17.140 -1.7441 -0.5420 -0.4144
 3797TIP3   OH232805   3.025   3.382  15.130 -0.5325  0.3116  0.0777
 3797TIP3    H132806   3.039   3.460  15.077  0.4135 -1.1139 -1.8293
 3797TIP3    H232807   3.080   3.396  15.208 -0.3666  1.5323 -0.2482
 3798TIP3   OH232808   0.247   4.609  15.466 -0.4488 -0.1428  0.5725
 3798TIP3    H132809   0.241   4.539  15.402 -2.0818  0.2743  0.2286
 3798TIP3    H232810   0.309   4.671  15.429  1.9678 -1.9481  1.4446
 3799TIP3   OH232811   4.357   1.068  12.836 -0.7644  0.1530 -0.1308
 3799TIP3    H132812   4.276   1.084  12.884 -0.9866 -2.6943  0.5228
 3799TIP3    H232813   4.331   1.013  12.762  0.6868 -1.4307  0.5244
 3800TIP3   OH232814   1.972   5.676  17.037 -0.2126  0.4148  0.0701
 3800TIP3    H132815   2.043   5.677  17.102 -0.4733 -0.9758  0.3938
 3800TIP3    H232816   1.928   5.593  17.052 -1.1390  0.7118 -0.9824
 3801TIP3   OH232817   0.220   1.594   2.118  0.6235  0.5432  0.2481
 3801TIP3    H132818   0.289   1.659   2.132  0.5105  0.8995 -0.8514
 3801TIP3    H232819   0.143   1.645   2.094  0.5316  0.0090 -0.6056
 3802TIP3   OH232820   0.516   4.417  11.769 -0.4260  0.6266  0.1216
 3802TIP3    H132821   0.519   4.401  11.864  0.0999  1.5967  0.2757
 3802TIP3    H232822   0.488   4.333  11.732 -0.2719  0.1257  1.1041
 3803TIP3   OH232823   2.302   1.589  17.154 -0.2618  0.0192 -0.8199
 3803TIP3    H132824   2.321   1.579  17.061 -0.7364 -2.7940 -0.6482
 3803TIP3    H232825   2.299   1.500  17.188 -1.7251  0.9276  1.5773
 3804TIP3   OH232826   2.988   0.390   0.488 -0.0299 -0.1874  0.1182
 3804TIP3    H132827   2.971   0.344   0.406 -1.2917 -0.2776  0.4195
 3804TIP3    H232828   3.045   0.463   0.464  1.3013 -1.4162 -0.4972
 3805TIP3   OH232829   1.890   3.360   0.384 -0.7477 -0.4532 -0.1174
 3805TIP3    H132830   1.874   3.301   0.310  0.3761 -2.9702  1.5696
 3805TIP3    H232831   1.977   3.396   0.366 -0.7712 -0.5150 -0.3649
 3806TIP3   OH232832   0.053   3.023  15.812  0.4936  0.4559  0.3282
 3806TIP3    H132833   0.018   3.109  15.837  0.3314  0.4724  0.0528
 3806TIP3    H232834   0.093   2.989  15.892 -0.1104  0.4600  0.6348
 3807TIP3   OH232835   0.891   2.202   0.838  0.4853 -0.0628  0.0277
 3807TIP3    H132836   0.874   2.248   0.756 -1.2407  0.8568  0.8781
 3807TIP3    H232837   0.837   2.123   0.832 -0.6262  0.6331  0.8165
 3808TIP3   OH232838   1.691   0.099   1.586 -0.1170 -0.0184  0.0965
 3808TIP3    H132839   1.623   0.158   1.621 -0.6592  0.4110 -1.6604
 3808TIP3    H232840   1.642   0.025   1.552  0.0642  1.4125 -3.4367
 3809TIP3   OH232841   0.750   1.764   2.842  0.0473  0.3788 -0.0862
 3809TIP3    H132842   0.832   1.762   2.793 -1.1253 -0.2285 -2.0963
 3809TIP3    H232843   0.759   1.693   2.906  0.2098 -1.1726 -1.7924
 3810TIP3   OH232844   2.442   1.455   2.948  0.0163  1.0445 -0.0929
 3810TIP3    H132845   2.422   1.445   2.855  0.8669 -0.4566 -0.1292
 3810TIP3    H232846   2.379   1.520   2.979 -0.9448  0.8097 -1.4952
 3811TIP3   OH232847   1.739   3.417  11.458 -0.0487 -0.1798  0.3857
 3811TIP3    H132848   1.803   3.441  11.526  1.1049  0.2741 -0.8375
 3811TIP3    H232849   1.748   3.485  11.392 -2.9420  0.7708  0.8860
 3812TIP3   OH232850   1.595   6.632  14.929  0.2432 -0.5605  0.2834
 3812TIP3    H132851   1.647   6.711  14.911  1.6372 -1.4596  0.2690
 3812TIP3    H232852   1.606   6.578  14.851  0.7198 -1.5167  0.9972
 3813TIP3   OH232853   0.393   2.386  15.061  0.1875 -0.6706 -0.2355
 3813TIP3    H132854   0.310   2.433  15.051 -0.0898 -0.9706  0.5988
 3813TIP3    H232855   0.460   2.454  15.059 -0.0676 -0.4392 -1.0537
 3814TIP3   OH232856   3.890   4.107  16.863  0.4864 -0.6919  0.3414
 3814TIP3    H132857   3.905   4.093  16.957 -0.5659  0.3860  0.6912
 3814TIP3    H232858   3.796   4.094  16.852  0.1453  1.8564 -0.0373
 3815TIP3   OH232859   4.631   2.200  15.563 -0.8140  0.3253 -0.1115
 3815TIP3    H132860   4.678   2.283  15.575 -0.6152  0.3369 -0.9636
 3815TIP3    H232861   4.543   2.226  15.537 -0.4347  0.2657 -1.5178
 3816TIP3   OH232862   5.721   4.029  14.209 -0.4854  0.1881 -0.5447
 3816TIP3    H132863   5.689   4.065  14.292 -1.2292 -0.7832 -0.4059
 3816TIP3    H232864   5.814   4.049  14.209 -0.3294 -0.4706  0.8800
 3817TIP3   OH232865   2.637   5.123   2.114 -0.2909 -0.2120 -0.2276
 3817TIP3    H132866   2.665   5.062   2.183  1.2629 -0.1667 -0.8053
 3817TIP3    H232867   2.629   5.068   2.036 -0.1742  0.0752 -0.4435
 3818TIP3   OH232868   2.660   4.216   5.867  0.4940  0.3604  0.4824
 3818TIP3    H132869   2.701   4.131   5.849 -1.8436 -0.3373 -1.8532
 3818TIP3    H232870   2.610   4.202   5.947  0.8691 -0.1828  0.6254
 3819TIP3   OH232871   2.330   0.733   4.092 -0.7872  0.0889 -0.4082
 3819TIP3    H132872   2.393   0.661   4.092 -0.2198  0.5789  0.2066
 3819TIP3    H232873   2.253   0.698   4.047 -0.6073 -0.9807  0.1036
 3820TIP3   OH232874   0.898   5.163   4.384  0.3736 -0.0572 -0.2582
 3820TIP3    H132875   0.881   5.103   4.457  2.4767  0.0858  0.3844
 3820TIP3    H232876   0.932   5.107   4.315  1.2317  0.2174 -0.0659
 3821TIP3   OH232877   3.511   5.740   3.665  0.4889  0.1674  0.1349
 3821TIP3    H132878   3.485   5.664   3.717 -1.4476  0.9848  0.4254
 3821TIP3    H232879   3.437   5.755   3.606  0.1245  2.7377  1.1658
 3822TIP3   OH232880   3.393   3.671   3.833 -0.9145 -0.7099 -0.0886
 3822TIP3    H132881   3.427   3.680   3.922 -1.1825 -1.8403  0.1250
 3822TIP3    H232882   3.471   3.663   3.778 -0.7895 -1.7026  0.2291
 3823TIP3   OH232883   6.205   0.345   3.545  0.6100  0.0752  1.0289
 3823TIP3    H132884   6.300   0.346   3.533  0.2418 -0.3611 -2.6140
 3823TIP3    H232885   6.172   0.408   3.481 -1.6134 -0.1346  1.8925
 3824TIP3   OH232886   6.653   0.039   2.327  0.1220  0.1830 -0.1211
 3824TIP3    H132887   6.717   0.007   2.390  1.5319 -0.2046 -1.7233
 3824TIP3    H232888   6.572  -0.006   2.350  0.8384 -0.6100  0.8675
 3825TIP3   OH232889   1.317   4.959  11.398 -0.0841  0.1708  0.0284
 3825TIP3    H132890   1.324   4.941  11.491  0.1477  1.9772  0.3780
 3825TIP3    H232891   1.401   5.001  11.375 -0.0422 -0.4599 -1.0425
 3826TIP3   OH232892   2.307   1.156   3.746 -0.5042 -0.7840 -0.2249
 3826TIP3    H132893   2.319   1.231   3.803  1.0241  1.1968 -3.0568
 3826TIP3    H232894   2.214   1.159   3.722 -0.8419 -0.8445  1.0339
 3827TIP3   OH232895   5.175   0.826   5.003  0.7054 -0.0389 -0.3140
 3827TIP3    H132896   5.136   0.811   5.089 -0.7066 -1.6722 -1.2147
 3827TIP3    H232897   5.123   0.897   4.965  0.5097 -0.2014 -0.3462
 3828TIP3   OH232898   3.644   6.648   2.578  0.1858  0.1437 -0.2110
 3828TIP3    H132899   3.715   6.670   2.517 -1.9429  2.2632 -2.0164
 3828TIP3    H232900   3.592   6.582   2.530 -0.7714  0.8695 -0.1839
 3829TIP3   OH232901   3.051   2.807  11.469 -0.3860 -0.0745 -0.1407
 3829TIP3    H132902   2.985   2.757  11.421  0.5559 -0.9690 -0.5160
 3829TIP3    H232903   3.042   2.778  11.559 -2.8082  2.3016  0.4549
 3830TIP3   OH232904   5.251   4.771  14.460  0.5395 -0.3732 -0.1250
 3830TIP3    H132905   5.277   4.781  14.552  0.1163 -1.9836  0.1976
 3830TIP3    H232906   5.330   4.743  14.416  0.2408 -1.7808  0.1901
 3831TIP3   OH232907   5.494   6.636  10.559  0.4431  0.0324 -0.1548
 3831TIP3    H132908   5.409   6.679  10.549  0.4514  0.0726 -0.0469
 3831TIP3    H232909   5.551   6.702  10.597  0.9772  0.5467 -1.8169
 3832TIP3   OH232910   5.622   5.725  17.226 -0.2719  0.3970 -0.3770
 3832TIP3    H132911   5.624   5.698  17.134  0.4914 -0.8166 -0.0236
 3832TIP3    H232912   5.538   5.692  17.259  0.2680 -0.8282 -0.1759
 3833TIP3   OH232913   5.214   1.339  16.082  0.1166  0.5421  0.1104
 3833TIP3    H132914   5.220   1.256  16.129 -0.5934  0.5969  0.3067
 3833TIP3    H232915   5.147   1.389  16.129  1.1486  1.5613  0.5026
 3834TIP3   OH232916   3.544   1.831  14.062  0.2346 -0.8189 -0.4132
 3834TIP3    H132917   3.524   1.899  14.127  0.9540 -0.9272 -0.0710
 3834TIP3    H232918   3.543   1.749  14.112  2.2498 -0.7442 -0.2351
 3835TIP3   OH232919   1.612   6.107  13.383 -0.3894  0.0039  0.1801
 3835TIP3    H132920   1.564   6.147  13.311 -0.0379 -1.7992 -1.0916
 3835TIP3    H232921   1.551   6.109  13.457 -0.4489  2.6504  0.1136
 3836TIP3   OH232922   2.826   1.043   5.405 -0.1440 -0.2667 -0.0113
 3836TIP3    H132923   2.823   0.948   5.410  1.0499 -0.2586  1.0995
 3836TIP3    H232924   2.914   1.063   5.372 -0.2707  0.4692  0.0736
 3837TIP3   OH232925   4.676   4.611   4.368  0.0973  0.2077  0.3747
 3837TIP3    H132926   4.694   4.530   4.319 -0.1308  1.5885 -2.0637
 3837TIP3    H232927   4.625   4.583   4.444 -0.1442 -1.9170 -0.5480
 3838TIP3   OH232928   4.929   5.962   4.174  0.2622 -0.0568  0.2504
 3838TIP3    H132929   5.023   5.974   4.167  0.2094  0.4594  0.4281
 3838TIP3    H232930   4.900   6.032   4.233 -0.4943  0.8891 -1.2257
 3839TIP3   OH232931   0.116   3.843  14.886  0.0838  0.7325  0.0068
 3839TIP3    H132932   0.196   3.894  14.895  0.0728  0.6261  0.7286
 3839TIP3    H232933   0.059   3.897  14.832 -0.0426  1.6325  1.0179
 3840TIP3   OH232934   4.584   6.341  14.221  0.1363  0.3248 -0.0347
 3840TIP3    H132935   4.507   6.352  14.165  0.4861  1.2986 -0.3320
 3840TIP3    H232936   4.547   6.322  14.308 -0.4739  1.9750  0.0847
 3841TIP3   OH232937   1.371   0.056  10.912  0.4153 -0.1896  0.1736
 3841TIP3    H132938   1.462   0.074  10.887  0.8072 -0.1556  1.5752
 3841TIP3    H232939   1.377  -0.022  10.968 -0.6160 -1.2317 -1.1295
 3842TIP3   OH232940   1.436   0.024  14.718  0.0455 -0.2786  0.1706
 3842TIP3    H132941   1.514   0.078  14.704  0.3367 -0.6903  0.1936
 3842TIP3    H232942   1.390   0.026  14.634  1.0738 -1.6041 -0.4407
 3843TIP3   OH232943   1.148   4.126   6.418  0.5243  0.0325  0.3387
 3843TIP3    H132944   1.221   4.132   6.357 -0.2390  0.3259 -0.5519
 3843TIP3    H232945   1.073   4.097   6.365 -0.1143  0.1575  1.1506
 3844TIP3   OH232946   2.226   5.386  14.351  0.9619  0.3670  0.3441
 3844TIP3    H132947   2.285   5.402  14.278 -1.2406 -1.1715 -1.8276
 3844TIP3    H232948   2.138   5.394  14.314 -0.2207  1.3231  3.2197
 3845TIP3   OH232949   4.199   3.682  14.948 -0.8342 -0.3980 -0.0278
 3845TIP3    H132950   4.106   3.695  14.967 -0.3344  0.6495  1.8324
 3845TIP3    H232951   4.237   3.769  14.951  0.2852 -0.8661 -0.3272
 3846TIP3   OH232952   4.308   5.767   4.993 -0.4334 -0.0712  0.1398
 3846TIP3    H132953   4.377   5.720   4.947 -0.6084 -1.6343  1.4274
 3846TIP3    H232954   4.320   5.743   5.085 -0.8453  2.0157  0.7627
 3847TIP3   OH232955   2.834   6.509   2.601 -0.1807 -0.3713 -0.6323
 3847TIP3    H132956   2.854   6.544   2.688 -3.8778  1.0511 -0.2907
 3847TIP3    H232957   2.889   6.560   2.542 -0.2933  1.1369  0.5415
 3848TIP3   OH232958   2.169   6.589  15.942 -0.0130  0.6707 -0.1838
 3848TIP3    H132959   2.122   6.565  15.862  1.3111  0.5517 -0.9433
 3848TIP3    H232960   2.149   6.519  16.004  0.6932 -0.3842 -1.1218
 3849TIP3   OH232961   0.450   2.092   2.623  0.4756  0.0642  0.4816
 3849TIP3    H132962   0.488   2.013   2.662  0.0257  0.3224  1.4549
 3849TIP3    H232963   0.453   2.158   2.693  1.6075  1.1617 -0.5666
 3850TIP3   OH232964   6.267   6.075  10.590 -0.8224 -0.6158 -0.3016
 3850TIP3    H132965   6.293   5.997  10.542 -1.9120 -1.8550  1.0512
 3850TIP3    H232966   6.205   6.043  10.655  0.8078  0.9331  2.1131
 3851TIP3   OH232967   3.138   6.509   0.567  0.3048  0.0368  0.0622
 3851TIP3    H132968   3.068   6.572   0.583  0.3644  0.5064 -1.4088
 3851TIP3    H232969   3.121   6.438   0.629  0.0423  1.3337  1.5035
 3852TIP3   OH232970   1.751   1.014   0.055  0.6208 -0.4053 -0.1976
 3852TIP3    H132971   1.677   1.010   0.116  0.5749  0.1619 -0.2173
 3852TIP3    H232972   1.745   0.932   0.005  1.4171 -1.4910  1.4296
 3853TIP3   OH232973   1.421   2.410   3.312 -0.3491  0.3136  0.0011
 3853TIP3    H132974   1.458   2.467   3.380  0.5071  1.4338 -1.3650
 3853TIP3    H232975   1.337   2.451   3.290 -0.6260 -0.0487  0.3863
 3854TIP3   OH232976   1.034   4.785  14.002 -0.3308 -0.1714 -0.4258
 3854TIP3    H132977   1.074   4.751  14.081 -0.8898  2.3473  1.0026
 3854TIP3    H232978   1.107   4.806  13.944  0.3077  1.4757  0.9403
 3855TIP3   OH232979   1.417   0.208  12.781 -0.3087  0.0262  0.1125
 3855TIP3    H132980   1.479   0.143  12.749 -1.1658 -0.3244 -0.8570
 3855TIP3    H232981   1.352   0.156  12.829  0.5827  0.4741  1.8710
 3856TIP3   OH232982   2.887   1.016   0.177  0.2496 -0.1265  0.4776
 3856TIP3    H132983   2.966   0.990   0.129  1.4904 -1.5669  3.2148
 3856TIP3    H232984   2.877   1.109   0.157 -0.4801 -1.0605 -4.1812
 3857TIP3   OH232985   6.663   3.742  16.285 -0.1062 -0.1615 -0.2078
 3857TIP3    H132986   6.733   3.678  16.277  2.2548  1.9999  1.9220
 3857TIP3    H232987   6.588   3.693  16.317  0.9053 -2.2655 -1.0000
 3858TIP3   OH232988   3.231   2.290  12.478 -0.0689  0.5635  0.2459
 3858TIP3    H132989   3.300   2.345  12.442  0.8677 -0.2056  0.8506
 3858TIP3    H232990   3.168   2.280  12.406  0.0195  1.9584 -0.0327
 3859TIP3   OH232991   0.838   2.588   0.706  0.0801 -0.3113  0.0177
 3859TIP3    H132992   0.827   2.495   0.690  0.9103 -0.4792  0.3814
 3859TIP3    H232993   0.779   2.608   0.778 -1.9451 -0.0310 -1.6698
 3860TIP3   OH232994   0.780   0.952   5.273 -0.6560 -0.0602  0.4420
 3860TIP3    H132995   0.812   0.901   5.198 -0.7996  1.6674 -0.8287
 3860TIP3    H232996   0.687   0.932   5.278 -0.3978 -1.1728  0.9759
 3861TIP3   OH232997   5.010   2.306  13.146 -0.5716 -0.3527  0.4937
 3861TIP3    H132998   5.089   2.258  13.173 -0.2450 -0.9162 -1.4190
 3861TIP3    H232999   4.988   2.270  13.061 -1.1220  1.9560 -0.3645
 3862TIP3   OH233000   0.532   2.895   0.837 -0.2801 -0.0335 -0.3256
 3862TIP3    H133001   0.537   2.887   0.742  0.5305  1.3609 -0.4114
 3862TIP3    H233002   0.621   2.919   0.864 -0.4064 -0.8261  0.8315
 3863TIP3   OH233003   6.188   6.507  12.793 -0.0275  0.0720  0.1894
 3863TIP3    H133004   6.199   6.433  12.733  3.4333 -0.0541  0.8424
 3863TIP3    H233005   6.094   6.522  12.796 -0.5828 -2.4745 -2.1663
 3864TIP3   OH233006   6.712   5.925  11.324  0.1770  0.3935  0.6289
 3864TIP3    H133007   6.769   5.901  11.397  1.8805 -0.9742 -1.1051
 3864TIP3    H233008   6.772   5.955  11.255 -1.1842 -0.6709 -1.0752
 3865TIP3   OH233009   3.060   5.668  13.357  0.0216  0.5913 -0.0868
 3865TIP3    H133010   3.063   5.697  13.448 -2.0869 -0.4216  0.3444
 3865TIP3    H233011   2.976   5.701  13.324 -0.6614 -1.6697 -0.7084
 3866TIP3   OH233012   3.591   5.329  13.879  0.5592  0.0666 -0.4244
 3866TIP3    H133013   3.628   5.242  13.888 -0.3292 -0.1963  0.7858
 3866TIP3    H233014   3.610   5.372  13.962  1.1181  1.0819 -1.0623
 3867TIP3   OH233015   2.813   3.745   0.736  0.1914  0.6600  0.4020
 3867TIP3    H133016   2.846   3.659   0.762  2.8543  1.8253  1.0674
 3867TIP3    H233017   2.804   3.739   0.641  0.4755 -0.2980  0.4240
 3868TIP3   OH233018   6.108   2.606   4.392  0.2782  0.1113 -0.5964
 3868TIP3    H133019   6.179   2.588   4.330 -1.3022 -2.2633 -1.8306
 3868TIP3    H233020   6.042   2.652   4.341  0.5680  1.6083  0.3446
 3869TIP3   OH233021   0.956   5.275  16.583 -0.1370 -0.0392 -0.3148
 3869TIP3    H133022   0.870   5.315  16.598  0.3979  1.2933 -0.6931
 3869TIP3    H233023   1.000   5.336  16.524 -0.3617 -2.6670 -3.2736
 3870TIP3   OH233024   1.309   4.536  16.880  0.0174  0.0435  0.6061
 3870TIP3    H133025   1.222   4.547  16.917  0.1925  0.6749  0.8365
 3870TIP3    H233026   1.294   4.516  16.788 -0.3592  0.5109  0.5657
 3871TIP3   OH233027   2.522   3.485  15.516 -0.4628 -0.0030 -0.2558
 3871TIP3    H133028   2.461   3.418  15.487 -0.6537 -0.5320  1.3004
 3871TIP3    H233029   2.591   3.437  15.561  0.6101  0.6683 -1.1577
 3872TIP3   OH233030   1.155   3.689   5.507  0.0742  0.1358  0.1059
 3872TIP3    H133031   1.127   3.668   5.596 -0.6455 -1.7494 -0.5394
 3872TIP3    H233032   1.236   3.640   5.495 -0.8713 -1.1970 -0.9389
 3873TIP3   OH233033   1.509   0.590   5.895 -0.0706  0.3513  0.1053
 3873TIP3    H133034   1.600   0.561   5.898 -0.0904  0.4270  2.3052
 3873TIP3    H233035   1.515   0.686   5.891 -0.0364  0.3337 -0.2146
 3874TIP3   OH233036   2.518   5.959   3.426 -0.0535 -0.9146 -0.4677
 3874TIP3    H133037   2.438   5.998   3.392  0.2682  0.6092  0.4911
 3874TIP3    H233038   2.581   5.966   3.354 -0.6464 -1.7421 -1.0776
 3875TIP3   OH233039   1.287   5.832  13.762  0.3876 -0.2140 -0.5772
 3875TIP3    H133040   1.366   5.778  13.757 -1.0673 -2.3074 -1.9437
 3875TIP3    H233041   1.320   5.922  13.769  2.8847 -1.0697 -0.7142
 3876TIP3   OH233042   2.224   3.313  11.752 -0.0215  0.9700 -0.1367
 3876TIP3    H133043   2.203   3.256  11.827  1.7847  2.4704  1.5783
 3876TIP3    H233044   2.306   3.278  11.718 -0.3863  0.8383 -0.8897
 3877TIP3   OH233045   5.987   6.640   1.929  0.6476 -0.2224 -0.1754
 3877TIP3    H133046   5.972   6.617   1.837  1.0628 -0.9573 -0.0616
 3877TIP3    H233047   5.972   6.559   1.977 -2.3894  0.8140  0.7347
 3878TIP3   OH233048   1.343   5.881  12.286 -0.3932  0.3002  0.0690
 3878TIP3    H133049   1.382   5.851  12.204  1.5404  0.2415  0.9784
 3878TIP3    H233050   1.284   5.810  12.312 -1.3339  0.5114 -1.4702
 3879TIP3   OH233051   6.168   5.200   0.850 -0.5852 -0.2158  0.0140
 3879TIP3    H133052   6.193   5.118   0.808 -2.3180 -0.4236 -0.6618
 3879TIP3    H233053   6.236   5.262   0.824 -0.3354 -0.9463 -1.1049
 3880TIP3   OH233054   6.380   0.786  13.289 -0.4271  0.8592  0.1385
 3880TIP3    H133055   6.387   0.882  13.286 -1.4587  1.0241  2.1086
 3880TIP3    H233056   6.403   0.763  13.379 -1.6443 -0.5903  0.1008
 3881TIP3   OH233057   1.067   1.104   0.870 -0.0637 -0.1687  0.1769
 3881TIP3    H133058   1.005   1.032   0.878  0.7074 -0.8606 -0.0184
 3881TIP3    H233059   1.125   1.094   0.945  0.0963  0.2048  0.1043
 3882TIP3   OH233060   0.919   0.061  11.105 -0.0234 -0.2961  0.2160
 3882TIP3    H133061   0.847   0.122  11.088 -0.7442 -1.7320 -2.1158
 3882TIP3    H233062   0.983   0.081  11.036  2.1147  1.3309  2.5695
 3883TIP3   OH233063   2.882   1.625   5.352  0.1045 -0.2866 -0.4621
 3883TIP3    H133064   2.833   1.681   5.291  0.3567 -0.1348 -0.5273
 3883TIP3    H233065   2.938   1.572   5.296 -0.0354 -0.5117 -0.3918
 3884TIP3   OH233066   2.742   5.778   5.198 -0.3971  0.1737 -0.1554
 3884TIP3    H133067   2.674   5.713   5.215  0.1286  0.0268  1.4693
 3884TIP3    H233068   2.695   5.856   5.171 -1.1718 -0.1831  0.1486
 3885TIP3   OH233069   3.249   5.568   0.456  0.0042 -0.2368 -0.8133
 3885TIP3    H133070   3.248   5.663   0.466  1.6629 -0.0187 -2.3988
 3885TIP3    H233071   3.337   5.549   0.423  0.3961 -2.5247  1.3863
 3886TIP3   OH233072   5.607   4.412  17.100  0.2593  0.1247  0.0050
 3886TIP3    H133073   5.555   4.332  17.094  0.7051 -0.3749  2.3509
 3886TIP3    H233074   5.695   4.381  17.122  1.1600  1.0813 -2.1478
 3887TIP3   OH233075   6.574   4.654  12.375  0.3038  0.4293 -0.2456
 3887TIP3    H133076   6.616   4.739  12.357 -1.3374  1.2098 -0.4889
 3887TIP3    H233077   6.557   4.656  12.469  0.5173  0.2514 -0.2036
 3888TIP3   OH233078   1.394   3.402   0.554  0.1321 -0.4863 -0.1202
 3888TIP3    H133079   1.391   3.430   0.646 -0.5846 -0.4798 -0.1436
 3888TIP3    H233080   1.312   3.355   0.541 -1.2872  2.3141 -1.6416
 3889TIP3   OH233081   3.363   0.800  13.901  0.3150 -0.3308  0.0351
 3889TIP3    H133082   3.443   0.746  13.900  1.2316  1.0046  0.1195
 3889TIP3    H233083   3.393   0.888  13.879 -1.2382  0.0710 -0.5198
 3890TIP3   OH233084   4.065   1.376  12.695  0.3402 -0.2684 -0.2243
 3890TIP3    H133085   4.059   1.399  12.602 -0.7646 -0.5733 -0.2370
 3890TIP3    H233086   3.996   1.428  12.737  1.0570  0.1264  0.4831
 3891TIP3   OH233087   1.067   4.005  17.094 -0.0006 -0.4702  0.1519
 3891TIP3    H133088   1.109   4.089  17.075  2.1838 -1.3741  0.8559
 3891TIP3    H233089   1.059   4.003  17.190  0.2745 -1.2153  0.1649
 3892TIP3   OH233090   3.335   1.587   3.401 -0.2185 -0.0743 -0.4724
 3892TIP3    H133091   3.359   1.541   3.481  0.2976  0.0082 -0.5740
 3892TIP3    H233092   3.415   1.635   3.377 -0.7345  0.8524 -0.3761
 3893TIP3   OH233093   1.071   1.621  16.260 -0.1578  0.1044 -0.0396
 3893TIP3    H133094   0.981   1.650  16.272 -0.0623 -0.2137  1.5328
 3893TIP3    H233095   1.125   1.698  16.280  0.0892 -1.0125  3.9901
 3894TIP3   OH233096   4.809   4.380   2.462 -0.0476  0.6613 -0.1878
 3894TIP3    H133097   4.814   4.424   2.378 -1.1677  1.7388  0.2928
 3894TIP3    H233098   4.781   4.448   2.524 -0.2539 -0.3413  0.8588
 3895TIP3   OH233099   0.563   1.400   3.866 -0.0223 -0.5209  0.6166
 3895TIP3    H133100   0.646   1.373   3.905 -0.5817  0.3515  2.4750
 3895TIP3    H233101   0.497   1.374   3.930 -1.0366  0.2077 -0.1189
 3896TIP3   OH233102   3.174   3.132  12.145  0.3324 -0.1621 -0.0147
 3896TIP3    H133103   3.217   3.195  12.204  1.2027  1.2548 -2.0888
 3896TIP3    H233104   3.104   3.094  12.198  1.9972 -0.0124  2.3901
 3897TIP3   OH233105   4.696   0.624   4.883 -0.0230 -0.4494  0.0103
 3897TIP3    H133106   4.770   0.563   4.891  0.1035 -0.2557  0.3311
 3897TIP3    H233107   4.692   0.668   4.968 -0.8238 -0.8099  0.1532
 3898TIP3   OH233108   6.109   4.749   4.838 -0.0164 -0.1068  0.7579
 3898TIP3    H133109   6.131   4.656   4.823  0.0376  0.1144 -0.6326
 3898TIP3    H233110   6.030   4.747   4.892 -0.2632 -0.9691  0.3756
 3899TIP3   OH233111   1.096   5.366   2.002 -0.4441 -0.5726 -0.1693
 3899TIP3    H133112   1.091   5.431   1.932 -0.4757  0.0300  0.3870
 3899TIP3    H233113   1.029   5.393   2.065  1.5500  0.6083  1.5175
 3900TIP3   OH233114   2.237   1.921  12.181  0.0842  0.4783 -0.0796
 3900TIP3    H133115   2.316   1.884  12.141 -0.2841 -1.4086  0.8474
 3900TIP3    H233116   2.252   2.015  12.182  1.0663  0.3877 -2.5617
 3901TIP3   OH233117   3.681   6.233   4.943 -0.3107 -0.1931  0.5858
 3901TIP3    H133118   3.601   6.251   4.992  0.5393  0.0233  1.9397
 3901TIP3    H233119   3.680   6.296   4.871 -1.2310 -0.0244  0.7413
 3902TIP3   OH233120   0.326   0.553  15.315  0.2788 -0.0518 -0.0743
 3902TIP3    H133121   0.295   0.618  15.253 -2.7786 -1.2284  0.1339
 3902TIP3    H233122   0.328   0.599  15.399  0.0093  0.2860 -0.2530
 3903TIP3   OH233123   3.028   5.381  12.693  0.5274 -0.4422  0.3443
 3903TIP3    H133124   2.994   5.417  12.612  1.3327 -0.0122  0.1877
 3903TIP3    H233125   3.114   5.422  12.703 -0.2209  0.7378  2.2385
 3904TIP3   OH233126   3.554   6.190  12.931  0.5150 -0.2796 -0.3075
 3904TIP3    H133127   3.593   6.195  12.843 -1.9868 -0.6633 -1.4683
 3904TIP3    H233128   3.538   6.281  12.955 -2.1516 -0.3166 -1.8169
 3905TIP3   OH233129   0.364   2.219   3.282  0.2724  0.2325 -1.0526
 3905TIP3    H133130   0.413   2.145   3.246  0.7093  1.0404 -2.1211
 3905TIP3    H233131   0.336   2.269   3.206 -1.6834  0.1256 -0.4293
 3906TIP3   OH233132   5.865   0.224   0.921  0.1135 -0.2260  0.3760
 3906TIP3    H133133   5.865   0.320   0.918  1.4586 -0.2342 -0.1697
 3906TIP3    H233134   5.957   0.200   0.932 -0.2630 -1.4461  0.9066
 3907TIP3   OH233135   6.700   1.485   2.675  0.2676 -0.0646  1.2119
 3907TIP3    H133136   6.769   1.490   2.609  0.6440  1.0424  1.6961
 3907TIP3    H233137   6.697   1.392   2.699  1.2492 -0.1959  0.8441
 3908TIP3   OH233138   4.309   4.324  13.485 -0.0495 -0.3290  0.0375
 3908TIP3    H133139   4.314   4.420  13.483  0.7074 -0.3231  1.4479
 3908TIP3    H233140   4.370   4.299  13.554 -0.4947 -1.8191 -0.1051
 3909TIP3   OH233141   4.986   1.396  11.887 -0.3989 -0.2553 -0.0987
 3909TIP3    H133142   5.070   1.435  11.911 -0.7818  0.5240  0.0095
 3909TIP3    H233143   4.989   1.308  11.924  0.1674 -0.0489  0.3589
 3910TIP3   OH233144   2.926   2.962   4.810 -0.2817 -0.1090 -0.2302
 3910TIP3    H133145   2.974   2.975   4.892  1.2763 -0.6402 -1.0343
 3910TIP3    H233146   2.960   3.031   4.752  3.0813 -3.4055 -2.3585
 3911TIP3   OH233147   1.361   1.306  12.225 -0.5168 -0.2714 -0.0809
 3911TIP3    H133148   1.319   1.221  12.220  0.6230 -0.8070 -0.6860
 3911TIP3    H233149   1.449   1.288  12.257  0.1949  0.5125 -1.5413
 3912TIP3   OH233150   4.438   3.399  12.712 -0.0061 -0.2156  0.4767
 3912TIP3    H133151   4.481   3.433  12.634 -0.7416 -2.1468 -0.8014
 3912TIP3    H233152   4.429   3.475  12.770  0.6153  1.2136 -1.2702
 3913TIP3   OH233153   2.966   0.220   1.133  0.1290  0.2358  0.2916
 3913TIP3    H133154   2.982   0.268   1.051 -0.3499 -0.8477 -0.4563
 3913TIP3    H233155   2.894   0.266   1.174  1.9645  2.2773  1.3323
 3914TIP3   OH233156   5.232   3.721  15.189 -0.0917 -0.0950  0.7453
 3914TIP3    H133157   5.182   3.764  15.258 -0.8966 -0.8257  0.6252
 3914TIP3    H233158   5.321   3.714  15.224 -0.3859 -0.0361  1.5128
 3915TIP3   OH233159   5.343   3.755   1.258 -0.2761  0.6556  0.5033
 3915TIP3    H133160   5.335   3.660   1.253  0.3309  0.6573 -0.9735
 3915TIP3    H233161   5.423   3.770   1.308  0.9059  0.3199 -1.2188
 3916TIP3   OH233162   6.069   1.606   4.857  0.1569  0.3584  0.1721
 3916TIP3    H133163   6.141   1.663   4.884  0.7438 -1.1031  1.7723
 3916TIP3    H233164   5.991   1.660   4.869  0.9228  1.7780 -1.0691
 3917TIP3   OH233165   5.687   3.864  10.604 -0.0482  0.3868  0.7117
 3917TIP3    H133166   5.637   3.925  10.658 -0.6420 -0.9359  1.6754
 3917TIP3    H233167   5.747   3.821  10.665  0.1907 -0.1751  0.0900
 3918TIP3   OH233168   1.486   0.523  13.255  0.0435 -0.2350  0.0913
 3918TIP3    H133169   1.393   0.504  13.249  0.0344 -0.4359  0.8816
 3918TIP3    H233170   1.514   0.535  13.164 -0.7394 -0.2233 -0.1467
 3919TIP3   OH233171   2.153   5.773  15.539  0.2426 -0.2013  0.4693
 3919TIP3    H133172   2.248   5.761  15.532  0.1795  0.4093 -1.8523
 3919TIP3    H233173   2.117   5.713  15.473 -0.9444  0.1458  0.7909
 3920TIP3   OH233174   0.019   3.084   1.263 -0.3319  0.3315  0.1798
 3920TIP3    H133175  -0.012   3.003   1.220  1.7220 -0.2724 -0.2337
 3920TIP3    H233176   0.101   3.058   1.305 -0.2808  1.9278  1.0725
 3921TIP3   OH233177   0.527   4.592   3.054  0.0682  0.3004  0.0050
 3921TIP3    H133178   0.525   4.623   3.144  3.1135 -0.2673  0.3152
 3921TIP3    H233179   0.583   4.655   3.008 -3.1858  1.8488 -2.0486
 3922TIP3   OH233180   1.428   5.154   5.310  0.0561 -0.2563 -0.5707
 3922TIP3    H133181   1.418   5.176   5.217  0.0003 -2.7461 -1.2058
 3922TIP3    H233182   1.345   5.113   5.334 -0.3634  1.3963  0.9328
 3923TIP3   OH233183   5.782   0.593  16.150  0.4370 -0.1517  0.0947
 3923TIP3    H133184   5.828   0.676  16.164 -0.3016 -0.1416  2.5305
 3923TIP3    H233185   5.765   0.591  16.056  0.8812  2.2276 -0.0507
 3924TIP3   OH233186   3.964   2.781  12.042  0.6818  0.0550  0.1960
 3924TIP3    H133187   3.989   2.859  11.993 -0.7664  1.3134  1.4043
 3924TIP3    H233188   3.890   2.809  12.096  0.4978 -2.0037  1.0709
 3925TIP3   OH233189   0.099   6.729  11.778  0.0110 -0.1897 -0.3538
 3925TIP3    H133190   0.112   6.706  11.870  0.7912 -2.7210 -1.0513
 3925TIP3    H233191   0.171   6.789  11.758  0.6937 -0.7859  0.2971
 3926TIP3   OH233192   3.863   4.298  14.466  0.0758  0.6759  0.2565
 3926TIP3    H133193   3.897   4.338  14.386  0.3226 -0.9901 -0.4949
 3926TIP3    H233194   3.799   4.234  14.436  1.6124 -1.4026  1.2519
 3927TIP3   OH233195   5.487   5.186   0.534 -0.2364 -0.7094 -0.8978
 3927TIP3    H133196   5.416   5.158   0.592 -0.5301 -1.1014 -1.4423
 3927TIP3    H233197   5.560   5.203   0.593 -1.2246  1.1820 -0.1818
 3928TIP3   OH233198   4.331   4.855   6.631 -0.4147  0.7097 -0.8135
 3928TIP3    H133199   4.363   4.870   6.720 -0.3529 -1.4779 -0.4427
 3928TIP3    H233200   4.408   4.830   6.582 -0.3865  2.2599 -1.6058
 3929TIP3   OH233201   3.998   2.822  13.122 -0.7140 -0.5159  0.2460
 3929TIP3    H133202   3.920   2.768  13.109 -0.2264 -1.2837  0.5014
 3929TIP3    H233203   4.071   2.760  13.120 -0.1010  0.2083 -0.0592
 3930TIP3   OH233204   4.657   5.767   0.687  0.6490  0.8299  0.3686
 3930TIP3    H133205   4.576   5.747   0.734  0.9696  1.1430  1.0485
 3930TIP3    H233206   4.723   5.709   0.725  1.4384  2.7242  1.9313
 3931TIP3   OH233207   1.291   6.445   0.239 -0.2791  0.1827  0.4854
 3931TIP3    H133208   1.213   6.496   0.219 -0.6438 -0.2461  0.7814
 3931TIP3    H233209   1.258   6.356   0.254  0.1767  0.1544  1.3472
 3932TIP3   OH233210   5.010   1.396  17.043 -0.2948  0.2466 -0.2171
 3932TIP3    H133211   4.940   1.340  17.010 -0.9634  0.2993  1.0864
 3932TIP3    H233212   5.074   1.335  17.080 -0.9716  0.3200  1.1013
 3933TIP3   OH233213   6.604   2.385  16.021  0.6151 -0.6431 -0.1120
 3933TIP3    H133214   6.631   2.296  16.045 -2.2542 -1.7064 -0.5751
 3933TIP3    H233215   6.521   2.398  16.068  1.0661  1.8560  0.0555
 3934TIP3   OH233216   5.160   1.237   1.989 -0.2121  0.3143  0.0646
 3934TIP3    H133217   5.096   1.285   2.041 -0.9056 -1.0646  0.4990
 3934TIP3    H233218   5.163   1.284   1.905 -0.3010  1.5577  0.7445
 3935TIP3   OH233219   1.489   6.122  14.190  0.2259  0.2064  0.2882
 3935TIP3    H133220   1.482   6.129  14.285  0.1454  1.8840  0.1817
 3935TIP3    H233221   1.541   6.042  14.175  0.8003  0.2920  1.7540
 3936TIP3   OH233222   1.945   4.024  12.295  0.4650 -0.8091  0.0417
 3936TIP3    H133223   1.851   4.029  12.280  0.2454 -0.2116  1.5000
 3936TIP3    H233224   1.984   4.076  12.225 -0.2361 -1.7096 -1.0315
 3937TIP3   OH233225   1.524   3.692  13.219  0.3127 -0.6443 -0.0287
 3937TIP3    H133226   1.553   3.687  13.310  0.4838  0.6191 -0.0048
 3937TIP3    H233227   1.436   3.655  13.220  0.5390 -1.1792  0.5386
 3938TIP3   OH233228   2.622   0.158  12.228  0.1047 -0.0987  0.3172
 3938TIP3    H133229   2.642   0.169  12.135  0.6844  0.1026  0.4667
 3938TIP3    H233230   2.574   0.238  12.251  0.7375  0.2549  0.4074
 3939TIP3   OH233231   5.771   3.411   3.763  0.5927 -0.5077  0.6804
 3939TIP3    H133232   5.772   3.404   3.858  2.7884 -1.0563  0.6607
 3939TIP3    H233233   5.741   3.500   3.745 -0.7101 -0.7073  1.8431
 3940TIP3   OH233234   0.305   6.688   5.314 -0.2040 -0.0116 -0.4280
 3940TIP3    H133235   0.306   6.668   5.408  1.6808 -0.2022 -0.4701
 3940TIP3    H233236   0.383   6.741   5.300 -1.6679  1.9133 -1.5147
 3941TIP3   OH233237   2.978   6.244  13.587 -0.1352  0.0711 -0.2220
 3941TIP3    H133238   2.975   6.227  13.681  0.1754  0.5439 -0.1245
 3941TIP3    H233239   3.028   6.170  13.551  0.3952  0.2855  0.0776
 3942TIP3   OH233240   1.494   5.338  10.892 -0.4554 -0.3599 -0.2547
 3942TIP3    H133241   1.534   5.360  10.807 -1.0278 -1.3161 -0.7834
 3942TIP3    H233242   1.450   5.419  10.919  0.0459  0.0631 -0.6846
 3943TIP3   OH233243   2.356   3.900   5.775 -0.4161 -0.7260  0.1225
 3943TIP3    H133244   2.291   3.854   5.722  0.1444  0.0791 -1.2899
 3943TIP3    H233245   2.323   3.989   5.783 -0.0720 -0.6192  0.3909
 3944TIP3   OH233246   2.831   3.908   1.634 -0.2864  0.2326 -0.0617
 3944TIP3    H133247   2.743   3.945   1.625 -0.4207  0.6396  2.3358
 3944TIP3    H233248   2.885   3.983   1.660  0.0193 -0.6749  2.0182
 3945TIP3   OH233249   6.090   2.196  11.745 -0.0622 -0.0993  0.2440
 3945TIP3    H133250   6.097   2.101  11.751 -1.4771 -0.2070  0.5586
 3945TIP3    H233251   6.039   2.221  11.822 -1.2389  0.7037 -0.7531
 3946TIP3   OH233252   0.589   2.895   0.046 -0.2634  0.4573  0.5834
 3946TIP3    H133253   0.586   2.848  -0.037  0.5919  0.2190  0.6762
 3946TIP3    H233254   0.498   2.920   0.064 -0.5330 -0.0183 -0.1183
 3947TIP3   OH233255   5.663   5.998  14.245  0.4513  0.4345  0.1790
 3947TIP3    H133256   5.701   6.025  14.162  0.8899  0.5606  0.4247
 3947TIP3    H233257   5.710   6.049  14.312 -0.0835  0.5362  0.4854
 3948TIP3   OH233258   3.875   4.987  11.637  0.4999  0.5217 -0.1122
 3948TIP3    H133259   3.779   4.988  11.635  0.5010  0.3260 -0.2895
 3948TIP3    H233260   3.901   5.048  11.567  0.5049  0.5887 -0.0522
 3949TIP3   OH233261   1.846   5.403   4.269 -0.1981 -0.2518  0.4795
 3949TIP3    H133262   1.777   5.410   4.335 -0.8578  1.6868 -0.3547
 3949TIP3    H233263   1.927   5.397   4.318 -0.8018 -0.3445  1.4708
 3950TIP3   OH233264   3.663   4.180   0.626  0.1497  0.5160 -0.3065
 3950TIP3    H133265   3.651   4.124   0.549 -1.2800  0.9011 -0.3842
 3950TIP3    H233266   3.750   4.158   0.659 -0.2215 -1.4271 -0.5914
 3951TIP3   OH233267   5.957   6.197  16.497 -0.0025 -0.2238  0.2885
 3951TIP3    H133268   5.920   6.192  16.585  0.4896 -0.6840  0.4683
 3951TIP3    H233269   5.920   6.121  16.451 -0.1069 -0.0910  0.1486
 3952TIP3   OH233270   5.997   6.302  11.677  0.6216 -0.0679 -0.1142
 3952TIP3    H133271   5.959   6.312  11.589  2.1652  0.5241 -0.7221
 3952TIP3    H233272   6.091   6.308  11.663  0.7951  2.1443  1.8826
 3953TIP3   OH233273   5.116   0.515   3.451 -0.1068  0.0765 -0.8548
 3953TIP3    H133274   5.120   0.502   3.357 -1.4237 -0.5579 -0.8221
 3953TIP3    H233275   5.091   0.430   3.487 -1.9636  0.9027 -0.1227
 3954TIP3   OH233276   0.333   3.901  11.393 -0.2246  0.2857  0.1406
 3954TIP3    H133277   0.424   3.881  11.372 -1.1583 -2.5781 -1.6422
 3954TIP3    H233278   0.313   3.847  11.470 -0.1776  1.6398  1.1255
 3955TIP3   OH233279   1.300   6.182  11.905  0.3380 -0.2132  0.3743
 3955TIP3    H133280   1.335   6.160  11.991 -1.0364 -0.6260  0.8533
 3955TIP3    H233281   1.373   6.222  11.858  1.0349  0.2267  1.8111
 3956TIP3   OH233282   2.924   0.681  14.417 -0.8218 -0.2912  0.5454
 3956TIP3    H133283   2.853   0.617  14.414 -0.6544 -0.4949  0.8727
 3956TIP3    H233284   2.917   0.721  14.503  0.8021 -1.8657  1.4551
 3957TIP3   OH233285   4.996   2.927   2.432  0.3072  0.5178  0.0040
 3957TIP3    H133286   4.982   2.869   2.507  0.5760 -0.7208 -0.8704
 3957TIP3    H233287   5.090   2.942   2.431  0.4258 -0.2005 -0.5900
 3958TIP3   OH233288   5.382   0.052   4.446 -0.3014  0.0015 -0.1604
 3958TIP3    H133289   5.441  -0.023   4.455 -0.3906  0.1019  1.2578
 3958TIP3    H233290   5.428   0.124   4.489 -1.0168  0.3278  0.0628
 3959TIP3   OH233291   6.772   3.436   5.728 -0.0996  0.5018 -0.0848
 3959TIP3    H133292   6.685   3.433   5.766  0.2007 -1.7479  0.4924
 3959TIP3    H233293   6.832   3.432   5.803  0.5425  2.2660 -0.4540
 3960TIP3   OH233294   1.477   0.163  13.858 -0.1380  0.2326 -0.1022
 3960TIP3    H133295   1.401   0.123  13.899 -0.5126  0.0703 -0.9379
 3960TIP3    H233296   1.449   0.180  13.768  0.5135  0.9941 -0.1674
 3961TIP3   OH233297   5.174   0.439   1.555  0.4279 -0.3351  0.8197
 3961TIP3    H133298   5.099   0.471   1.506  1.4370  2.8591  1.2178
 3961TIP3    H233299   5.151   0.455   1.647  1.7140  1.0790  0.9248
 3962TIP3   OH233300   1.789   5.466   3.992 -0.2541  0.1155 -0.5701
 3962TIP3    H133301   1.825   5.551   3.967 -0.2491  0.1268 -0.5227
 3962TIP3    H233302   1.809   5.456   4.085  0.3952 -0.2682 -0.7458
 3963TIP3   OH233303   0.290   4.984   0.265 -0.3837  0.3713 -0.1609
 3963TIP3    H133304   0.298   4.991   0.360 -0.7437  0.4422 -0.1336
 3963TIP3    H233305   0.212   5.036   0.244  0.2893  1.2188 -0.6066
 3964TIP3   OH233306   4.731   4.863   4.294  0.6841  0.3650  0.5325
 3964TIP3    H133307   4.732   4.779   4.340  1.3760  0.4273  0.6401
 3964TIP3    H233308   4.781   4.921   4.351  0.2293  0.8466  0.4471
 3965TIP3   OH233309   6.023   5.322  14.977 -0.4277  0.8327  0.3190
 3965TIP3    H133310   6.026   5.297  14.885  1.5367 -2.4536  1.1882
 3965TIP3    H233311   5.942   5.374  14.986 -2.0251 -1.0130 -2.6967
 3966TIP3   OH233312   4.184   3.003   4.037 -0.1028  0.2716 -0.6539
 3966TIP3    H133313   4.171   3.096   4.053  0.9369  0.4651 -0.8812
 3966TIP3    H233314   4.139   2.985   3.955  0.5925  0.7982 -1.1489
 3967TIP3   OH233315   3.177   1.979  10.432 -0.5039 -0.1962 -0.4374
 3967TIP3    H133316   3.214   2.041  10.369 -1.2528  0.9692  0.2522
 3967TIP3    H233317   3.253   1.943  10.478 -0.2310  2.8581  1.6091
 3968TIP3   OH233318   2.045   1.206   3.627 -0.0262  0.2258 -0.0373
 3968TIP3    H133319   2.019   1.290   3.664 -0.5882 -0.9168  2.2955
 3968TIP3    H233320   1.969   1.179   3.574 -0.2164  0.7573 -0.0425
 3969TIP3   OH233321   6.326   3.080  16.115 -0.4605  0.1558 -0.0668
 3969TIP3    H133322   6.302   3.115  16.200  0.0638 -1.7603  0.9000
 3969TIP3    H233323   6.251   3.026  16.089  0.3760 -1.2293  0.3307
 3970TIP3   OH233324   5.472   1.142   1.464  0.5363  0.4881  0.2455
 3970TIP3    H133325   5.442   1.181   1.382 -0.6536  1.4146  1.0972
 3970TIP3    H233326   5.430   1.195   1.532  0.8055 -0.8208  1.4479
 3971TIP3   OH233327   4.458   5.882   2.506 -0.0282 -0.1318 -0.2892
 3971TIP3    H133328   4.384   5.822   2.509 -0.6184  0.6602  3.4269
 3971TIP3    H233329   4.534   5.827   2.526  0.1087 -0.4904 -1.7203
 3972TIP3   OH233330   5.458   4.693   1.794 -0.4294 -0.3200 -0.3017
 3972TIP3    H133331   5.434   4.756   1.861 -1.4800  0.4040 -1.3412
 3972TIP3    H233332   5.554   4.685   1.801 -0.4468  0.3925  0.6915
 3973TIP3   OH233333   1.028   0.072   3.547 -0.3988 -0.1959  0.0205
 3973TIP3    H133334   0.951   0.129   3.555 -0.6679 -0.1634 -2.5866
 3973TIP3    H233335   1.069   0.098   3.465  1.1322 -1.7998  0.2502
 3974TIP3   OH233336   1.470   4.315  14.861 -0.0052  1.2156 -0.0739
 3974TIP3    H133337   1.487   4.375  14.934  1.5794  1.5084 -0.6754
 3974TIP3    H233338   1.516   4.353  14.787 -1.3930  0.7704 -1.1770
 3975TIP3   OH233339   4.257   4.010   5.775  0.2302 -0.0710 -0.2123
 3975TIP3    H133340   4.257   3.932   5.718  1.8452 -0.5969  0.4793
 3975TIP3    H233341   4.344   4.011   5.814 -0.3891  1.0936  1.1769
 3976TIP3   OH233342   4.773   2.464  10.308 -0.5864  0.5612 -0.4404
 3976TIP3    H133343   4.682   2.455  10.279 -1.1161 -0.4535  1.4434
 3976TIP3    H233344   4.776   2.545  10.358 -0.4917  0.5124 -0.3648
 3977TIP3   OH233345   0.746   1.766  15.265 -0.1309  0.5818  0.2589
 3977TIP3    H133346   0.702   1.833  15.317 -0.6555  0.2953  0.1881
 3977TIP3    H233347   0.675   1.717  15.224  0.2335 -0.3026  0.6673
 3978TIP3   OH233348   0.710   2.783   1.650  0.1021  0.0284  0.2182
 3978TIP3    H133349   0.626   2.801   1.691 -0.4939 -0.9635 -0.5414
 3978TIP3    H233350   0.749   2.715   1.705 -0.2429 -0.5598 -0.2568
 3979TIP3   OH233351   4.516   2.665   4.581 -0.6424  0.6341 -0.0241
 3979TIP3    H133352   4.503   2.756   4.555  0.9533  0.4499 -1.5173
 3979TIP3    H233353   4.533   2.669   4.675 -1.3268  1.7979  0.0579
 3980TIP3   OH233354   5.007   3.200   3.027 -0.7255 -0.2500  0.0145
 3980TIP3    H133355   4.964   3.235   2.949 -1.4710  0.0842  0.5612
 3980TIP3    H233356   4.934   3.176   3.085 -0.1821 -0.7685  0.4808
 3981TIP3   OH233357   1.780   2.720  12.877  0.3638 -0.4674 -0.1910
 3981TIP3    H133358   1.776   2.745  12.970  4.3165 -1.5452  0.3336
 3981TIP3    H233359   1.773   2.624  12.878 -0.2803 -0.4409 -1.1056
 3982TIP3   OH233360   2.734   4.044   2.298 -0.0734 -0.2424  0.5568
 3982TIP3    H133361   2.821   4.051   2.339  0.8246 -2.2433 -0.9518
 3982TIP3    H233362   2.730   4.120   2.239  0.6490 -0.1067  0.6746
 3983TIP3   OH233363   2.267   3.111   3.111  0.0304 -0.2128 -0.2103
 3983TIP3    H133364   2.223   3.065   3.182  2.4360  0.1683  1.5854
 3983TIP3    H233365   2.211   3.186   3.093  0.2646  0.6315  2.4666
 3984TIP3   OH233366   2.391   6.220  12.369 -0.2370  0.4796 -0.0368
 3984TIP3    H133367   2.431   6.303  12.396 -0.9413  0.7170  0.2736
 3984TIP3    H233368   2.392   6.223  12.274  1.4831  0.0119 -0.0484
 3985TIP3   OH233369   1.046   5.995   5.040 -0.7730 -0.0634 -0.0121
 3985TIP3    H133370   1.107   5.924   5.020  1.0003  1.5173 -0.2788
 3985TIP3    H233371   1.101   6.072   5.053 -2.6870  1.3354  0.0544
 3986TIP3   OH233372   1.361   1.147  14.894  0.5568 -0.6850 -0.3207
 3986TIP3    H133373   1.404   1.112  14.816 -0.6918  0.5841 -1.6272
 3986TIP3    H233374   1.279   1.185  14.861 -0.0908 -0.3054  1.6449
 3987TIP3   OH233375   1.639   2.707  16.487  0.1021  0.2231  0.1668
 3987TIP3    H133376   1.724   2.748  16.501  0.3548 -0.4375  0.5645
 3987TIP3    H233377   1.614   2.673  16.573 -0.7203  0.7040  0.1278
 3988TIP3   OH233378   4.896   4.201  11.905 -0.4317 -0.0582  0.4425
 3988TIP3    H133379   4.899   4.225  11.997  0.3623  2.1313 -0.1428
 3988TIP3    H233380   4.830   4.132  11.901  0.6719 -1.3086  2.8819
 3989TIP3   OH233381   5.844   0.223  13.479 -0.3846  0.0466  0.1705
 3989TIP3    H133382   5.777   0.160  13.453 -0.1887 -0.3269  0.5713
 3989TIP3    H233383   5.798   0.307  13.483 -0.5705 -0.0105 -0.7012
 3990TIP3   OH233384   2.049   6.483   6.051 -0.0151 -0.7998 -0.3961
 3990TIP3    H133385   1.967   6.533   6.062  0.4786 -0.3963  1.7031
 3990TIP3    H233386   2.117   6.542   6.083  0.8627 -1.8801 -0.2480
 3991TIP3   OH233387   4.949   5.864  13.342 -0.3993 -0.0735  0.1487
 3991TIP3    H133388   4.949   5.835  13.251  0.4625  0.9387 -0.1850
 3991TIP3    H233389   5.002   5.799  13.388 -2.4078 -1.6437  0.2913
 3992TIP3   OH233390   5.646   1.585  10.516 -0.0564 -0.0058  0.0651
 3992TIP3    H133391   5.633   1.499  10.477 -0.9215 -0.1874  0.7697
 3992TIP3    H233392   5.568   1.635  10.493 -0.2755  0.0963  1.0223
 3993TIP3   OH233393   1.012   5.442  15.277  0.4832 -0.5761 -0.0591
 3993TIP3    H133394   1.065   5.406  15.207  1.2333 -1.0677  0.7509
 3993TIP3    H233395   1.071   5.447  15.352  0.4833  2.6846 -0.2338
 3994TIP3   OH233396   4.967   3.611  13.557 -0.2665 -0.2708 -0.7660
 3994TIP3    H133397   5.020   3.680  13.517  0.3936  0.4490  1.3092
 3994TIP3    H233398   5.025   3.534  13.558  0.4778  0.2902  0.7296
 3995TIP3   OH233399   1.388   5.929   2.353 -0.7757 -0.2240 -0.5857
 3995TIP3    H133400   1.390   6.024   2.359 -2.2005 -0.0582 -2.3424
 3995TIP3    H233401   1.297   5.905   2.368 -0.3697 -1.3622  0.2046
 3996TIP3   OH233402   0.631   4.645   4.743  0.0807  0.0358 -0.4031
 3996TIP3    H133403   0.573   4.634   4.818  0.1380 -0.4088 -0.4208
 3996TIP3    H233404   0.712   4.680   4.780 -0.3010  0.9598 -0.4205
 3997TIP3   OH233405   4.839   4.889   0.071  0.8628 -0.3313 -0.3222
 3997TIP3    H133406   4.807   4.902  -0.018  0.1114  2.0928  0.2603
 3997TIP3    H233407   4.926   4.928   0.071 -0.0284  1.7365  0.5508
 3998TIP3   OH233408   0.093   6.153  16.419 -0.1164  0.1363  0.3595
 3998TIP3    H133409   0.168   6.127  16.365 -0.4430 -0.4335  0.1629
 3998TIP3    H233410   0.019   6.156  16.358 -0.3914 -0.0187  0.6791
 3999TIP3   OH233411   3.458   5.609   2.782 -0.0816 -0.0405 -0.1182
 3999TIP3    H133412   3.365   5.612   2.762  0.0247  0.7506 -0.4881
 3999TIP3    H233413   3.462   5.589   2.876 -0.6335  0.8355  0.0934
 4000TIP3   OH233414   4.099   4.851   3.022 -0.1941  0.3153 -0.2410
 4000TIP3    H133415   4.025   4.826   2.966 -2.8752  0.0305  3.2785
 4000TIP3    H233416   4.153   4.772   3.027 -1.4587 -0.5544 -0.1040
 4001TIP3   OH233417   0.892   3.069  15.883  0.3699 -0.5213 -0.0878
 4001TIP3    H133418   0.851   2.982  15.879  2.9821 -1.7965  0.1246
 4001TIP3    H233419   0.918   3.080  15.974  0.5351  0.2719 -0.2272
 4002TIP3   OH233420   2.460   4.661  11.686 -0.3570 -0.4657  0.3680
 4002TIP3    H133421   2.410   4.738  11.713  1.7834  0.4010  1.9381
 4002TIP3    H233422   2.405   4.587  11.712 -2.0290  0.4812 -0.3533
 4003TIP3   OH233423   6.770   1.867  12.878  0.3649 -0.2362 -0.1399
 4003TIP3    H133424   6.689   1.873  12.929  0.3783  0.4727 -0.2050
 4003TIP3    H233425   6.830   1.928  12.921  0.7688 -0.5255 -0.2844
 4004TIP3   OH233426   3.168   0.189   2.099  0.5556 -0.3068  0.6383
 4004TIP3    H133427   3.075   0.176   2.082  0.1675  0.7295  1.8705
 4004TIP3    H233428   3.182   0.152   2.186  1.6112 -1.7476 -0.1297
 4005TIP3   OH233429   1.548   6.483  12.626 -0.0623 -0.0140 -0.3949
 4005TIP3    H133430   1.616   6.476  12.693 -0.1263 -1.6842 -0.4848
 4005TIP3    H233431   1.548   6.575  12.601 -0.0599  0.6336  1.9205
 4006TIP3   OH233432   1.868   4.532  11.468 -0.1106 -0.3376 -0.5992
 4006TIP3    H133433   1.940   4.523  11.531  0.8610  0.7270 -1.5116
 4006TIP3    H233434   1.887   4.467  11.401 -1.1059 -1.4227  0.1756
 4007TIP3   OH233435   5.476   5.813   5.238  0.1203 -0.1010  0.4529
 4007TIP3    H133436   5.416   5.803   5.312  0.4168 -0.5958  0.6297
 4007TIP3    H233437   5.439   5.756   5.170  0.1432 -0.0611  0.4072
 4008TIP3   OH233438   3.530   2.590   2.824  0.4260 -0.0503  0.7869
 4008TIP3    H133439   3.461   2.649   2.792  0.1563 -0.9655 -0.3769
 4008TIP3    H233440   3.510   2.577   2.916 -1.5013 -1.0126  0.2642
 4009TIP3   OH233441   0.456   1.973  11.754  0.2680 -0.6967  0.1180
 4009TIP3    H133442   0.372   2.008  11.724  0.4639 -0.7679 -0.5286
 4009TIP3    H233443   0.474   1.900  11.695  0.6844 -0.8139  0.3845
 4010TIP3   OH233444   6.575   2.226   0.209 -0.4483  0.2260 -0.3188
 4010TIP3    H133445   6.597   2.308   0.163  1.0625 -0.4645 -0.8747
 4010TIP3    H233446   6.603   2.242   0.299  2.4558 -0.6138 -1.0014
 4011TIP3   OH233447   2.218   2.847  14.501 -0.1136 -0.6979  0.5043
 4011TIP3    H133448   2.230   2.779  14.567  1.7233 -0.4527  0.4451
 4011TIP3    H233449   2.302   2.893  14.498  0.0099 -1.0026 -2.3089
 4012TIP3   OH233450   2.208   4.587   2.902 -0.1113 -0.6598 -0.9273
 4012TIP3    H133451   2.287   4.641   2.896 -0.0903 -0.5740 -0.0290
 4012TIP3    H233452   2.181   4.574   2.812 -0.4194  1.2984 -1.1390
 4013TIP3   OH233453   4.306   2.625   0.026 -0.1632 -0.0393 -0.0215
 4013TIP3    H133454   4.332   2.682  -0.047  0.7196  0.5955  0.7763
 4013TIP3    H233455   4.287   2.541  -0.016  0.1406  0.3683 -1.0131
 4014TIP3   OH233456   6.103   5.463  11.612  0.2621 -0.4620  0.0432
 4014TIP3    H133457   6.137   5.397  11.672  0.3656 -0.0809  0.4065
 4014TIP3    H233458   6.180   5.510  11.580  0.0929  0.2908  0.7386
 4015TIP3   OH233459   6.398   1.990   6.105 -0.7370  0.1116  0.6565
 4015TIP3    H133460   6.448   2.070   6.117  0.2832 -0.2475 -1.0685
 4015TIP3    H233461   6.415   1.939   6.184  0.2422  0.7272  0.8430
 4016TIP3   OH233462   5.709   6.160   1.529  0.4400 -0.1525 -0.3813
 4016TIP3    H133463   5.706   6.174   1.623 -2.8647  0.2178 -0.4528
 4016TIP3    H233464   5.750   6.075   1.518  1.0000 -0.1180  1.3870
 4017TIP3   OH233465   6.711   6.328   4.745  0.0913  0.7747  0.5935
 4017TIP3    H133466   6.631   6.286   4.713 -0.2117  1.1367  0.8728
 4017TIP3    H233467   6.776   6.258   4.747 -0.1475  0.5348  0.1120
 4018TIP3   OH233468   3.752   4.352   3.608  0.4292 -0.0020 -0.4180
 4018TIP3    H133469   3.705   4.276   3.572  1.0015 -0.4483 -0.2215
 4018TIP3    H233470   3.742   4.420   3.540  0.3160 -0.3971 -0.8010
 4019TIP3   OH233471   5.809   5.812   3.002  0.2740  0.4330 -0.8676
 4019TIP3    H133472   5.818   5.907   2.996 -0.9519  0.5251 -1.6191
 4019TIP3    H233473   5.753   5.798   3.078  1.4780  0.2311 -0.0046
 4020TIP3   OH233474   2.110   3.040  12.012  0.0816 -0.2910 -0.1952
 4020TIP3    H133475   2.204   3.026  12.018 -0.2784 -1.9327  2.4702
 4020TIP3    H233476   2.075   2.959  11.977 -0.4867 -0.2770  0.3166
 4021TIP3   OH233477   5.209   6.411  11.711 -0.3155  0.1635  0.0866
 4021TIP3    H133478   5.266   6.379  11.781  0.0385 -1.2981 -0.8502
 4021TIP3    H233479   5.124   6.370  11.728 -0.1103 -0.5428 -0.5911
 4022TIP3   OH233480   3.110   0.531   6.427 -0.3020  0.3070 -0.0305
 4022TIP3    H133481   3.060   0.573   6.496 -0.6728 -1.0753  0.5663
 4022TIP3    H233482   3.052   0.530   6.351 -0.1080  1.2953 -0.2005
 4023TIP3   OH233483   2.692   3.109   0.304 -0.0508  0.4203  0.1167
 4023TIP3    H133484   2.747   3.162   0.245  0.1884 -1.9117 -1.8422
 4023TIP3    H233485   2.631   3.065   0.245 -1.8518  0.3996  1.9697
 4024TIP3   OH233486   1.255   1.351  10.634  0.1552 -0.5035  0.3289
 4024TIP3    H133487   1.235   1.299  10.556 -2.0334 -2.4798  2.1499
 4024TIP3    H233488   1.344   1.325  10.658  0.2365 -1.0835 -0.5844
 4025TIP3   OH233489   0.965   4.366  12.415  0.2138  0.4242  0.5848
 4025TIP3    H133490   0.933   4.401  12.499  0.8665  0.1458  0.9500
 4025TIP3    H233491   0.964   4.441  12.356  0.8379  0.8914  1.1546
 4026TIP3   OH233492   4.853   3.334  10.613 -0.1108  0.0644 -0.2713
 4026TIP3    H133493   4.906   3.389  10.671 -2.1111  1.7161  0.0339
 4026TIP3    H233494   4.795   3.395  10.568 -1.3536 -1.6373 -1.0386
 4027TIP3   OH233495   2.524   6.659   5.491 -0.0773  0.0093 -0.0897
 4027TIP3    H133496   2.539   6.564   5.492 -1.9770 -0.3064 -0.4435
 4027TIP3    H233497   2.472   6.674   5.412 -1.7547  1.0308  1.1803
 4028TIP3   OH233498   4.542   4.107  14.850 -0.6189 -0.2214 -0.0436
 4028TIP3    H133499   4.474   4.047  14.819 -0.6029 -0.8893  1.2063
 4028TIP3    H233500   4.507   4.194  14.830 -1.5118 -0.5765 -0.0732
 4029TIP3   OH233501   3.986   0.057   3.373 -0.0743 -0.3265 -0.3774
 4029TIP3    H133502   4.078   0.039   3.354 -0.5465 -1.6336 -1.5341
 4029TIP3    H233503   3.968   0.007   3.453  0.5319  0.9373  0.5666
 4030TIP3   OH233504   3.401   4.091  12.053 -0.0244  0.6224 -0.1044
 4030TIP3    H133505   3.346   4.079  11.975 -0.0744  1.7349 -0.2487
 4030TIP3    H233506   3.426   4.183  12.050 -0.1152  0.6942  1.2590
 4031TIP3   OH233507   6.256   2.758   5.168  0.4140 -0.2410  0.1603
 4031TIP3    H133508   6.307   2.813   5.109  3.4590 -1.8186  1.1607
 4031TIP3    H233509   6.275   2.792   5.256 -1.8570  0.3724  0.4307
 4032TIP3   OH233510   6.474   4.423   1.244 -0.1008 -0.0970 -0.6950
 4032TIP3    H133511   6.391   4.469   1.233  0.3144  1.2631  1.5791
 4032TIP3    H233512   6.540   4.493   1.245  0.7821 -0.9257  0.3372
 4033TIP3   OH233513   2.047   5.942  12.235  0.5358 -0.2329 -0.2308
 4033TIP3    H133514   2.087   5.861  12.203  0.9945 -0.0697 -0.0581
 4033TIP3    H233515   2.101   6.011  12.199  1.7428 -0.0675  1.8466
 4034TIP3   OH233516   6.582   4.340   2.839  0.5556 -0.3379  0.2506
 4034TIP3    H133517   6.581   4.418   2.784  0.2405 -0.0984  0.6003
 4034TIP3    H233518   6.538   4.366   2.920 -0.0105 -1.0219  0.1685
 4035TIP3   OH233519   6.034   3.133   2.705  0.5227 -0.3372 -0.0873
 4035TIP3    H133520   6.004   3.046   2.730 -0.2698 -0.3327 -0.9914
 4035TIP3    H233521   6.005   3.190   2.777  2.3159 -1.0335  1.2117
 4036TIP3   OH233522   4.482   6.033  11.119  0.1575 -0.4039  0.3024
 4036TIP3    H133523   4.447   6.076  11.040  0.1933  0.5712  0.8153
 4036TIP3    H233524   4.465   5.940  11.104  1.6696 -0.4022 -1.6056
 4037TIP3   OH233525   3.960   3.964  11.537 -0.4536 -0.5266  0.0143
 4037TIP3    H133526   4.012   3.910  11.477  0.1759 -0.7647  0.7699
 4037TIP3    H233527   3.892   4.003  11.481 -0.1164 -1.0589 -0.7783
 4038TIP3   OH233528   6.297   1.732   2.057 -0.2035  0.3505 -0.2613
 4038TIP3    H133529   6.345   1.753   2.138 -0.7950  1.1439 -0.1116
 4038TIP3    H233530   6.209   1.710   2.087 -0.8994  2.2876 -0.8191
 4039TIP3   OH233531   3.107   2.065  11.053  0.1755 -0.7062 -0.6675
 4039TIP3    H133532   3.061   2.090  10.973 -0.8105 -1.1267 -0.2466
 4039TIP3    H233533   3.161   2.141  11.075 -1.3757  0.3621 -0.4247
 4040TIP3   OH233534   5.136   3.471  12.878 -0.2277  0.1178 -0.1656
 4040TIP3    H133535   5.221   3.514  12.874 -1.2453  2.1133 -0.7711
 4040TIP3    H233536   5.146   3.405  12.947  2.0097 -0.1331 -0.7118
 4041TIP3   OH233537   6.349   6.571   0.397 -0.1807 -0.5549 -0.3808
 4041TIP3    H133538   6.380   6.483   0.374  1.0849 -0.5795  1.3216
 4041TIP3    H233539   6.276   6.557   0.457 -0.5658 -0.4573 -0.8283
 4042TIP3   OH233540   1.136   5.436  17.130 -0.3542  0.1557 -0.1267
 4042TIP3    H133541   1.155   5.343  17.140  2.9531  0.9755  1.8717
 4042TIP3    H233542   1.221   5.479  17.132 -1.8301  3.2903 -0.7549
 4043TIP3   OH233543   6.554   1.921   3.165  0.6204  0.1942  0.3074
 4043TIP3    H133544   6.512   1.840   3.196  1.3817 -1.3756 -2.6076
 4043TIP3    H233545   6.487   1.963   3.111  0.9026  0.5501  0.2364
 4044TIP3   OH233546   2.015   5.513   3.768  0.6585  0.5702 -0.3513
 4044TIP3    H133547   2.033   5.472   3.853  0.3998 -1.6873 -1.3270
 4044TIP3    H233548   1.929   5.479   3.743  1.4942 -0.2397 -2.3101
 4045TIP3   OH233549   5.746   5.548  12.553  0.4764  0.1285 -0.0700
 4045TIP3    H133550   5.686   5.489  12.507 -1.0722  0.8818  0.9587
 4045TIP3    H233551   5.831   5.533  12.512 -0.3335 -1.2684 -1.2512
 4046TIP3   OH233552   2.551   3.643   0.947 -0.1072 -0.2886  0.1814
 4046TIP3    H133553   2.641   3.665   0.969 -0.2000  0.0430  0.2379
 4046TIP3    H233554   2.541   3.552   0.974  0.1987 -0.3152  0.2081
 4047TIP3   OH233555   6.168   4.921   1.992  0.0242 -0.1049  0.5575
 4047TIP3    H133556   6.258   4.902   2.018 -0.3593 -0.5199  1.6456
 4047TIP3    H233557   6.176   4.981   1.918  1.1833  0.3827  1.0660
 4048TIP3   OH233558   3.094   5.254   3.495 -0.1964  0.2367  0.3345
 4048TIP3    H133559   3.162   5.266   3.429  0.9414  0.0676  1.4534
 4048TIP3    H233560   3.067   5.162   3.485  2.1819 -0.7195  2.1280
 4049TIP3   OH233561   0.674   2.588   0.896  0.4885  0.1190  0.0166
 4049TIP3    H133562   0.585   2.590   0.862  0.4381 -1.2092  0.0325
 4049TIP3    H233563   0.665   2.551   0.984  1.1525 -0.8181 -0.3024
 4050TIP3   OH233564   4.395   2.706   5.745 -0.1635 -0.2305 -0.2149
 4050TIP3    H133565   4.314   2.689   5.793 -0.7303 -0.1691 -1.1501
 4050TIP3    H233566   4.420   2.794   5.772 -0.3847 -0.2600  0.0969
 4051TIP3   OH233567   1.651   5.185  15.859  0.1359  0.0224 -0.1599
 4051TIP3    H133568   1.744   5.202  15.869  0.6236 -1.8015 -1.2281
 4051TIP3    H233569   1.635   5.192  15.765 -0.5425 -0.8609 -0.1229
 4052TIP3   OH233570   4.401   4.755   2.162  0.1302  0.2457 -0.0456
 4052TIP3    H133571   4.338   4.793   2.223 -0.0537 -0.0731 -0.0321
 4052TIP3    H233572   4.451   4.693   2.215  0.9661  1.0516  0.1161
 4053TIP3   OH233573   3.886   2.950   4.944 -0.3277 -0.0700  0.6592
 4053TIP3    H133574   3.835   2.935   4.864  0.4645 -0.3351  0.2047
 4053TIP3    H233575   3.842   3.024   4.986  0.5849  1.5428 -1.1546
 4054TIP3   OH233576   2.839   0.805   1.584 -0.1857  0.8988 -0.2084
 4054TIP3    H133577   2.763   0.761   1.624  0.1103  0.3757 -0.2078
 4054TIP3    H233578   2.802   0.856   1.512 -0.6533  1.3992  0.3844
 4055TIP3   OH233579   2.061   2.533   3.545  0.2308  0.0035  0.5137
 4055TIP3    H133580   2.055   2.438   3.553  1.3802 -0.1022  0.1434
 4055TIP3    H233581   2.130   2.558   3.607  1.0583  0.4140 -0.5609
 4056TIP3   OH233582   5.100   3.088  14.214 -0.2411 -0.5233 -0.1431
 4056TIP3    H133583   5.078   3.170  14.257 -1.9846 -0.4580 -1.1181
 4056TIP3    H233584   5.062   3.095  14.126  0.2213 -2.0571 -0.4946
 4057TIP3   OH233585   0.091   0.355   3.206  0.3585 -0.2303  0.1197
 4057TIP3    H133586   0.170   0.341   3.153  1.3633 -1.9043  1.9990
 4057TIP3    H233587   0.105   0.303   3.285 -2.8546 -0.9400  0.2989
 4058TIP3   OH233588   6.544   3.363  13.195  0.0216  0.7569  0.1068
 4058TIP3    H133589   6.626   3.397  13.159  1.0026 -0.1975  1.4049
 4058TIP3    H233590   6.512   3.434  13.251  0.0402  1.0555 -0.2506
 4059TIP3   OH233591   0.456   6.439  15.856  0.1660 -0.0672  0.3245
 4059TIP3    H133592   0.392   6.467  15.791 -0.8948  1.4551  1.9799
 4059TIP3    H233593   0.537   6.482  15.830 -0.4144  1.0589  0.3799
 4060TIP3   OH233594   3.560   5.506   0.771  0.2182  0.6638 -0.2895
 4060TIP3    H133595   3.575   5.474   0.860 -0.4976 -0.9419 -0.7317
 4060TIP3    H233596   3.647   5.530   0.739  0.4644  1.3213  0.8701
 4061TIP3   OH233597   5.413   3.378  11.814  0.1788  0.6928  0.1062
 4061TIP3    H133598   5.426   3.350  11.723 -2.4715 -2.8157  0.6697
 4061TIP3    H233599   5.492   3.349  11.859  0.0702 -0.5805 -0.4942
 4062TIP3   OH233600   0.023   5.759  13.523 -0.1730  0.1039  0.0762
 4062TIP3    H133601  -0.052   5.736  13.578 -0.6718  0.2960 -0.5219
 4062TIP3    H233602   0.049   5.846  13.555  0.8740 -0.6871  1.4305
 4063TIP3   OH233603   6.763   4.028  12.730  0.3998 -0.3209  0.2519
 4063TIP3    H133604   6.822   4.099  12.755 -0.7257  1.0234 -0.8166
 4063TIP3    H233605   6.717   4.061  12.653 -0.8841 -1.8218  0.3481
 4064TIP3   OH233606   2.499   0.878   0.579  0.1039  0.0468 -0.3622
 4064TIP3    H133607   2.484   0.911   0.490  1.8320  0.4023 -0.5379
 4064TIP3    H233608   2.545   0.950   0.624 -1.0727  0.0060  0.9279
 4065TIP3   OH233609   3.719   6.544  15.208  0.4350 -0.4356  0.5735
 4065TIP3    H133610   3.636   6.553  15.161  0.8131  0.6440  0.0955
 4065TIP3    H233611   3.710   6.603  15.284  0.9674  0.1263  0.2116
 4066TIP3   OH233612   1.851   6.596   0.688  0.7960  0.9353 -0.1215
 4066TIP3    H133613   1.869   6.603   0.594 -1.7880  0.6608 -0.6837
 4066TIP3    H233614   1.770   6.545   0.693  1.0887  0.6395  2.2898
 4067TIP3   OH233615   2.820   6.527  16.759  0.7327  0.0467  0.1857
 4067TIP3    H133616   2.738   6.573  16.745  0.3493 -0.7295 -0.1194
 4067TIP3    H233617   2.885   6.576  16.708 -0.2289 -1.4959 -2.5692
 4068TIP3   OH233618   0.264   3.172   1.091  0.1157  0.4701 -0.1706
 4068TIP3    H133619   0.277   3.083   1.058 -0.4590  0.3002  0.0459
 4068TIP3    H233620   0.181   3.199   1.053  0.6801  1.2221 -0.8773
 4069TIP3   OH233621   5.868   3.416  12.748 -0.3157  0.2765 -0.0999
 4069TIP3    H133622   5.929   3.342  12.741  0.3090  0.8450 -0.6264
 4069TIP3    H233623   5.843   3.416  12.840  0.6297  0.1538  0.1692
 4070TIP3   OH233624   4.648   1.523  14.123  0.7405  0.1083  0.2550
 4070TIP3    H133625   4.680   1.436  14.102 -0.7646  0.0468 -1.9145
 4070TIP3    H233626   4.577   1.508  14.187  0.0899 -0.3067 -0.5627
 4071TIP3   OH233627   1.933   5.131   4.367 -0.7256  0.2241  0.2164
 4071TIP3    H133628   1.933   5.166   4.278 -1.1434  0.6791  0.3960
 4071TIP3    H233629   1.901   5.041   4.357 -2.0538  0.7016  0.0680
 4072TIP3   OH233630   4.997   5.897   2.290 -0.1051  0.1281  0.4832
 4072TIP3    H133631   5.013   5.963   2.357 -2.1235  0.0762  1.0290
 4072TIP3    H233632   4.903   5.882   2.292  0.0830 -1.4165 -0.9209
 4073TIP3   OH233633   6.417   0.713   2.767  0.5445  0.5382 -0.3209
 4073TIP3    H133634   6.445   0.797   2.730  0.8965  0.9910  0.9420
 4073TIP3    H233635   6.416   0.728   2.862  0.1780 -0.7561 -0.1113
 4074TIP3   OH233636   6.766   1.769  11.207 -0.0641  0.4392 -0.5849
 4074TIP3    H133637   6.812   1.818  11.139 -1.1363  1.7479 -0.3888
 4074TIP3    H233638   6.823   1.776  11.284  1.3517 -1.3938 -1.4318
 4075TIP3   OH233639   4.067   0.346  13.677  0.7605 -0.1581 -0.4993
 4075TIP3    H133640   4.011   0.423  13.686  0.1013 -0.6249 -0.5618
 4075TIP3    H233641   4.111   0.339  13.762  2.0784  1.2403 -1.0421
 4076TIP3   OH233642   2.410   5.869   3.174  0.1450  0.6360 -0.1306
 4076TIP3    H133643   2.446   5.950   3.138  3.0456 -1.3211 -1.8596
 4076TIP3    H233644   2.381   5.820   3.097 -3.1691  0.6656  1.0042
 4077TIP3   OH233645   5.999   2.682  13.311  0.2043 -0.3823 -0.7239
 4077TIP3    H133646   5.996   2.588  13.328 -0.8237  0.1020  2.0265
 4077TIP3    H233647   6.092   2.703  13.308  0.4435 -0.9796  1.8173
 4078TIP3   OH233648   5.916   0.952   2.897 -0.0977  0.0331  0.6428
 4078TIP3    H133649   5.901   0.910   2.813 -1.1502 -2.5442  2.0532
 4078TIP3    H233650   5.831   0.989   2.921  0.3530  1.2979  0.2833
 4079TIP3   OH233651   1.711   3.541   3.792  0.2730 -0.3577 -0.3637
 4079TIP3    H133652   1.804   3.526   3.777  0.4258 -0.6668  0.8410
 4079TIP3    H233653   1.695   3.629   3.756  0.8146 -0.6853 -1.4285
 4080TIP3   OH233654   3.204   3.823   1.496 -0.3341  0.2974  0.2580
 4080TIP3    H133655   3.266   3.894   1.513 -0.6536  0.3030  1.4204
 4080TIP3    H233656   3.124   3.868   1.467 -0.5005  0.4106  0.8854
 4081TIP3   OH233657   3.255   4.236   6.591  0.3228 -0.3215 -0.3538
 4081TIP3    H133658   3.324   4.222   6.655 -0.4987 -0.5371  0.5039
 4081TIP3    H233659   3.256   4.158   6.536 -1.5113 -1.9607  1.8290
 4082TIP3   OH233660   4.396   2.915   3.628  0.3932 -0.0027 -0.0442
 4082TIP3    H133661   4.488   2.941   3.627  0.4629 -0.1638  0.9415
 4082TIP3    H233662   4.372   2.918   3.721 -0.8580  0.9583 -0.3812
 4083TIP3   OH233663   5.430   4.424   3.556  0.0704  0.9386 -0.1290
 4083TIP3    H133664   5.441   4.495   3.619 -2.2246 -0.0088  1.4352
 4083TIP3    H233665   5.466   4.347   3.601 -2.5897  0.0400  0.5375
 4084TIP3   OH233666   1.318   2.741  15.353  0.0294 -0.4300 -0.4784
 4084TIP3    H133667   1.314   2.739  15.449  1.2228  0.2532 -0.4038
 4084TIP3    H233668   1.226   2.750  15.326 -0.2982 -0.3510  0.6103
 4085TIP3   OH233669   0.060   3.699  11.874  0.6185  0.2610  0.4692
 4085TIP3    H133670   0.128   3.662  11.817 -0.4581  1.6989 -1.8696
 4085TIP3    H233671   0.053   3.638  11.947  1.4652 -2.1418 -1.3946
 4086TIP3   OH233672   1.994   5.363  13.149  0.4684 -0.0367  0.7881
 4086TIP3    H133673   2.021   5.273  13.169  1.1232  0.4253  2.0361
 4086TIP3    H233674   1.957   5.396  13.231 -2.0263  0.0373 -0.3351
 4087TIP3   OH233675   3.185   4.391  15.930 -0.3048  0.3486 -0.2556
 4087TIP3    H133676   3.195   4.302  15.962 -0.1723  1.0739  1.8300
 4087TIP3    H233677   3.187   4.445  16.009 -2.0390  2.0567 -1.3160
 4088TIP3   OH233678   4.713   1.307   5.427 -0.1282  0.1502 -0.2983
 4088TIP3    H133679   4.764   1.262   5.495 -0.1056 -0.4910 -0.7282
 4088TIP3    H233680   4.706   1.397   5.458 -1.4899 -0.4887  1.3358
 4089TIP3   OH233681   3.613   3.081   3.770  0.8206  1.1785  0.1495
 4089TIP3    H133682   3.609   3.166   3.726 -2.4374  0.7028 -0.6055
 4089TIP3    H233683   3.523   3.063   3.796  1.2382 -2.5296 -0.6392
 4090TIP3   OH233684   2.569   0.681   2.838  0.4383 -0.2896 -0.3397
 4090TIP3    H133685   2.492   0.639   2.799  0.9512  0.4429 -2.2124
 4090TIP3    H233686   2.535   0.764   2.873  0.1707 -0.4771 -0.1499
 4091TIP3   OH233687   5.936   5.364  16.236  0.4773 -0.3146 -0.7306
 4091TIP3    H133688   6.024   5.329  16.254  1.0121  1.4012  0.0569
 4091TIP3    H233689   5.913   5.327  16.151  1.3077 -2.0389 -0.2244
 4092TIP3   OH233690   2.309   6.673   1.930 -0.2639  1.0158 -0.5505
 4092TIP3    H133691   2.262   6.724   1.996 -0.4761 -1.1753  1.0549
 4092TIP3    H233692   2.261   6.591   1.924  2.7087 -0.8956  0.4276
 4093TIP3   OH233693   3.970   3.580  12.586  0.7847 -0.5735  0.4149
 4093TIP3    H133694   4.030   3.551  12.518  0.0371 -0.6321 -0.2331
 4093TIP3    H233695   3.999   3.669  12.608  1.9277 -1.1071  1.0800
 4094TIP3   OH233696   4.144   0.467   5.124  0.3926 -0.0993  0.0115
 4094TIP3    H133697   4.086   0.532   5.163  1.6278  0.6807  0.5853
 4094TIP3    H233698   4.119   0.465   5.032 -2.2371 -1.6367  0.7233
 4095TIP3   OH233699   6.268   1.537  15.360  0.0722  0.3937  0.1515
 4095TIP3    H133700   6.293   1.602  15.294  0.2268 -0.6062 -0.8025
 4095TIP3    H233701   6.205   1.481  15.315  0.6061 -0.6385  0.6725
 4096TIP3   OH233702   5.603   2.878  11.812 -0.0803  0.1617 -0.2648
 4096TIP3    H133703   5.510   2.898  11.803 -0.4134 -1.0404  0.4923
 4096TIP3    H233704   5.637   2.947  11.869 -0.4861  0.6161 -0.5648
 4097TIP3   OH233705   1.313   1.753  16.056 -0.0627  0.0286 -0.1156
 4097TIP3    H133706   1.383   1.746  16.121  1.5287  1.4894 -1.6273
 4097TIP3    H233707   1.324   1.675  16.002  1.2226  0.8754 -1.1106
 4098TIP3   OH233708   0.036   1.008   5.183  0.4998 -0.2536  0.0223
 4098TIP3    H133709   0.004   0.991   5.272 -0.4620  0.1244 -0.2561
 4098TIP3    H233710   0.033   0.922   5.140 -0.6215 -0.1202 -0.1634
 4099TIP3   OH233711   5.423   3.907  13.476 -0.4129 -0.1092 -0.3400
 4099TIP3    H133712   5.421   3.990  13.524 -0.5021 -0.9205  1.0788
 4099TIP3    H233713   5.427   3.933  13.384  0.6865  1.4662  0.1333
 4100TIP3   OH233714   5.087   1.801   5.115 -0.4272  0.3878 -0.3205
 4100TIP3    H133715   5.098   1.886   5.157 -0.6543 -0.0802  0.7129
 4100TIP3    H233716   5.152   1.745   5.157 -0.8289 -0.1528 -0.4138
 4101TIP3   OH233717   6.572   2.478  14.932 -0.0452  0.0585  0.1154
 4101TIP3    H133718   6.576   2.549  14.868  0.0348  0.6635  0.7869
 4101TIP3    H233719   6.481   2.479  14.963  0.1560  0.3761  0.6962
 4102TIP3   OH233720   3.131   1.851  12.557 -0.1225 -0.3393  0.2740
 4102TIP3    H133721   3.220   1.885  12.549 -0.9498  1.5990 -1.1425
 4102TIP3    H233722   3.123   1.827  12.650  1.6893 -0.0157  0.5334
 4103TIP3   OH233723   2.237   2.671   4.057 -0.1810 -0.7013 -0.1869
 4103TIP3    H133724   2.240   2.577   4.046 -1.0915 -0.6273 -1.1352
 4103TIP3    H233725   2.212   2.705   3.971  1.1864  0.4749 -0.1340
 4104TIP3   OH233726   5.459   5.902   1.567  0.1328 -0.2110  0.3229
 4104TIP3    H133727   5.393   5.843   1.604 -0.4648  0.8272  0.9574
 4104TIP3    H233728   5.408   5.966   1.517  0.4407  1.7871  2.4407
 4105TIP3   OH233729   3.327   6.263   6.152 -0.4468 -0.4266  0.8910
 4105TIP3    H133730   3.328   6.292   6.243 -2.2322  0.4355  0.6593
 4105TIP3    H233731   3.266   6.323   6.108 -0.1266 -1.2440 -0.7274
 4106TIP3   OH233732   2.932   1.878   4.978  0.4989  0.2186 -0.0545
 4106TIP3    H133733   2.857   1.930   5.006 -0.5647 -1.1304 -0.3538
 4106TIP3    H233734   2.912   1.853   4.887  0.4370 -1.6805  0.4601
 4107TIP3   OH233735   0.660   0.787  17.066  0.0032  0.8462  0.0970
 4107TIP3    H133736   0.744   0.825  17.041  0.4347 -0.0690  0.1845
 4107TIP3    H233737   0.602   0.863  17.073  0.3873  1.3390 -1.6446
 4108TIP3   OH233738   1.657   5.439  13.736  0.0178 -0.3274  0.1829
 4108TIP3    H133739   1.746   5.475  13.730  0.3240 -0.6452  2.2660
 4108TIP3    H233740   1.600   5.513  13.714  0.7403  0.5958  1.3003
 4109TIP3   OH233741   2.291   4.874  16.947  0.4090  0.2682 -0.0657
 4109TIP3    H133742   2.200   4.855  16.923  0.2790  0.6930  0.1025
 4109TIP3    H233743   2.322   4.792  16.987 -0.1549  0.3885  0.6382
 4110TIP3   OH233744   5.106   4.742   2.871 -0.1237  0.1650 -0.1987
 4110TIP3    H133745   5.146   4.750   2.957 -0.2676  1.0489 -0.2068
 4110TIP3    H233746   5.020   4.703   2.888 -1.1304  2.5416  0.3393
 4111TIP3   OH233747   4.914   6.510  15.909  0.0185  0.2026  0.3045
 4111TIP3    H133748   4.846   6.542  15.968  0.3424  1.9805 -0.2566
 4111TIP3    H233749   4.940   6.587  15.859 -0.0618 -1.2221 -1.9836
 4112TIP3   OH233750   4.511   5.859   1.942  0.1658  0.6011  0.0627
 4112TIP3    H133751   4.487   5.921   2.010 -1.2982 -0.6780  0.7737
 4112TIP3    H233752   4.604   5.873   1.926  0.7175  0.3920  2.9046
 4113TIP3   OH233753   4.215   1.092  13.813 -0.1757  0.8356 -0.2735
 4113TIP3    H133754   4.187   1.176  13.775  0.2003  1.3707  0.6165
 4113TIP3    H233755   4.290   1.115  13.868 -0.0265 -0.0998 -0.0853
 4114TIP3   OH233756   3.816   4.792   0.071 -0.5220 -0.2403 -0.4968
 4114TIP3    H133757   3.830   4.798   0.165  0.6909  0.9958 -0.7550
 4114TIP3    H233758   3.892   4.834   0.032 -0.7301 -1.2584 -2.0515
 4115TIP3   OH233759   4.149   3.223  11.326 -0.5678  0.1616  0.1609
 4115TIP3    H133760   4.217   3.287  11.303 -1.0986  0.5556 -0.3140
 4115TIP3    H233761   4.197   3.152  11.368  0.4277 -0.5164 -2.0471
 4116TIP3   OH233762   6.388   1.522   1.838  0.6753 -0.1586  0.0612
 4116TIP3    H133763   6.423   1.611   1.831 -0.4677  0.1947 -1.4298
 4116TIP3    H233764   6.429   1.487   1.917  2.8997  0.8912 -0.5688
 4117TIP3   OH233765   3.839   5.738  17.102  0.2759  0.3426 -0.4533
 4117TIP3    H133766   3.821   5.650  17.135 -0.6171  1.2056  1.4058
 4117TIP3    H233767   3.866   5.788  17.179 -0.5188  2.0492 -1.2458
 4118TIP3   OH233768   5.751   2.124  11.648 -0.4296  0.0819  0.2597
 4118TIP3    H133769   5.702   2.200  11.680 -0.4940  0.8110 -1.5517
 4118TIP3    H233770   5.683   2.059  11.627 -0.6033  0.8303 -1.5631
 4119TIP3   OH233771   4.377   1.428   1.630  1.1468 -0.1772 -0.3954
 4119TIP3    H133772   4.437   1.501   1.614  3.3584 -1.8986 -0.1884
 4119TIP3    H233773   4.390   1.407   1.723  0.5527 -0.8563 -0.4620
 4120TIP3   OH233774   0.726   0.890  11.376 -0.3054 -0.3056  0.0874
 4120TIP3    H133775   0.772   0.942  11.310  3.2200  0.3451  2.9115
 4120TIP3    H233776   0.672   0.953  11.423  0.3008 -0.0452  0.4368
 4121TIP3   OH233777   1.384   4.892   1.177 -0.0458 -0.3336 -0.4067
 4121TIP3    H133778   1.430   4.974   1.190 -0.8671  0.5569 -2.8875
 4121TIP3    H233779   1.317   4.890   1.245  1.4804 -0.0909  1.1312
 4122TIP3   OH233780   6.020   3.212  12.607  0.2089  0.0596 -0.4859
 4122TIP3    H133781   6.091   3.214  12.543 -0.4338 -1.3233 -1.2579
 4122TIP3    H233782   5.940   3.204  12.555 -0.2403 -2.1630  0.4931
 4123TIP3   OH233783   2.545   2.815   2.503  0.0470 -0.4955  0.2761
 4123TIP3    H133784   2.469   2.759   2.486  0.8123 -2.1786  2.1997
 4123TIP3    H233785   2.609   2.790   2.436 -0.1275 -0.9308  0.2735
 4124TIP3   OH233786   6.149   4.196  14.912  0.2763  0.2889  0.3638
 4124TIP3    H133787   6.212   4.168  14.845 -1.0680 -1.7063 -0.1363
 4124TIP3    H233788   6.190   4.172  14.995 -0.3396 -2.2978 -0.0101
 4125TIP3   OH233789   0.733   2.659  16.118 -1.0162 -0.0377  1.1054
 4125TIP3    H133790   0.701   2.630  16.203 -1.6820 -0.3305  0.7528
 4125TIP3    H233791   0.687   2.742  16.102  0.1019  0.7053  1.6355
 4126TIP3   OH233792   5.985   3.944  12.252  0.2328  0.2458  0.1541
 4126TIP3    H133793   5.959   4.033  12.228 -0.1350  0.2976  0.7226
 4126TIP3    H233794   5.975   3.941  12.347  1.1525 -0.1205  0.2416
 4127TIP3   OH233795   3.880   5.808   0.120 -0.0384  0.6125 -0.2650
 4127TIP3    H133796   3.909   5.895   0.091  1.3435  0.5418  0.8822
 4127TIP3    H233797   3.959   5.766   0.153 -0.8420 -0.8205 -0.1341
 4128TIP3   OH233798   1.003   2.162   1.465  0.3705  0.5822 -0.4214
 4128TIP3    H133799   0.985   2.167   1.371  0.4829  0.5623 -0.4445
 4128TIP3    H233800   1.088   2.118   1.471 -0.1395 -0.3899 -0.2601
 4129TIP3   OH233801   6.270   3.336   0.939  0.2358  0.3275 -0.2308
 4129TIP3    H133802   6.362   3.334   0.966  0.6502  0.1210 -1.6380
 4129TIP3    H233803   6.272   3.319   0.845 -1.2512  0.2531 -0.2598
 4130TIP3   OH233804   5.157   6.075  16.516  0.3013  0.3115 -0.4234
 4130TIP3    H133805   5.173   6.063  16.422  2.6700 -0.1327  0.0027
 4130TIP3    H233806   5.227   6.134  16.544  0.5555 -0.8441  1.3879
 4131TIP3   OH233807   1.440   4.063   2.312  0.2728  0.7072 -0.3701
 4131TIP3    H133808   1.423   4.130   2.378  0.9587 -0.0464  0.5664
 4131TIP3    H233809   1.367   4.072   2.251 -0.3786  1.3835  0.4894
 4132TIP3   OH233810   6.589   6.154  13.603  0.3563  0.5396 -0.6128
 4132TIP3    H133811   6.580   6.127  13.512  3.1221  0.7706 -1.0108
 4132TIP3    H233812   6.574   6.074  13.654  0.0917  0.1297 -1.3347
 4133TIP3   OH233813   3.390   4.926  12.914  0.5054 -0.5413 -0.5682
 4133TIP3    H133814   3.449   4.873  12.967 -0.6491 -1.2411  0.0128
 4133TIP3    H233815   3.334   4.971  12.977 -0.2333 -0.6299 -1.1520
 4134TIP3   OH233816   1.909   3.419  15.094  0.2441 -0.1786  0.2029
 4134TIP3    H133817   1.864   3.496  15.058  0.0878 -1.3137 -2.1260
 4134TIP3    H233818   1.995   3.419  15.050  1.0706 -0.1368  1.7968
 4135TIP3   OH233819   1.170   3.217   1.474  0.0105  0.0180  0.1182
 4135TIP3    H133820   1.226   3.228   1.551  1.4965 -1.0651 -0.7771
 4135TIP3    H233821   1.149   3.123   1.472  0.9707 -0.1896 -1.4488
 4136TIP3   OH233822   2.877   1.790   2.505 -0.6671 -0.2064 -0.0628
 4136TIP3    H133823   2.948   1.803   2.442  0.5962  2.0908  1.7494
 4136TIP3    H233824   2.914   1.820   2.588 -3.4682  0.1129  1.1072
 4137TIP3   OH233825   6.477   3.984   4.174 -0.7524  0.0726  0.7857
 4137TIP3    H133826   6.463   4.079   4.173 -0.0498  0.1818 -1.7060
 4137TIP3    H233827   6.551   3.971   4.233  0.2483  1.2638 -0.1807
 4138TIP3   OH233828   2.865   5.390   4.418  0.1337  0.4363 -0.1627
 4138TIP3    H133829   2.897   5.457   4.478 -0.1418  0.5355 -0.1223
 4138TIP3    H233830   2.904   5.411   4.334  0.5253  0.2953 -0.0184
 4139TIP3   OH233831   0.928   3.403   3.663  0.2869  0.0523  0.5512
 4139TIP3    H133832   0.880   3.484   3.681 -0.7527  0.0426 -1.9550
 4139TIP3    H233833   1.003   3.406   3.723  0.6885  3.2551 -0.0011
 4140TIP3   OH233834   6.783   4.455  11.817  0.0424 -0.0110  0.4848
 4140TIP3    H133835   6.787   4.432  11.910 -1.5718  1.7759  1.0086
 4140TIP3    H233836   6.721   4.393  11.779 -1.8957  1.3944  1.2858
 4141TIP3   OH233837   3.771   5.337  13.677 -0.4853  0.0834  0.2725
 4141TIP3    H133838   3.712   5.359  13.749 -0.2182  1.1650  0.1685
 4141TIP3    H233839   3.729   5.371  13.599 -1.1053 -1.6939 -0.1987
 4142TIP3   OH233840   1.924   5.799  11.729  0.1112  0.3506 -0.6816
 4142TIP3    H133841   1.902   5.857  11.656 -0.5713 -0.4043 -1.0896
 4142TIP3    H233842   1.848   5.803  11.787 -0.1184 -0.4422 -0.9166
 4143TIP3   OH233843   5.224   6.622  14.908  0.5014  0.1701 -0.6629
 4143TIP3    H133844   5.153   6.642  14.969 -0.0257 -1.1225 -0.8355
 4143TIP3    H233845   5.290   6.579  14.962 -0.0337 -1.1150 -1.0336
 4144TIP3   OH233846   5.861   6.684   4.827 -0.0756 -0.0559 -0.2206
 4144TIP3    H133847   5.867   6.667   4.733 -1.0209  1.2262 -0.5253
 4144TIP3    H233848   5.855   6.597   4.866  1.9205 -0.6767 -1.2122
 4145TIP3   OH233849   3.012   6.626  12.104  0.4577  0.6445  0.4638
 4145TIP3    H133850   2.976   6.617  12.016  0.9020 -1.7840  0.4953
 4145TIP3    H233851   3.104   6.649  12.090  0.8775 -1.0959  0.2422
 4146TIP3   OH233852   3.127   4.133  16.759 -0.2036 -0.2317  0.1409
 4146TIP3    H133853   3.044   4.102  16.722  1.0792 -3.3597 -0.3348
 4146TIP3    H233854   3.189   4.126  16.687  0.3966  2.5242  0.3678
 4147TIP3   OH233855   3.158   5.710  12.623 -0.1257  0.0154 -0.2027
 4147TIP3    H133856   3.166   5.754  12.708  0.6090 -0.2718 -0.1171
 4147TIP3    H233857   3.080   5.749  12.583  0.0816  0.8519  0.1902
 4148TIP3   OH233858   3.616   0.917   4.284 -0.1815 -0.6505  0.3168
 4148TIP3    H133859   3.642   1.008   4.275 -1.4162 -0.1127  1.8482
 4148TIP3    H233860   3.629   0.879   4.197  0.8553  0.8443 -0.1915
 4149TIP3   OH233861   0.519   4.312   3.168  0.3648 -0.3728 -0.2533
 4149TIP3    H133862   0.432   4.307   3.129  0.4941 -1.4219 -0.4319
 4149TIP3    H233863   0.551   4.399   3.144  0.6287 -1.1664 -2.9426
 4150TIP3   OH233864   6.392   3.970  17.079  0.3091  0.4248 -0.1574
 4150TIP3    H133865   6.347   4.025  17.015  1.2427  1.0865 -0.2509
 4150TIP3    H233866   6.337   3.892  17.086  0.3192  0.2474 -1.9331
 4151TIP3   OH233867   2.326   3.449   2.439  0.2973  0.0859  0.1794
 4151TIP3    H133868   2.255   3.492   2.486  0.4048  0.7776 -0.2962
 4151TIP3    H233869   2.405   3.471   2.490  0.1977 -0.5892  0.6432
 4152TIP3   OH233870   3.922   3.366   4.744 -0.0258 -0.0251  0.0302
 4152TIP3    H133871   4.011   3.337   4.766  0.1854  0.1424 -0.5874
 4152TIP3    H233872   3.914   3.350   4.650  0.4084  2.6789 -0.5262
 4153TIP3   OH233873   5.688   3.313   5.575 -0.1691 -0.1624  0.2068
 4153TIP3    H133874   5.675   3.401   5.540 -0.3376 -1.1584 -2.3811
 4153TIP3    H233875   5.650   3.316   5.663 -3.0484  1.4603 -1.0273
 4154TIP3   OH233876   5.374   5.476  16.213 -0.6282 -0.1524  0.0344
 4154TIP3    H133877   5.452   5.436  16.174 -0.1734  0.9738 -0.2371
 4154TIP3    H233878   5.393   5.570  16.213 -0.9078 -0.0635  2.3591
 4155TIP3   OH233879   6.558   1.558  16.264 -0.1367 -0.4420 -0.1572
 4155TIP3    H133880   6.602   1.481  16.227 -1.9557 -2.2995  1.4182
 4155TIP3    H233881   6.466   1.533  16.269 -0.7818  1.8698  0.3852
 4156TIP3   OH233882   1.816   6.573  15.942  0.2700  0.7116 -0.0147
 4156TIP3    H133883   1.839   6.626  15.865 -0.3783  3.7246  1.7848
 4156TIP3    H233884   1.820   6.634  16.015 -0.5932 -1.7545  2.1643
 4157TIP3   OH233885   4.079   2.650  14.193  0.2654  0.4846 -0.2831
 4157TIP3    H133886   4.091   2.591  14.268 -1.0461  0.4456 -0.1035
 4157TIP3    H233887   4.013   2.712  14.222  0.9885  1.5126 -0.8047
 4158TIP3   OH233888   1.958   4.785  12.890  0.8600  0.8996 -0.0896
 4158TIP3    H133889   1.899   4.840  12.839  3.2206  2.0144 -1.6743
 4158TIP3    H233890   2.026   4.844  12.922  1.8056 -0.5625  0.6784
 4159TIP3   OH233891   5.790   5.388   4.896 -0.3450 -0.1210 -0.0347
 4159TIP3    H133892   5.738   5.444   4.839  0.2444 -0.0277 -0.4944
 4159TIP3    H233893   5.743   5.388   4.979 -0.5044  0.8260 -0.1165
 4160TIP3   OH233894   2.331   3.634   4.430  0.0248  0.6692  0.2629
 4160TIP3    H133895   2.277   3.569   4.475  0.2289 -0.0443 -0.5062
 4160TIP3    H233896   2.324   3.611   4.338  1.9950  0.2965  0.1933
 4161TIP3   OH233897   0.190   2.506  11.825  0.5923  0.1585  0.7310
 4161TIP3    H133898   0.254   2.498  11.896  1.2685  1.7441  0.3042
 4161TIP3    H233899   0.105   2.510  11.870  0.7315 -2.1703  1.2937
 4162TIP3   OH233900   5.892   0.785   3.944  0.4050 -0.2234  0.4224
 4162TIP3    H133901   5.798   0.775   3.926  0.6516 -0.6127 -0.7155
 4162TIP3    H233902   5.910   0.877   3.927 -0.1963  0.3711  2.7866
 4163TIP3   OH233903   1.662   0.844   2.024  0.0093  1.0117 -0.4266
 4163TIP3    H133904   1.678   0.928   2.068 -0.5602  0.7570  0.2697
 4163TIP3    H233905   1.716   0.848   1.945  0.0551  2.0011 -0.3537
 4164TIP3   OH233906   6.710   1.915   0.348  0.4398  0.0627  0.4246
 4164TIP3    H133907   6.701   1.968   0.427  1.6201  1.6808 -0.5114
 4164TIP3    H233908   6.685   1.827   0.376 -0.0451  0.7917  2.3741
 4165TIP3   OH233909   2.981   1.536  17.006  0.0167 -0.6111  0.5012
 4165TIP3    H133910   2.956   1.500  16.922  2.2220 -1.5052  0.2030
 4165TIP3    H233911   3.069   1.571  16.993 -1.0517  2.6867  1.4392
 4166TIP3   OH233912   6.379   3.627  12.970 -0.0419 -0.8444  0.4453
 4166TIP3    H133913   6.361   3.680  13.048  1.6080 -1.2228  1.1057
 4166TIP3    H233914   6.389   3.692  12.900  1.5637 -0.2818  1.1708
 4167TIP3   OH233915   4.743   1.075  14.638  0.1772 -0.3618  0.0497
 4167TIP3    H133916   4.824   1.106  14.679 -1.0296 -0.4617  2.6336
 4167TIP3    H233917   4.720   1.144  14.576  0.1768  1.5629  2.1352
 4168TIP3   OH233918   6.032   3.513   0.947  0.2201 -0.1556  0.1093
 4168TIP3    H133919   6.032   3.448   0.877  1.0055 -0.1657  0.1211
 4168TIP3    H233920   6.111   3.495   0.998 -0.0324  0.2273  0.6513
 4169TIP3   OH233921   5.002   4.896   5.359 -0.1295  0.0725 -0.2657
 4169TIP3    H133922   4.957   4.818   5.393 -2.4618  1.7260  0.5846
 4169TIP3    H233923   4.936   4.965   5.363  2.0513  2.2327 -0.5382
 4170TIP3   OH233924   2.975   1.932  11.277 -0.3689  0.3842  0.4266
 4170TIP3    H133925   3.046   1.938  11.213 -0.1753 -0.4729  0.5546
 4170TIP3    H233926   2.897   1.958  11.229 -0.2121 -0.1987 -0.1454
 4171TIP3   OH233927   3.150   6.426   6.018 -0.6849 -0.2990  0.2168
 4171TIP3    H133928   3.066   6.471   6.007 -0.2311  0.3964 -0.4318
 4171TIP3    H233929   3.198   6.445   5.938 -0.8777 -2.8193 -0.5596
 4172TIP3   OH233930   5.566   2.035  15.745 -0.1131 -0.2205  0.1440
 4172TIP3    H133931   5.624   2.061  15.674 -2.0494  1.3071 -0.9204
 4172TIP3    H233932   5.539   2.117  15.786 -3.1838 -0.6873 -0.7610
 4173TIP3   OH233933   2.281   0.252  12.427 -0.1472 -0.3492 -0.2653
 4173TIP3    H133934   2.293   0.158  12.416 -0.8354 -0.7248  1.9737
 4173TIP3    H233935   2.242   0.281  12.345  0.9694 -1.8432 -1.3434
 4174TIP3   OH233936   0.900   5.241   5.622  0.1978  0.1303  0.3009
 4174TIP3    H133937   0.928   5.152   5.601 -0.5730 -0.2393  0.7840
 4174TIP3    H233938   0.981   5.291   5.631  0.7508 -1.1203  2.6225
 4175TIP3   OH233939   3.875   4.738   1.722  0.1124  0.1217  0.3289
 4175TIP3    H133940   3.878   4.735   1.817 -2.3504 -1.0446  0.4193
 4175TIP3    H233941   3.911   4.654   1.694  1.4068  0.7158  0.2064
 4176TIP3   OH233942   6.225   5.043  13.493  0.5456  0.0657  0.3723
 4176TIP3    H133943   6.294   4.986  13.526  1.0613  1.8579  2.5061
 4176TIP3    H233944   6.263   5.086  13.417 -0.2502 -3.2292 -2.0311
 4177TIP3   OH233945   5.799   4.166   1.142  0.8676  0.0435  0.1456
 4177TIP3    H133946   5.825   4.099   1.205 -0.5738 -3.8417 -3.1520
 4177TIP3    H233947   5.705   4.154   1.131  0.6405  2.3630 -0.8730
 4178TIP3   OH233948   0.722   5.353   0.718 -0.4146 -0.0622  0.0095
 4178TIP3    H133949   0.805   5.323   0.756 -0.4191  1.2564  1.0976
 4178TIP3    H233950   0.657   5.331   0.784 -0.7888 -0.1750 -0.4014
 4179TIP3   OH233951   2.348   0.420  12.876 -0.1686 -0.3510  0.3167
 4179TIP3    H133952   2.439   0.391  12.884 -0.5177 -1.1259  1.5023
 4179TIP3    H233953   2.301   0.371  12.943 -2.0480 -2.3389 -2.3275
 4180TIP3   OH233954   0.978   5.181  10.336  0.0937 -0.2521  0.0433
 4180TIP3    H133955   0.891   5.140  10.344  0.7130 -1.6776 -0.2700
 4180TIP3    H233956   0.981   5.245  10.406 -1.0001 -0.6100  0.4254
 4181TIP3   OH233957   3.460   4.000  15.989  0.3105  0.6870  0.1917
 4181TIP3    H133958   3.423   4.019  15.903 -0.4402  0.9329  0.5635
 4181TIP3    H233959   3.400   3.936  16.027  0.8264  0.3244  0.3975
 4182TIP3   OH233960   5.647   2.213  13.658  0.0627 -0.0811 -0.1994
 4182TIP3    H133961   5.738   2.190  13.641 -0.1849  0.3202 -2.1161
 4182TIP3    H233962   5.652   2.292  13.713  0.8617 -0.9267  0.9563
 4183TIP3   OH233963   1.845   1.297   1.145  0.1988 -0.1690 -0.5757
 4183TIP3    H133964   1.848   1.293   1.241  0.2279 -0.4091 -0.5867
 4183TIP3    H233965   1.933   1.274   1.117  0.9527  2.5562 -0.5803
 4184TIP3   OH233966   6.283   3.992  11.529  0.6447 -0.4697  0.2322
 4184TIP3    H133967   6.247   4.080  11.529  1.8100  0.0402 -1.6404
 4184TIP3    H233968   6.207   3.934  11.521 -0.0325  0.4054  0.3436
 4185TIP3   OH233969   1.868   5.211   0.690 -0.0481  0.1108 -0.8792
 4185TIP3    H133970   1.960   5.210   0.667 -0.7386  0.1006 -3.8619
 4185TIP3    H233971   1.837   5.298   0.664 -0.6251  0.5508  1.2071
 4186TIP3   OH233972   0.296   4.228   3.026  0.2396 -0.0784 -0.1067
 4186TIP3    H133973   0.223   4.286   3.005 -0.2550 -0.8344 -0.4856
 4186TIP3    H233974   0.271   4.186   3.109 -0.3752 -1.3515 -0.9254
 4187TIP3   OH233975   5.765   6.549  14.231  0.2728  0.3856 -0.0908
 4187TIP3    H133976   5.814   6.631  14.226  0.5300  0.3271  1.2340
 4187TIP3    H233977   5.675   6.574  14.211  0.0987  1.2575  1.6649
 4188TIP3   OH233978   5.228   0.794   1.167 -0.8028 -0.6578 -0.4978
 4188TIP3    H133979   5.260   0.776   1.255 -1.1963  0.3575 -0.1458
 4188TIP3    H233980   5.141   0.832   1.180 -0.3254  0.7481 -1.2524
 4189TIP3   OH233981   4.810   5.549  13.259  0.4643  0.3081  0.2690
 4189TIP3    H133982   4.814   5.610  13.186  0.3792  0.5682  0.4836
 4189TIP3    H233983   4.804   5.463  13.218 -0.7046  0.5295 -0.0295
 4190TIP3   OH233984   5.585   3.766   4.996  0.0049  0.6245 -0.2966
 4190TIP3    H133985   5.675   3.792   5.018  0.8584  0.0257 -2.9766
 4190TIP3    H233986   5.530   3.820   5.054  2.0402  1.7714  0.6176
 4191TIP3   OH233987   1.275   4.452   3.824  0.1090  0.1830  0.6359
 4191TIP3    H133988   1.281   4.422   3.734  0.5065  0.3238  0.6164
 4191TIP3    H233989   1.197   4.508   3.825 -0.3156 -0.4007  0.5498
 4192TIP3   OH233990   3.037   3.682  11.452  0.8443  0.2176  0.2694
 4192TIP3    H133991   3.089   3.732  11.515 -1.9554  1.3125  1.8205
 4192TIP3    H233992   3.051   3.591  11.475  1.3886  0.5490  1.2344
 4193TIP3   OH233993   1.883   4.577   4.488  0.2170  0.8245 -0.0108
 4193TIP3    H133994   1.951   4.516   4.460 -0.5446 -1.4246  2.7696
 4193TIP3    H233995   1.802   4.543   4.449 -0.2432 -0.1293  1.7074
 4194TIP3   OH233996   5.867   5.708  16.521 -0.0103  0.4880  0.6022
 4194TIP3    H133997   5.939   5.769  16.535 -0.5623  1.1034  0.8099
 4194TIP3    H233998   5.877   5.679  16.430  0.4650  0.6016  0.6190
 4195TIP3   OH233999   5.764   5.323  16.451  0.0507  0.4482  0.3399
 4195TIP3    H134000   5.843   5.324  16.397 -1.7981 -0.4233 -2.5019
 4195TIP3    H234001   5.721   5.406  16.433 -0.8622 -0.0842  0.0189
 4196TIP3   OH234002   1.766   6.028  10.674  0.7979  0.3849  0.0207
 4196TIP3    H134003   1.768   5.965  10.746 -2.6852 -0.9163 -0.8944
 4196TIP3    H234004   1.793   5.978  10.597 -1.7224 -0.0125 -0.6605
 4197TIP3   OH234005   4.483   1.814  16.185 -0.1706  0.0907  0.0142
 4197TIP3    H134006   4.558   1.787  16.132  0.5898  0.1136  1.0544
 4197TIP3    H234007   4.409   1.811  16.125  0.3964 -1.4184 -0.6466
 4198TIP3   OH234008   2.880   0.235   0.287 -0.1360  0.6572 -0.6126
 4198TIP3    H134009   2.841   0.293   0.221  0.8774 -0.0602 -1.8848
 4198TIP3    H234010   2.806   0.202   0.337 -1.3574 -1.6221 -3.7564
 4199TIP3   OH234011   3.840   0.707   0.765  0.3164  0.0433 -0.4397
 4199TIP3    H134012   3.904   0.637   0.768  0.1570 -0.1527 -1.3307
 4199TIP3    H234013   3.842   0.746   0.852  0.4115 -1.0605  0.0548
 4200TIP3   OH234014   0.555   1.845   0.630 -0.2918 -0.0683  0.6209
 4200TIP3    H134015   0.513   1.895   0.560  2.9503 -0.9720 -2.1379
 4200TIP3    H234016   0.643   1.882   0.636 -0.0082 -1.0687  3.1709
 4201TIP3   OH234017   2.421   5.217  15.145 -0.3568 -0.2318  0.2836
 4201TIP3    H134018   2.496   5.275  15.158  0.1826 -0.7613 -0.4050
 4201TIP3    H234019   2.459   5.131  15.129 -1.1434 -0.7060  0.9200
 4202TIP3   OH234020   6.579   2.819  15.856  0.0170  0.3434 -0.4547
 4202TIP3    H134021   6.599   2.895  15.912 -0.7824  0.8381 -0.8456
 4202TIP3    H234022   6.642   2.753  15.884 -0.3311  0.6064  1.0068
 4203TIP3   OH234023   1.671   0.243   2.393  0.2814  0.4426 -0.5538
 4203TIP3    H134024   1.690   0.253   2.300 -0.9556  2.3957 -0.6156
 4203TIP3    H234025   1.688   0.329   2.431 -0.4785  0.0154  0.7984
 4204TIP3   OH234026   3.902   4.080   5.454 -0.1551 -0.1714  0.0191
 4204TIP3    H134027   3.965   4.092   5.525  0.1438  0.5277 -0.3560
 4204TIP3    H234028   3.886   4.169   5.421 -1.1697 -0.3674 -0.0369
 4205TIP3   OH234029   4.933   0.641   1.918  0.6913  0.1035 -0.0572
 4205TIP3    H134030   4.896   0.656   2.005 -0.6862  0.7550 -0.7250
 4205TIP3    H234031   5.023   0.615   1.934  0.6649  0.9215  1.5358
 4206TIP3   OH234032   5.009   2.550   4.554 -0.1354 -0.8390  0.0492
 4206TIP3    H134033   4.975   2.492   4.486 -1.3116  0.0782 -0.1470
 4206TIP3    H234034   5.037   2.491   4.624 -0.5782 -1.6816 -0.4807
 4207TIP3   OH234035   6.695   3.404   2.162  0.6711  0.7110  0.3297
 4207TIP3    H134036   6.784   3.379   2.188  0.5671 -0.4057 -0.3455
 4207TIP3    H234037   6.669   3.336   2.100  0.3391  2.5226 -1.5404
 4208TIP3   OH234038   5.756   6.769  15.255  0.0356 -0.6872  0.2675
 4208TIP3    H134039   5.828   6.810  15.302 -1.0162  1.2653  0.2424
 4208TIP3    H234040   5.789   6.757  15.166  0.8224 -1.1597  0.6216
 4209TIP3   OH234041   1.254   3.819  15.119 -0.2837 -0.1405  0.4535
 4209TIP3    H134042   1.163   3.844  15.134  0.2999  0.8790  2.5016
 4209TIP3    H234043   1.304   3.899  15.137  1.0220 -0.7203 -0.5243
 4210TIP3   OH234044   4.925   6.281   3.628 -0.3044 -0.2565  0.0133
 4210TIP3    H134045   4.924   6.358   3.572  0.3547 -1.5978 -1.9119
 4210TIP3    H234046   4.833   6.259   3.640 -0.5000  0.9022  0.7027
 4211TIP3   OH234047   6.037   6.724   0.842 -0.2243  0.8508 -0.0137
 4211TIP3    H134048   6.022   6.631   0.825 -0.4064  0.5091  1.9495
 4211TIP3    H234049   6.021   6.734   0.936  1.1468  2.5870  0.0527
 4212TIP3   OH234050   4.155   3.496  16.596 -0.2297  0.1436 -0.1996
 4212TIP3    H134051   4.097   3.424  16.618  1.0411 -0.9319 -0.2977
 4212TIP3    H234052   4.097   3.570  16.582 -1.4865 -0.6021  0.9084
 4213TIP3   OH234053   6.752   4.810  15.455 -0.4143 -0.3341  0.0306
 4213TIP3    H134054   6.703   4.795  15.536  0.9479 -1.6390  0.6357
 4213TIP3    H234055   6.770   4.722  15.422 -1.5774  0.1935 -2.0817
 4214TIP3   OH234056   1.388   3.753   1.362  0.4836  0.3547  0.2524
 4214TIP3    H134057   1.464   3.717   1.318  0.0237  0.6382 -0.8086
 4214TIP3    H234058   1.320   3.756   1.294 -0.3980  0.3366  1.1082
 4215TIP3   OH234059   5.623   2.411   4.327  0.2904 -0.1882 -0.5502
 4215TIP3    H134060   5.534   2.405   4.360  0.2169  0.1228 -0.6957
 4215TIP3    H234061   5.644   2.504   4.329  0.6145 -0.2584 -0.5122
 4216TIP3   OH234062   0.763   0.361   5.957 -0.0130 -0.1826 -0.3684
 4216TIP3    H134063   0.787   0.348   5.865 -0.4651  0.4993 -0.5828
 4216TIP3    H234064   0.787   0.279   5.999  2.5960  0.4196 -0.5942
 4217TIP3   OH234065   6.099   0.466   3.786 -0.1195  0.1561  0.1194
 4217TIP3    H134066   6.028   0.513   3.742 -0.3054 -0.2499 -0.0186
 4217TIP3    H234067   6.142   0.417   3.715  0.4428  0.5861  0.1629
 4218TIP3   OH234068   0.470   4.267   4.556 -0.4644  0.1917  0.5721
 4218TIP3    H134069   0.423   4.184   4.546 -0.0041 -0.3204  2.4653
 4218TIP3    H234070   0.470   4.284   4.650  0.1138  1.9682  0.2755
 4219TIP3   OH234071   3.233   4.004   6.441  0.4246 -0.0125 -0.3751
 4219TIP3    H134072   3.164   3.971   6.497 -0.3192  1.3913 -0.4392
 4219TIP3    H234073   3.291   3.929   6.426 -0.8784 -1.0912 -0.0181
 4220TIP3   OH234074   2.245   6.409   1.516 -0.2037  0.4429  0.2008
 4220TIP3    H134075   2.284   6.462   1.586 -1.4817  0.9852  0.5279
 4220TIP3    H234076   2.261   6.460   1.436 -0.3093  0.7043  0.3435
 4221TIP3   OH234077   5.502   4.172   1.326 -0.4645 -0.4346  0.2673
 4221TIP3    H134078   5.567   4.236   1.356  1.5957 -1.9370 -0.8020
 4221TIP3    H234079   5.516   4.166   1.232  0.1446 -3.1847  0.4745
 4222TIP3   OH234080   5.433   4.754  11.083 -0.2309 -0.0020 -0.1936
 4222TIP3    H134081   5.463   4.742  10.993 -1.8787 -0.1919 -0.7182
 4222TIP3    H234082   5.489   4.696  11.134 -0.3403 -1.0969 -1.2924
 4223TIP3   OH234083   6.088   4.335  12.997  0.1515 -0.4783 -0.0272
 4223TIP3    H134084   6.085   4.342  13.093 -2.2468 -4.2517  0.2887
 4223TIP3    H234085   6.011   4.383  12.967  1.5543  1.7178 -0.1913
 4224TIP3   OH234086   1.042   0.288   2.094  0.3760  1.4015  0.2021
 4224TIP3    H134087   1.084   0.258   2.013  0.2122  1.2325  0.1800
 4224TIP3    H234088   0.949   0.295   2.072  0.0544 -0.4740  0.9139
 4225TIP3   OH234089   3.445   5.606  10.721  0.3197  0.0658 -0.9329
 4225TIP3    H134090   3.403   5.520  10.721 -1.2902  0.8139  0.3962
 4225TIP3    H234091   3.531   5.590  10.761 -0.5723 -0.6839  0.7697
 4226TIP3   OH234092   0.528   3.350  15.962  0.1621 -0.0994  0.1570
 4226TIP3    H134093   0.599   3.412  15.974 -0.4860  0.7616 -0.4150
 4226TIP3    H234094   0.521   3.339  15.868 -1.6500  1.2303  0.1053
 4227TIP3   OH234095   6.774   0.440  15.471  0.0785 -0.2839 -0.2747
 4227TIP3    H134096   6.708   0.386  15.427  1.7380 -2.1121 -0.6231
 4227TIP3    H234097   6.754   0.431  15.564 -1.7599  1.3516 -0.4789
 4228TIP3   OH234098   2.816   1.564   0.679 -0.2704  0.1189  0.5439
 4228TIP3    H134099   2.770   1.574   0.762  1.4340  3.6668  1.1545
 4228TIP3    H234100   2.777   1.630   0.621  1.4186  0.5866 -0.0969
 4229TIP3   OH234101   6.367   3.138   0.003 -0.3718  0.1526 -0.0972
 4229TIP3    H134102   6.363   3.161   0.096 -0.2909  0.4105 -0.1580
 4229TIP3    H234103   6.367   3.222  -0.043 -1.0302  0.0103 -0.3565
 4230TIP3   OH234104   0.666   0.026   3.838 -0.0987  0.1997  0.1370
 4230TIP3    H134105   0.588   0.028   3.893  0.1287 -0.1830  0.4728
 4230TIP3    H234106   0.707  -0.059   3.857  0.3025  0.3232 -0.1702
 4231TIP3   OH234107   2.623   2.229   3.422 -0.0840 -0.1676 -0.1987
 4231TIP3    H134108   2.673   2.284   3.482 -1.0384 -0.9486  1.3705
 4231TIP3    H234109   2.649   2.139   3.446 -0.1160 -0.4757 -1.2933
 4232TIP3   OH234110   3.332   5.309  11.410 -0.3698  0.7247  0.4323
 4232TIP3    H134111   3.280   5.236  11.377 -0.9453  1.5100 -0.4267
 4232TIP3    H234112   3.420   5.293  11.375 -0.3337  0.0931  0.8018
 4233TIP3   OH234113   2.664   2.293  12.070  0.1710 -0.1059 -0.2188
 4233TIP3    H134114   2.724   2.219  12.059 -0.3802 -0.3872 -1.4949
 4233TIP3    H234115   2.577   2.255  12.055  0.0968  1.4489 -4.5061
 4234TIP3   OH234116   6.406   3.313  16.651 -0.0909 -0.4047 -0.5007
 4234TIP3    H134117   6.460   3.391  16.668  0.2736 -1.2095  2.2296
 4234TIP3    H234118   6.445   3.274  16.572 -0.1123  2.0053 -1.7426
 4235TIP3   OH234119   6.069   3.452   2.056  0.3625 -0.5090  0.2301
 4235TIP3    H134120   5.988   3.407   2.029  0.7109 -1.0101  0.0063
 4235TIP3    H234121   6.091   3.412   2.140  0.0030  0.1157  0.6270
 4236TIP3   OH234122   1.012   2.734   5.692 -0.1540  0.0143 -0.2675
 4236TIP3    H134123   1.105   2.744   5.714  0.1444 -0.6699 -1.1934
 4236TIP3    H234124   0.966   2.767   5.769  0.8405  1.3130 -0.2147
 4237TIP3   OH234125   3.671   6.521  17.106 -0.7702  0.1718 -0.1443
 4237TIP3    H134126   3.615   6.500  17.030  0.6508 -2.4337 -0.5293
 4237TIP3    H234127   3.629   6.476  17.179  0.4775 -1.3399 -0.3346
 4238TIP3   OH234128   1.656   2.568  13.678  0.1171  0.0761  0.4002
 4238TIP3    H134129   1.565   2.539  13.678 -0.6617  2.2553  2.6020
 4238TIP3    H234130   1.671   2.603  13.590 -1.2467 -0.0917  0.0971
 4239TIP3   OH234131   1.238   5.569  12.010 -0.1404 -0.1184  0.7426
 4239TIP3    H134132   1.166   5.560  11.948  0.7688 -0.8042 -0.2411
 4239TIP3    H234133   1.217   5.506  12.080 -0.6703 -0.0509  0.6498
 4240TIP3   OH234134   0.504   6.110  14.083  0.8576 -0.0364 -0.3292
 4240TIP3    H134135   0.496   6.076  13.995 -0.2598  1.0631 -0.6657
 4240TIP3    H234136   0.425   6.082  14.128  1.1416 -0.0891  0.1449
 4241TIP3   OH234137   2.714   1.431   5.664  0.0226 -0.5503  0.1237
 4241TIP3    H134138   2.662   1.487   5.606  0.2867 -0.3288  0.1017
 4241TIP3    H234139   2.711   1.474   5.749  0.5360 -0.3050  0.0189
 4242TIP3   OH234140   0.998   3.429   1.881  0.1636 -0.4386  0.1382
 4242TIP3    H134141   0.960   3.395   1.962 -1.4401  0.4464 -0.2211
 4242TIP3    H234142   1.005   3.524   1.895 -1.6604 -0.0570 -1.3482
 4243TIP3   OH234143   3.943   2.050   0.808  0.3168 -0.3030  0.0883
 4243TIP3    H134144   3.849   2.035   0.814  0.3633 -1.6939 -2.0925
 4243TIP3    H234145   3.981   1.992   0.874 -0.4345  2.0332  2.6954
 4244TIP3   OH234146   4.860   6.167   0.011 -0.7545  0.4930 -0.0781
 4244TIP3    H134147   4.774   6.206  -0.003 -0.7668  0.1094 -1.1027
 4244TIP3    H234148   4.859   6.088  -0.043  0.3183  0.5957 -0.2483
 4245TIP3   OH234149   5.835   1.460  12.614 -0.4662  0.2408 -0.2157
 4245TIP3    H134150   5.884   1.440  12.535  0.2088 -1.2921  0.5728
 4245TIP3    H234151   5.880   1.536  12.651 -1.5871  1.7903 -1.9747
 4246TIP3   OH234152   1.450   3.695  15.766  0.0104  0.1265 -0.1387
 4246TIP3    H134153   1.457   3.790  15.754 -0.8784  0.2664  0.3928
 4246TIP3    H234154   1.519   3.658  15.710  0.5935  1.1010 -0.0747
 4247TIP3   OH234155   1.604   1.243   4.717  0.1914 -0.2798 -0.2134
 4247TIP3    H134156   1.571   1.215   4.802 -0.2404  0.3079 -0.1808
 4247TIP3    H234157   1.603   1.339   4.721  0.1750 -0.2467 -0.8793
 4248TIP3   OH234158   3.835   6.660  12.617  0.0675 -0.1318 -0.2471
 4248TIP3    H134159   3.929   6.641  12.612  0.6094  1.4632  2.6751
 4248TIP3    H234160   3.801   6.638  12.531  3.2189 -0.2976 -1.5021
 4249TIP3   OH234161   0.696   1.785  15.922 -0.5276  0.1068  0.5313
 4249TIP3    H134162   0.755   1.860  15.917 -1.6705  1.1189  1.7072
 4249TIP3    H234163   0.690   1.765  16.015 -0.0493 -1.6181  0.2069
 4250TIP3   OH234164   5.514   5.311  13.735  0.3388  0.5344 -0.4739
 4250TIP3    H134165   5.460   5.319  13.657 -0.9054  1.3614  0.4599
 4250TIP3    H234166   5.452   5.303  13.808  1.4525  1.0512  0.5647
 4251TIP3   OH234167   1.252   6.155   3.106  0.1514 -0.1184  0.1538
 4251TIP3    H134168   1.301   6.145   3.188  1.2667 -1.3066 -0.6440
 4251TIP3    H234169   1.271   6.244   3.078 -1.0189  0.6382  1.6736
 4252TIP3   OH234170   4.768   5.708   4.519  0.1650  0.5235 -0.2823
 4252TIP3    H134171   4.713   5.659   4.457  1.1836 -0.5607 -0.3529
 4252TIP3    H234172   4.846   5.653   4.530  0.0756  0.7772  1.8445
 4253TIP3   OH234173   2.841   4.811   4.338  0.1321  0.1813 -0.3417
 4253TIP3    H134174   2.931   4.791   4.364  0.0274 -0.7901 -0.7172
 4253TIP3    H234175   2.843   4.807   4.242 -0.7362 -1.6766 -0.2807
 4254TIP3   OH234176   3.290   6.737  12.154  0.1928 -0.5531  0.3838
 4254TIP3    H134177   3.322   6.649  12.135  0.9045  0.0052 -1.1314
 4254TIP3    H234178   3.342   6.765  12.229  1.7399 -0.5064 -0.6747
 4255TIP3   OH234179   5.225   6.476   1.823  0.1857  0.7431 -0.2596
 4255TIP3    H134180   5.292   6.502   1.761  0.0824  0.3025 -0.5624
 4255TIP3    H234181   5.216   6.381   1.809  1.2990  0.3499  1.5210
 4256TIP3   OH234182   2.461   0.992  15.689 -0.8429 -0.1730  0.6366
 4256TIP3    H134183   2.549   1.003  15.725 -0.3402  1.8146 -1.1071
 4256TIP3    H234184   2.403   1.029  15.755 -0.3087 -0.6586  1.3883
 4257TIP3   OH234185   6.032   2.363  14.388 -0.4987  0.1690  0.7134
 4257TIP3    H134186   6.116   2.390  14.424 -0.4687  0.4797  0.4066
 4257TIP3    H234187   5.972   2.434  14.410 -0.3651  0.6119 -0.2965
 4258TIP3   OH234188   4.610   1.147  11.180  0.4177  0.9646  0.0134
 4258TIP3    H134189   4.537   1.123  11.237  1.3103  1.1923  1.2846
 4258TIP3    H234190   4.652   1.221  11.224  1.7662  0.4732 -0.3898
 4259TIP3   OH234191   2.926   2.653   6.060  0.4428 -0.2279 -0.0395
 4259TIP3    H134192   2.926   2.624   6.151  2.7033  1.3484  0.4992
 4259TIP3    H234193   2.921   2.749   6.065 -2.6675 -0.2427 -1.6865
 4260TIP3   OH234194   4.453   3.319   2.712  0.2665 -0.0947 -0.2829
 4260TIP3    H134195   4.432   3.410   2.692 -1.9088 -0.0242  2.0078
 4260TIP3    H234196   4.414   3.269   2.641 -1.0192  0.6003 -0.0806
 4261TIP3   OH234197   4.476   6.199  11.809 -0.4835 -0.2498 -0.0115
 4261TIP3    H134198   4.448   6.111  11.785  0.9125 -0.6109 -0.3641
 4261TIP3    H234199   4.533   6.226  11.737 -0.3421  0.6734  0.4371
 4262TIP3   OH234200   4.003   2.740  15.363  0.0799 -0.2394 -0.6093
 4262TIP3    H134201   4.098   2.726  15.364  0.1302  0.1086 -0.6222
 4262TIP3    H234202   3.975   2.719  15.452  0.5134  2.1181  0.1175
 4263TIP3   OH234203   3.434   1.869  12.885 -0.5431 -0.1029  0.0498
 4263TIP3    H134204   3.508   1.809  12.874  0.2306  0.0396  3.8243
 4263TIP3    H234205   3.468   1.953  12.855  0.7558 -0.1285  1.3461
 4264TIP3   OH234206   3.461   1.811   0.732  0.0321  0.1298 -0.0011
 4264TIP3    H134207   3.472   1.718   0.754 -1.2183 -0.0036  0.0698
 4264TIP3    H234208   3.438   1.853   0.814  0.2618  0.4484 -0.0997
 4265TIP3   OH234209   6.383   2.648   1.326 -0.5605  0.3431  0.2721
 4265TIP3    H134210   6.335   2.693   1.257 -1.1403 -0.0959  0.3872
 4265TIP3    H234211   6.353   2.690   1.407  0.4805  1.1907  0.2306
 4266TIP3   OH234212   0.790   0.095   1.451  0.4385 -0.2014 -0.3986
 4266TIP3    H134213   0.785   0.165   1.516 -0.3763  0.3038 -0.9964
 4266TIP3    H234214   0.752   0.019   1.494 -0.8255  0.3374 -0.5506
 4267TIP3   OH234215   1.284   2.470  12.793 -0.0348 -0.1604 -0.2009
 4267TIP3    H134216   1.372   2.488  12.826 -0.4172  0.3433  0.5688
 4267TIP3    H234217   1.262   2.548  12.742 -0.5347  0.2810  0.6806
 4268TIP3   OH234218   4.143   0.900  14.571  0.8334  0.1979 -0.9013
 4268TIP3    H134219   4.145   0.882  14.477  3.0006  0.3183 -0.9204
 4268TIP3    H234220   4.061   0.947  14.586 -0.2691 -1.1709 -2.4718
 4269TIP3   OH234221   4.549   4.022   1.757 -0.3054  0.0440 -0.1376
 4269TIP3    H134222   4.510   3.941   1.789 -2.8963  0.5368 -1.9325
 4269TIP3    H234223   4.630   3.995   1.714 -1.3406 -1.6235 -1.0479
 4270TIP3   OH234224   2.814   6.202   1.149 -0.5684 -0.5817  0.0666
 4270TIP3    H134225   2.731   6.155   1.145 -0.5523 -0.4882 -2.6349
 4270TIP3    H234226   2.801   6.267   1.218 -2.0583 -1.8203  0.9851
 4271TIP3   OH234227   3.901   4.434   2.726 -0.4559  0.0071 -0.7462
 4271TIP3    H134228   3.950   4.377   2.786  1.0532  1.3396 -0.6772
 4271TIP3    H234229   3.943   4.421   2.641 -0.6385  0.3891 -0.8965
 4272TIP3   OH234230   4.791   3.068  11.887  0.0239  0.3335  0.4166
 4272TIP3    H134231   4.831   3.075  11.973  1.6213 -3.8312  0.1422
 4272TIP3    H234232   4.865   3.067  11.826 -0.7760 -1.4298 -0.5805
 4273TIP3   OH234233   0.666   5.062   2.760  0.0764  0.3707 -0.0405
 4273TIP3    H134234   0.656   5.147   2.802 -0.5878 -0.7511  2.1469
 4273TIP3    H234235   0.580   5.044   2.722 -0.1545  0.1113  0.6011
 4274TIP3   OH234236   2.411   4.404   1.935  0.2581  0.2836  0.4030
 4274TIP3    H134237   2.348   4.348   1.890  0.6201 -0.4093  0.7430
 4274TIP3    H234238   2.364   4.436   2.012 -0.0937  0.8066 -0.0287
 4275TIP3   OH234239   3.064   2.973   6.474  0.0444 -0.4089 -0.3750
 4275TIP3    H134240   3.094   2.882   6.483 -2.1977 -1.5494 -3.8133
 4275TIP3    H234241   2.975   2.973   6.510 -1.1161 -0.3139 -3.1695
 4276TIP3   OH234242   2.053   0.124   1.750  0.2142  0.1467 -0.2002
 4276TIP3    H134243   1.997   0.063   1.800 -1.4202  0.5369 -1.5039
 4276TIP3    H234244   2.100   0.173   1.817 -1.5649  0.3188  0.9723
 4277TIP3   OH234245   3.364   3.393  11.447 -0.6885 -0.6094  0.4278
 4277TIP3    H134246   3.392   3.405  11.356 -2.5268  0.5615 -0.0171
 4277TIP3    H234247   3.386   3.302  11.467  1.3730 -0.3581 -0.5844
 4278TIP3   OH234248   0.930   4.286   4.682  0.3821 -0.2683 -0.0197
 4278TIP3    H134249   0.915   4.243   4.766 -0.1884 -0.4921 -0.2281
 4278TIP3    H234250   0.981   4.223   4.631  3.1518  0.9912  1.1226
 4279TIP3   OH234251   4.522   4.871   0.195  1.1609 -0.0661 -0.3236
 4279TIP3    H134252   4.455   4.825   0.145  0.4509 -0.1888  0.7399
 4279TIP3    H234253   4.572   4.919   0.129  0.7562 -0.8998 -1.2375
 4280TIP3   OH234254   3.471   5.807  10.516 -0.4437  0.0447  0.0092
 4280TIP3    H134255   3.498   5.738  10.576 -0.5686  1.3479  1.6008
 4280TIP3    H234256   3.413   5.863  10.568 -0.1506  1.4877 -1.1747
 4281TIP3   OH234257   3.223   1.408  15.200  0.0674 -0.4952 -0.7792
 4281TIP3    H134258   3.303   1.447  15.166  0.0715  0.9495  0.8255
 4281TIP3    H234259   3.186   1.360  15.126  1.2136  0.7239 -2.1684
 4282TIP3   OH234260   4.448   0.920  15.960  0.6611  0.3442  0.4376
 4282TIP3    H134261   4.507   0.862  15.912  1.5700  0.0457  1.8975
 4282TIP3    H234262   4.486   1.007  15.949 -1.3658  0.9202 -2.7841
 4283TIP3   OH234263   3.560   5.924  14.653 -0.8664 -0.0213 -0.1601
 4283TIP3    H134264   3.541   5.884  14.567  1.8606 -0.6506 -0.5369
 4283TIP3    H234265   3.622   5.863  14.693 -0.9892  1.0377  1.6517
 4284TIP3   OH234266   6.008   1.463   4.099  0.5924  0.4915  0.2392
 4284TIP3    H134267   6.000   1.434   4.190  0.5477 -1.3721 -0.3461
 4284TIP3    H234268   6.087   1.421   4.066  0.1517  0.4696 -0.8328
 4285TIP3   OH234269   1.446   2.317   0.260 -0.1759 -0.0720  0.2329
 4285TIP3    H134270   1.525   2.299   0.208  0.9615  0.2796  1.7935
 4285TIP3    H234271   1.382   2.350   0.196 -0.4639 -4.1796 -1.7956
 4286TIP3   OH234272   2.131   5.647  13.541  0.0394  0.1313 -0.3467
 4286TIP3    H134273   2.102   5.709  13.609  1.0709  0.1502  0.0897
 4286TIP3    H234274   2.053   5.631  13.488 -0.7015  0.3743  0.6523
 4287TIP3   OH234275   3.673   4.488   2.860  0.1229  0.0672 -0.1048
 4287TIP3    H134276   3.612   4.414   2.861 -1.3263  1.2338  1.5351
 4287TIP3    H234277   3.755   4.451   2.830 -0.4557 -2.3196  1.1278
 4288TIP3   OH234278   6.291   1.727  16.615 -0.0044 -0.0862 -0.0457
 4288TIP3    H134279   6.293   1.749  16.708 -0.6032  1.5860 -0.4099
 4288TIP3    H234280   6.198   1.731  16.592  0.2159  0.2673 -0.8872
 4289TIP3   OH234281   4.021   4.961  12.776 -0.0686 -0.0103 -0.4021
 4289TIP3    H134282   3.961   4.977  12.848  1.2485  1.2949  0.4372
 4289TIP3    H234283   4.083   5.035  12.779  1.6899 -1.4067 -1.1198
 4290TIP3   OH234284   6.228   5.120  11.056  0.1508 -0.1014  0.3845
 4290TIP3    H134285   6.163   5.131  10.987 -2.0065  0.7609  2.4758
 4290TIP3    H234286   6.277   5.203  11.056 -0.2645  0.1442  0.3021
 4291TIP3   OH234287   6.478   1.345  15.779 -0.3090 -0.2645 -0.4526
 4291TIP3    H134288   6.478   1.416  15.714  0.6101  0.1668  0.0021
 4291TIP3    H234289   6.409   1.368  15.840 -1.1418 -0.6398 -1.2301
 4292TIP3   OH234290   6.477   5.783  11.425 -0.1073 -0.4414 -0.1350
 4292TIP3    H134291   6.518   5.791  11.340  0.1126 -0.4343 -0.0288
 4292TIP3    H234292   6.496   5.693  11.453  1.3166  0.0950  0.6726
 4293TIP3   OH234293   2.662   0.505   3.831  0.0568  0.1405  0.6467
 4293TIP3    H134294   2.642   0.570   3.764  1.5042 -0.5520 -0.4795
 4293TIP3    H234295   2.752   0.523   3.857 -0.2190 -0.1208  1.8092
 4294TIP3   OH234296   0.753   5.328   3.360 -0.4247 -0.3694  0.1196
 4294TIP3    H134297   0.779   5.414   3.394 -0.1320 -0.9874  1.4797
 4294TIP3    H234298   0.728   5.278   3.438 -2.0955 -1.0141 -0.8105
 4295TIP3   OH234299   6.146   4.041   0.581 -0.3369  0.1898 -0.2413
 4295TIP3    H134300   6.217   4.041   0.645 -1.2637 -2.1457  0.8813
 4295TIP3    H234301   6.153   3.955   0.538 -2.7018 -0.2709  0.2166
 4296TIP3   OH234302   4.895   4.737  14.853 -0.5377 -0.3687  0.2901
 4296TIP3    H134303   4.817   4.683  14.865 -0.2744 -0.8773 -0.2629
 4296TIP3    H234304   4.966   4.674  14.842 -0.0936  0.0928  0.4977
 4297TIP3   OH234305   1.684   2.884  17.169  0.3311 -0.5337  0.2065
 4297TIP3    H134306   1.679   2.937  17.249 -1.0366  0.3377 -0.4393
 4297TIP3    H234307   1.654   2.942  17.100  0.9309 -1.4792 -0.8599
 4298TIP3   OH234308   0.806   0.819   4.350  0.2354 -0.4225  0.3095
 4298TIP3    H134309   0.882   0.814   4.293 -1.9453 -0.4893 -2.7347
 4298TIP3    H234310   0.758   0.738   4.332 -2.0999  1.0265 -0.1771
 4299TIP3   OH234311   3.944   6.272   3.192  0.1724 -0.0348 -0.6434
 4299TIP3    H134312   3.998   6.270   3.113  0.0655  5.1324 -0.9932
 4299TIP3    H234313   3.854   6.271   3.159  0.1193  0.3099 -0.5083
 4300TIP3   OH234314   3.934   2.550  16.328  0.5265 -0.0475 -0.6047
 4300TIP3    H134315   3.939   2.569  16.421 -1.2138 -2.2298 -0.0094
 4300TIP3    H234316   4.018   2.509  16.307  0.9524  0.5141 -0.0072
 4301TIP3   OH234317   6.700   5.942   0.306 -0.0135 -0.8350 -0.0306
 4301TIP3    H134318   6.696   5.924   0.212 -1.0602  0.7000 -0.3013
 4301TIP3    H234319   6.793   5.952   0.325  0.0542  1.2355 -1.3859
 4302TIP3   OH234320   1.793   1.218  16.116  0.7641 -0.2138  0.1035
 4302TIP3    H134321   1.847   1.289  16.081 -0.4176  1.5404  1.7544
 4302TIP3    H234322   1.847   1.180  16.186  0.2725  0.9391  1.1324
 4303TIP3   OH234323   6.397   5.046   0.164 -0.4993 -0.2728 -0.0759
 4303TIP3    H134324   6.488   5.018   0.175 -0.3120  0.6753  0.8571
 4303TIP3    H234325   6.347   4.965   0.161  0.4182 -0.8254 -1.0586
 4304TIP3   OH234326   0.128   4.060  12.354 -0.0702  0.3985 -0.0347
 4304TIP3    H134327   0.051   4.117  12.344 -0.0161  0.1365 -2.3543
 4304TIP3    H234328   0.092   3.977  12.386 -0.5499  0.7808  0.4184
 4305TIP3   OH234329   2.734   0.921  13.098 -0.0516  0.0705  0.0820
 4305TIP3    H134330   2.683   0.852  13.140 -1.1970  0.6193 -0.4016
 4305TIP3    H234331   2.780   0.964  13.171 -1.0218  0.1925  0.6288
 4306TIP3   OH234332   2.085   4.293   2.483  0.3288  0.0649 -0.0140
 4306TIP3    H134333   2.156   4.310   2.545 -0.3770 -0.5094  0.9688
 4306TIP3    H234334   2.054   4.205   2.505  0.7108 -0.5297 -1.8384
 4307TIP3   OH234335   2.244   2.971   2.865  1.3101  0.2628  0.0290
 4307TIP3    H134336   2.274   2.999   2.778  0.1800  1.7828  0.1089
 4307TIP3    H234337   2.262   3.046   2.922 -0.7420  0.4428  0.4746
 4308TIP3   OH234338   0.672   1.905  13.023 -0.4968  0.3618 -0.0449
 4308TIP3    H134339   0.660   1.960  12.946  0.9402  1.8418  0.7453
 4308TIP3    H234340   0.634   1.821  12.999 -0.3752  0.8995 -2.2462
 4309TIP3   OH234341   5.473   5.875   3.601 -0.5484  0.5367 -0.1512
 4309TIP3    H134342   5.429   5.821   3.668 -0.6927 -0.1816 -0.8135
 4309TIP3    H234343   5.546   5.821   3.572 -1.1612  0.3608 -1.3925
 4310TIP3   OH234344   0.527   2.873   4.116 -0.4617 -0.1715  0.4737
 4310TIP3    H134345   0.610   2.902   4.155  1.6353 -1.9605 -2.4590
 4310TIP3    H234346   0.493   2.808   4.177  0.2647  0.5647  1.6861
 4311TIP3   OH234347   1.474   1.101   4.144 -0.0092  0.0810  0.0864
 4311TIP3    H134348   1.441   1.038   4.080  1.0120 -0.0989 -0.2755
 4311TIP3    H234349   1.398   1.122   4.198 -0.8830  0.2479 -1.1895
 4312TIP3   OH234350   6.058   4.820   4.189  0.3979  0.3187 -0.1103
 4312TIP3    H134351   6.071   4.729   4.214  0.8064  0.8270  1.5597
 4312TIP3    H234352   6.017   4.861   4.265 -0.1919  1.4406 -1.0059
 4313TIP3   OH234353   2.719   3.791   0.290 -0.3994  0.0228  0.6203
 4313TIP3    H134354   2.772   3.755   0.361  1.0726 -0.9827 -0.9368
 4313TIP3    H234355   2.649   3.727   0.278  0.1917 -0.5622  0.2131
 4314TIP3   OH234356   5.313   2.367  11.696 -0.0671  0.4019  0.0432
 4314TIP3    H134357   5.349   2.395  11.780  1.2213  1.1448 -0.7424
 4314TIP3    H234358   5.356   2.284  11.676 -0.0906  0.4161 -0.0720
 4315TIP3   OH234359   6.321   5.208   2.006  0.1349  0.8131 -0.3541
 4315TIP3    H134360   6.243   5.213   1.950 -0.0478  0.8782 -0.0980
 4315TIP3    H234361   6.363   5.126   1.981 -0.8646 -0.0052  0.5956
 4316TIP3   OH234362   3.487   1.678  15.113 -0.3120 -0.3019 -0.0415
 4316TIP3    H134363   3.520   1.643  15.196  2.0382  1.6185 -0.1131
 4316TIP3    H234364   3.474   1.601  15.058 -0.7364 -1.4953  1.6997
 4317TIP3   OH234365   4.515   3.578  11.934 -0.5480  0.4596  0.0623
 4317TIP3    H134366   4.470   3.663  11.933 -1.7775 -0.1889 -1.1156
 4317TIP3    H234367   4.444   3.514  11.926  0.4696 -0.6403 -0.1662
 4318TIP3   OH234368   5.906   4.844  13.065  0.0545  0.0764  0.6176
 4318TIP3    H134369   5.957   4.873  13.141  0.3794  0.8768  0.0993
 4318TIP3    H234370   5.832   4.905  13.060  0.0890  0.0892  0.2321
 4319TIP3   OH234371   0.470   6.035   0.870  0.5913  0.1542 -0.1515
 4319TIP3    H134372   0.532   6.095   0.911  0.8328  1.9683 -3.0450
 4319TIP3    H234373   0.520   5.956   0.854  1.2473  0.4327  0.4706
 4320TIP3   OH234374   3.687   5.654   4.823 -0.8187 -0.3040 -0.9420
 4320TIP3    H134375   3.739   5.623   4.749 -0.9682  0.7985 -1.5135
 4320TIP3    H234376   3.657   5.741   4.796 -2.8077 -0.8536 -0.5637
 4321TIP3   OH234377   0.942   6.126   0.763 -0.2396 -0.4863 -0.4926
 4321TIP3    H134378   1.003   6.200   0.777 -1.8621  1.2005 -2.0725
 4321TIP3    H234379   0.996   6.048   0.778  1.3441  1.0075  1.9422
 4322TIP3   OH234380   4.976   2.016  16.457  0.9500 -0.4191  0.0372
 4322TIP3    H134381   5.040   1.994  16.390  0.2644 -0.0151 -0.7690
 4322TIP3    H234382   4.984   1.946  16.522  1.6746 -0.7766 -0.4289
 4323TIP3   OH234383   4.113   2.742  14.577  0.0382 -0.2689  0.0395
 4323TIP3    H134384   4.083   2.652  14.565 -1.2414  0.3325 -1.5292
 4323TIP3    H234385   4.207   2.738  14.562 -0.1132 -1.2437 -0.7097
 4324TIP3   OH234386   3.796   4.101  12.779  0.1542  0.0968 -0.4744
 4324TIP3    H134387   3.761   4.135  12.697 -1.4272  0.9925  0.5385
 4324TIP3    H234388   3.721   4.058  12.820  0.7590  0.2356  0.7970
 4325TIP3   OH234389   6.511   3.798   0.901 -0.4599  0.2182  0.2210
 4325TIP3    H134390   6.581   3.786   0.837 -2.1202  1.1991 -1.8459
 4325TIP3    H234391   6.437   3.748   0.866 -0.8881 -0.6411  2.2655
 4326TIP3   OH234392   3.650   4.304  13.531  0.0371 -0.1481 -0.0978
 4326TIP3    H134393   3.674   4.271  13.618 -1.1011 -1.5694 -0.3012
 4326TIP3    H234394   3.668   4.231  13.472 -1.8743 -0.2095 -0.6528
 4327TIP3   OH234395   5.219   2.060   2.899 -0.1642 -0.3944 -0.1886
 4327TIP3    H134396   5.269   2.008   2.836  0.0625  0.2744 -0.5649
 4327TIP3    H234397   5.182   2.131   2.848 -1.3123 -0.7462  0.1363
 4328TIP3   OH234398   4.253   1.378   2.223 -0.1657  0.5709 -0.0424
 4328TIP3    H134399   4.168   1.379   2.178 -0.3616 -0.0344  0.3198
 4328TIP3    H234400   4.257   1.463   2.268 -1.0563  0.1448  0.8469
 4329TIP3   OH234401   3.844   2.479  14.376  0.3073  0.1125 -0.0863
 4329TIP3    H134402   3.839   2.564  14.332 -1.2035  0.7620  1.3196
 4329TIP3    H234403   3.872   2.500  14.465  1.3293 -1.0113 -0.1286
 4330TIP3   OH234404   1.728   0.586   3.570 -0.3509 -0.7680 -0.0080
 4330TIP3    H134405   1.812   0.614   3.533 -0.0164 -1.6918  0.0284
 4330TIP3    H234406   1.667   0.655   3.546  0.3669 -0.2173 -0.2695
 4331TIP3   OH234407   3.871   3.387  15.484 -0.1852 -0.1173  0.5520
 4331TIP3    H134408   3.862   3.483  15.481 -0.8695 -0.1694  0.7745
 4331TIP3    H234409   3.783   3.356  15.506  0.1316 -0.7763  0.8843
 4332TIP3   OH234410   3.992   3.367  11.530  0.1161  0.0492 -0.1574
 4332TIP3    H134411   4.042   3.427  11.584 -0.0194 -0.1262  0.1636
 4332TIP3    H234412   4.059   3.311  11.489  0.0775 -1.5668  1.9247
 4333TIP3   OH234413   2.720   1.691  11.372 -0.2564 -0.4229  0.4529
 4333TIP3    H134414   2.811   1.661  11.373 -0.3772 -0.9490 -1.6649
 4333TIP3    H234415   2.686   1.667  11.458  1.3592 -0.9950  0.9566
 4334TIP3   OH234416   2.591   1.304   5.332 -0.0940  0.2091 -0.1686
 4334TIP3    H134417   2.566   1.279   5.243  0.4132 -1.1096  0.0526
 4334TIP3    H234418   2.507   1.316   5.377 -0.3599  1.5977 -1.0098
 4335TIP3   OH234419   6.043   6.376  16.874  0.0863 -0.0271  0.2097
 4335TIP3    H134420   5.970   6.321  16.845  1.9708 -1.4241 -2.0329
 4335TIP3    H234421   6.030   6.384  16.969 -2.1795 -1.4211  0.0543
 4336TIP3   OH234422   2.721   5.681  12.361 -0.3737  0.0477 -0.6420
 4336TIP3    H134423   2.761   5.632  12.289  0.2889 -1.1517  0.5065
 4336TIP3    H234424   2.628   5.658  12.357 -0.3835  0.1767 -1.2505
 4337TIP3   OH234425   1.971   5.081  11.437 -0.1130 -0.1380  0.2329
 4337TIP3    H134426   1.919   5.112  11.511  0.5134 -1.2907  1.1642
 4337TIP3    H234427   2.061   5.077  11.470  0.0352 -1.5230 -0.3130
 4338TIP3   OH234428   4.287   1.982  12.867 -0.2909 -0.2864  0.0435
 4338TIP3    H134429   4.280   1.970  12.772 -0.2943 -1.3656  0.1777
 4338TIP3    H234430   4.374   2.021  12.879 -1.0090  1.5461 -0.5451
 4339TIP3   OH234431   0.925   2.448   1.250 -0.1341  0.3164  0.0620
 4339TIP3    H134432   0.961   2.414   1.168  1.1664 -1.3144  1.2730
 4339TIP3    H234433   0.994   2.505   1.285 -0.6062  0.8476  0.1350
 4340TIP3   OH234434   1.437   4.143  16.933 -0.0438 -0.0324  0.0539
 4340TIP3    H134435   1.404   4.066  16.888 -0.2882  1.1066 -1.7445
 4340TIP3    H234436   1.477   4.197  16.864 -1.2166  2.1553  1.0238
 4341TIP3   OH234437   6.457   2.448   1.612  0.8937 -0.2731  0.6460
 4341TIP3    H134438   6.537   2.452   1.665  0.3965  0.2334  1.3688
 4341TIP3    H234439   6.466   2.366   1.562  2.2718  0.2197  0.0415
 4342TIP3   OH234440   2.506   5.112   3.240  0.0771 -0.2817  0.2251
 4342TIP3    H134441   2.507   5.203   3.270  0.4128 -0.0762 -0.3813
 4342TIP3    H234442   2.552   5.064   3.308  1.2189  0.2467 -0.1485
 4343TIP3   OH234443   3.510   0.636   3.274 -0.0348 -0.1036 -0.5924
 4343TIP3    H134444   3.435   0.684   3.308 -0.7048 -0.3494 -1.6719
 4343TIP3    H234445   3.506   0.551   3.318  0.5069  0.4332  0.4921
 4344TIP3   OH234446   4.700   0.844  10.429  0.2168 -0.0808  0.4038
 4344TIP3    H134447   4.729   0.925  10.386  0.6621 -0.0969  0.6765
 4344TIP3    H234448   4.633   0.874  10.491 -1.3472 -0.2013 -1.1653
 4345TIP3   OH234449   5.471   5.825  11.261  0.0295  0.3724  0.3380
 4345TIP3    H134450   5.448   5.751  11.205 -0.1487  0.2342  0.5938
 4345TIP3    H234451   5.538   5.872  11.212 -0.6846  0.6943 -0.3428
 4346TIP3   OH234452   5.915   0.540   3.539 -0.3952  0.0667 -0.1079
 4346TIP3    H134453   5.892   0.454   3.504  0.2198  0.7303 -2.2405
 4346TIP3    H234454   5.981   0.574   3.478 -2.1858  2.9549 -0.5245
 4347TIP3   OH234455   2.490   6.295  10.637 -0.2966 -0.0886  0.0937
 4347TIP3    H134456   2.434   6.343  10.577  0.3540  1.0708  0.3944
 4347TIP3    H234457   2.569   6.348  10.644  0.7615 -1.5813 -0.1581
 4348TIP3   OH234458   5.642   2.997   2.083  0.4377 -0.0450  0.5764
 4348TIP3    H134459   5.555   2.976   2.116 -0.6536  3.2591  0.0365
 4348TIP3    H234460   5.694   3.013   2.162  1.0699 -3.6126  0.9612
 4349TIP3   OH234461   4.647   3.566  12.175  0.0498 -0.0492  0.0635
 4349TIP3    H134462   4.632   3.540  12.084 -0.1809 -0.7730  0.3016
 4349TIP3    H234463   4.621   3.658  12.179  0.1247  0.0012 -0.6165
 4350TIP3   OH234464   5.656   4.574  11.896  0.0888 -0.1275 -0.2217
 4350TIP3    H134465   5.589   4.629  11.936  0.4022 -0.3785  0.6673
 4350TIP3    H234466   5.737   4.602  11.939  0.3058 -0.9889 -0.0683
 4351TIP3   OH234467   4.042   5.609  12.054 -0.3911  0.1357  0.0562
 4351TIP3    H134468   3.978   5.652  11.997 -1.2834 -1.1021  0.1022
 4351TIP3    H234469   4.043   5.663  12.133 -0.1098  1.1287 -0.6190
 4352TIP3   OH234470   5.078   1.066  12.204  0.4253 -0.1610 -0.4943
 4352TIP3    H134471   5.029   1.062  12.122  0.7252  1.2967 -0.7574
 4352TIP3    H234472   5.082   0.975  12.234  0.3780 -0.7142 -2.1281
 4353TIP3   OH234473   3.256   0.177   4.956  0.1929  0.4611 -0.3579
 4353TIP3    H134474   3.215   0.259   4.982  1.6216  0.9238  0.5296
 4353TIP3    H234475   3.344   0.203   4.926  1.1070 -0.8653  1.1254
 4354TIP3   OH234476   0.176   4.980   3.843 -0.3738 -0.1267 -0.3113
 4354TIP3    H134477   0.262   4.996   3.807  0.0800 -2.7257 -0.4455
 4354TIP3    H234478   0.169   5.041   3.917  1.6453 -0.0370 -0.1820
 4355TIP3   OH234479   3.689   4.497  14.516 -0.1300 -0.1884  0.5631
 4355TIP3    H134480   3.768   4.445  14.501  0.2653  0.5082  0.2362
 4355TIP3    H234481   3.709   4.548  14.595 -1.1447 -1.7563  1.8587
 4356TIP3   OH234482   2.498   6.188  12.117  0.5259 -0.6461 -0.6927
 4356TIP3    H134483   2.532   6.261  12.065  1.0364 -0.3242  0.0714
 4356TIP3    H234484   2.560   6.117  12.102  0.3607 -0.7274 -0.9737
 4357TIP3   OH234485   4.514   1.806  12.422 -1.1048  0.8776  0.7425
 4357TIP3    H134486   4.553   1.864  12.356 -0.1226 -0.7257 -0.1072
 4357TIP3    H234487   4.420   1.820  12.414 -0.8271  3.7281  1.8171
 4358TIP3   OH234488   4.616   5.470  15.122 -0.1284  0.2041  0.1827
 4358TIP3    H134489   4.607   5.377  15.144  0.3018  0.5289  1.7344
 4358TIP3    H234490   4.537   5.511  15.157 -0.2798  0.4520 -0.4302
 4359TIP3   OH234491   4.039   4.708   1.056  0.7534 -0.0945  0.0524
 4359TIP3    H134492   4.075   4.766   0.988  2.1393 -0.4194  0.4973
 4359TIP3    H234493   3.989   4.767   1.113 -0.8267  0.1114 -1.4832
 4360TIP3   OH234494   5.394   3.283  11.501  0.4191  0.3644 -0.4720
 4360TIP3    H134495   5.479   3.245  11.482  0.0621 -0.9769  0.5073
 4360TIP3    H234496   5.341   3.263  11.424  0.4701 -0.4521 -0.3065
 4361TIP3   OH234497   1.787   2.775   1.694  0.0078  0.0763  0.4511
 4361TIP3    H134498   1.729   2.831   1.744  1.0277  2.6818 -1.1719
 4361TIP3    H234499   1.874   2.813   1.706  0.7921 -1.3891 -0.3643
 4362TIP3   OH234500   0.961   1.260  16.701 -0.5171  0.4494  0.0490
 4362TIP3    H134501   0.934   1.343  16.661  0.7970 -0.5524 -3.0713
 4362TIP3    H234502   0.940   1.194  16.635  0.1842 -1.5125  1.7366
 4363TIP3   OH234503   2.363   1.956  13.532 -0.2741 -0.5834 -0.0451
 4363TIP3    H134504   2.381   1.976  13.440 -1.9106 -2.7869 -0.8893
 4363TIP3    H234505   2.449   1.936  13.570  0.4078  0.3201 -1.0734
 4364TIP3   OH234506   6.009   3.764   4.452 -0.2324 -0.1756 -0.6575
 4364TIP3    H134507   6.096   3.788   4.421  0.3947  0.0379  1.1984
 4364TIP3    H234508   5.993   3.821   4.527 -1.4963 -1.0125 -0.2637
 4365TIP3   OH234509   2.883   2.387   2.240 -0.3734 -0.4945 -0.2331
 4365TIP3    H134510   2.893   2.476   2.204  2.8592  0.1326  1.9765
 4365TIP3    H234511   2.837   2.400   2.322 -0.7602 -0.9947 -0.3685
 4366TIP3   OH234512   3.238   4.752  12.255 -0.1295 -0.1464  0.0208
 4366TIP3    H134513   3.305   4.806  12.213  0.4969 -0.4828  0.5739
 4366TIP3    H234514   3.164   4.811  12.268  0.0649  0.2312 -0.5946
 4367TIP3   OH234515   3.620   6.503  14.033 -0.3854  0.2136 -0.0978
 4367TIP3    H134516   3.641   6.414  14.062  2.1934  0.8562  0.1726
 4367TIP3    H234517   3.528   6.514  14.055 -0.2162 -1.6737  1.7791
 4368TIP3   OH234518   3.308   5.994   1.610  0.3637 -0.2529  0.2127
 4368TIP3    H134519   3.311   6.063   1.544  0.8435  0.2093  0.7204
 4368TIP3    H234520   3.236   6.020   1.668 -0.6877 -1.1453 -0.6508
 4369TIP3   OH234521   6.309   3.832   3.581 -0.2480  0.1972 -0.9789
 4369TIP3    H134522   6.353   3.760   3.536  0.4058 -1.0200  1.4845
 4369TIP3    H234523   6.379   3.894   3.601  0.1600 -1.0178  1.5754
 4370TIP3   OH234524   1.213   5.348  11.054  0.3682 -0.1387  0.3208
 4370TIP3    H134525   1.260   5.402  10.990  1.2683 -2.0168 -0.6173
 4370TIP3    H234526   1.280   5.323  11.118  0.7615 -3.0212 -1.1482
 4371TIP3   OH234527   0.857   2.039  11.876 -0.1490  0.4003 -0.0943
 4371TIP3    H134528   0.860   2.074  11.787 -0.2706  4.1242  1.2915
 4371TIP3    H234529   0.913   1.961  11.873 -0.9765 -0.1429 -3.6251
 4372TIP3   OH234530   2.880   2.923  16.427 -0.1031 -0.2970  0.2178
 4372TIP3    H134531   2.829   3.002  16.443 -1.5787 -1.2252  0.2491
 4372TIP3    H234532   2.862   2.900  16.336 -0.2560 -0.9820  0.4122
 4373TIP3   OH234533   3.162   4.532   2.582  0.2965  0.5755 -0.1270
 4373TIP3    H134534   3.177   4.549   2.675  2.5523 -1.6182 -0.0225
 4373TIP3    H234535   3.213   4.599   2.537  2.2945 -0.6409  0.2602
 4374TIP3   OH234536   4.246   6.298   1.298  0.2913  0.1443  0.1447
 4374TIP3    H134537   4.238   6.279   1.392 -1.8567 -0.9107 -0.2312
 4374TIP3    H234538   4.254   6.393   1.293  0.6927  0.1846  1.4151
 4375TIP3   OH234539   6.696   6.447  11.828  0.7307 -0.7311  0.3713
 4375TIP3    H134540   6.633   6.375  11.824 -0.5422  0.3133  1.0218
 4375TIP3    H234541   6.654   6.519  11.781  2.8899 -1.0194 -2.1311
 4376TIP3   OH234542   0.967   4.210   2.745  0.6189  0.0627  0.3391
 4376TIP3    H134543   0.991   4.141   2.807  0.4031 -0.0046  0.3503
 4376TIP3    H234544   0.885   4.179   2.705 -0.7847  1.3896  2.0777
 4377TIP3   OH234545   2.349   0.754  12.873 -0.0199 -0.1205  0.4732
 4377TIP3    H134546   2.343   0.663  12.846 -0.4267  0.2107 -0.5850
 4377TIP3    H234547   2.261   0.789  12.860  0.1863  0.4781  0.6570
 4378TIP3   OH234548   0.464   6.476   2.559  0.5037 -0.1147  0.2394
 4378TIP3    H134549   0.418   6.394   2.545 -0.3617  0.2404  0.9508
 4378TIP3    H234550   0.395   6.542   2.562  1.2686  0.8309 -1.6127
 4379TIP3   OH234551   3.343   2.895   3.736  0.0690  0.4371  0.5548
 4379TIP3    H134552   3.345   2.861   3.826  0.6843  0.4483  0.5426
 4379TIP3    H234553   3.432   2.885   3.704 -0.2271  0.1068 -0.1812
 4380TIP3   OH234554   6.122   2.564  11.769  0.3108 -0.1931  0.5813
 4380TIP3    H134555   6.098   2.502  11.700 -2.1061 -0.0078  1.2109
 4380TIP3    H234556   6.131   2.648  11.724 -1.3166 -0.0622  0.4671
 4381TIP3   OH234557   1.095   6.468   2.215  0.0232 -0.1773  0.0103
 4381TIP3    H134558   1.163   6.512   2.164  0.5617 -0.4182  0.5213
 4381TIP3    H234559   1.140   6.436   2.293 -1.3094  2.4103  1.9187
 4382TIP3   OH234560   3.462   5.543   3.362  0.0789  0.0943 -0.1493
 4382TIP3    H134561   3.533   5.605   3.349 -0.0889  0.0581 -1.2869
 4382TIP3    H234562   3.483   5.500   3.445  1.3147  0.1875 -0.3971
 4383TIP3   OH234563   5.064   6.106   3.121 -0.0642  0.2750 -0.4849
 4383TIP3    H134564   5.013   6.173   3.166  0.0748  1.6163 -2.2701
 4383TIP3    H234565   5.084   6.042   3.189 -2.4777  0.6782  0.6823
 4384TIP3   OH234566   0.955   5.139   2.786 -0.2889 -0.0614  0.5335
 4384TIP3    H134567   0.963   5.230   2.758  1.5908 -0.1603  0.7441
 4384TIP3    H234568   0.868   5.113   2.754 -0.7624  1.7180  0.2804
 4385TIP3   OH234569   3.092   2.960   5.037 -0.0632  0.0832  0.4091
 4385TIP3    H134570   3.104   2.869   5.064 -1.8584 -0.3956 -0.3093
 4385TIP3    H234571   3.181   2.995   5.028  0.6359 -1.5407  0.8722
 4386TIP3   OH234572   0.796   6.438   5.780  0.1709  0.1604  0.5287
 4386TIP3    H134573   0.724   6.476   5.830  0.0295  0.5421  0.0310
 4386TIP3    H234574   0.872   6.492   5.803  0.3296 -0.3115  1.1423
 4387TIP3   OH234575   3.941   1.187  11.454  0.0269  0.3720  0.1504
 4387TIP3    H134576   3.888   1.109  11.470 -1.0172  1.2681  1.0901
 4387TIP3    H234577   3.931   1.239  11.533  1.7621  0.8738  0.0567
 4388TIP3   OH234578   2.440   3.086   0.987 -0.1135 -0.0025  0.1670
 4388TIP3    H134579   2.451   2.995   1.016  1.4193 -0.4742 -1.7736
 4388TIP3    H234580   2.385   3.080   0.910  1.4120  0.5202 -0.9833
 4389TIP3   OH234581   5.697   1.877  13.121  0.0451 -0.5700 -0.6540
 4389TIP3    H134582   5.646   1.798  13.140 -0.1792  0.3739  3.0394
 4389TIP3    H234583   5.638   1.949  13.144  1.3332  0.6225 -1.0717
 4390TIP3   OH234584   6.730   0.019   2.077  0.6637  0.5759  0.7619
 4390TIP3    H134585   6.717   0.112   2.062 -0.6601  0.4323  0.9988
 4390TIP3    H234586   6.711   0.007   2.170  1.5383  0.1875  0.8994
 4391TIP3   OH234587   2.697   2.934   4.087  0.3748 -0.5986 -0.0857
 4391TIP3    H134588   2.704   2.849   4.042 -0.4786 -0.7696  0.0855
 4391TIP3    H234589   2.775   2.982   4.059 -0.1659 -0.6763 -1.8018
 4392TIP3   OH234590   3.038   3.441  12.665  0.4562 -0.1538 -0.3795
 4392TIP3    H134591   3.127   3.447  12.699  0.6695  0.5763 -1.0655
 4392TIP3    H234592   3.047   3.452  12.570 -0.4141  0.5316 -0.3964
 4393TIP3   OH234593   4.181   1.068   0.349 -0.0559  0.3283 -0.4689
 4393TIP3    H134594   4.197   1.141   0.409 -3.7643  0.9333 -0.0888
 4393TIP3    H234595   4.157   0.995   0.407 -1.4931  0.2936 -1.1055
 4394TIP3   OH234596   4.039   4.930   4.363 -0.2696  0.4645  0.6428
 4394TIP3    H134597   3.957   4.907   4.320 -0.6801  0.4835  1.4207
 4394TIP3    H234598   4.086   4.847   4.370  0.4501  0.6868 -1.1929
 4395TIP3   OH234599   4.235   1.972   0.147 -0.0088  0.1683 -0.6792
 4395TIP3    H134600   4.173   1.902   0.165 -1.0274  1.1115 -0.4179
 4395TIP3    H234601   4.319   1.940   0.181 -1.1492  0.4415  2.5484
 4396TIP3   OH234602   5.793   0.638  12.897 -0.7475 -0.5152 -0.5635
 4396TIP3    H134603   5.832   0.671  12.817 -0.0200 -1.1193 -0.4645
 4396TIP3    H234604   5.833   0.690  12.967 -0.9390 -0.3927 -0.5425
 4397TIP3   OH234605   1.778   4.371   3.026  0.4216  0.2340 -0.1671
 4397TIP3    H134606   1.808   4.429   2.955 -0.2671  0.2392 -0.4548
 4397TIP3    H234607   1.854   4.317   3.046  1.0426  1.1678  0.0297
 4398TIP3   OH234608   1.561   1.290  12.751  0.3093 -0.5390  0.5128
 4398TIP3    H134609   1.542   1.197  12.764 -2.8234 -0.1572 -0.8195
 4398TIP3    H234610   1.552   1.328  12.838  2.3765 -1.5672  1.2139
 4399TIP3   OH234611   5.153   0.324   0.964  0.2980  0.1675  0.8622
 4399TIP3    H134612   5.232   0.368   0.994  1.1760 -0.7425 -0.0690
 4399TIP3    H234613   5.092   0.331   1.037  0.5644  2.5494  0.8791
 4400TIP3   OH234614   4.027   2.500  13.954 -0.0491 -0.2132  0.1342
 4400TIP3    H134615   4.064   2.567  14.011  0.8834 -0.0318 -0.6738
 4400TIP3    H234616   4.102   2.444  13.930 -0.4717 -0.4463 -0.6820
 4401TIP3   OH234617   6.042   4.242   5.746  0.1994 -0.5996  0.4906
 4401TIP3    H134618   5.991   4.297   5.686 -0.7506 -1.8365  0.1273
 4401TIP3    H234619   5.977   4.212   5.810  0.4150 -2.3313 -0.0745
 4402TIP3   OH234620   2.555   3.640   2.101  0.3217  0.0856  0.1396
 4402TIP3    H134621   2.570   3.552   2.067  0.6214 -0.6765  2.1594
 4402TIP3    H234622   2.599   3.641   2.186 -2.6243  1.0126  1.7477
 4403TIP3   OH234623   0.967   4.657   5.681 -0.7634  0.2178 -0.1761
 4403TIP3    H134624   0.892   4.696   5.638 -2.2266 -1.9944  0.2859
 4403TIP3    H234625   1.037   4.662   5.616 -1.7555  0.7893 -1.2166
 4404TIP3   OH234626   2.886   1.638  12.014 -0.2299 -0.2561  0.1785
 4404TIP3    H134627   2.905   1.644  11.921 -1.3677 -1.3864 -0.1449
 4404TIP3    H234628   2.857   1.547  12.027 -0.3681 -0.0282  1.5673
 4405TIP3   OH234629   0.223   2.192  15.941 -0.0599  0.2956 -0.0650
 4405TIP3    H134630   0.307   2.162  15.977 -1.0987 -1.3432  1.0556
 4405TIP3    H234631   0.167   2.115  15.943 -1.8688  1.5775  0.0300
 4406TIP3   OH234632   6.036   4.455  14.893 -0.2635  0.2399  0.0445
 4406TIP3    H134633   6.059   4.365  14.915  0.9551  0.6905  0.6845
 4406TIP3    H234634   5.981   4.485  14.965 -2.1160 -0.5308 -1.0169
 4407TIP3   OH234635   0.453   1.710  11.505  0.6044  0.4800 -0.3458
 4407TIP3    H134636   0.526   1.684  11.561  1.0826  0.8038 -0.8133
 4407TIP3    H234637   0.377   1.663  11.540  1.2340 -0.6573 -0.4987
 4408TIP3   OH234638   4.278   4.283   3.243 -0.1301 -0.1174 -0.4902
 4408TIP3    H134639   4.372   4.266   3.233  0.2638  1.5255  0.2658
 4408TIP3    H234640   4.258   4.258   3.333 -0.2040  0.4528 -0.3453
 4409TIP3   OH234641   4.148   2.560  12.717 -0.4386 -0.2046 -0.0951
 4409TIP3    H134642   4.177   2.569  12.626  2.1178 -0.8759  0.6042
 4409TIP3    H234643   4.156   2.467  12.736  0.2465  0.0908  1.1607
 4410TIP3   OH234644   3.784   4.303   5.706 -0.1688  0.1031  0.2469
 4410TIP3    H134645   3.731   4.223   5.699  2.4472 -1.5922 -0.7481
 4410TIP3    H234646   3.856   4.280   5.764 -0.0866  2.1878  1.0413
 4411TIP3   OH234647   4.321   4.473   0.505  0.2322 -0.5064 -0.1739
 4411TIP3    H134648   4.341   4.529   0.430  1.2744 -0.8553 -0.1654
 4411TIP3    H234649   4.245   4.514   0.546  1.1146  1.0317 -0.0476
 4412TIP3   OH234650   3.634   2.220  11.910  0.2179 -1.0784  0.0563
 4412TIP3    H134651   3.563   2.200  11.850 -0.6283 -0.0850  0.7195
 4412TIP3    H234652   3.623   2.313  11.931 -0.7078 -1.8783  3.3314
 4413TIP3   OH234653   4.205   3.530  12.451 -0.0610  0.1816  0.0431
 4413TIP3    H134654   4.185   3.482  12.371  0.5937  1.8052 -1.1357
 4413TIP3    H234655   4.293   3.502  12.475  0.3151  0.7763 -0.6327
 4414TIP3   OH234656   2.166   3.439  14.965  0.0340 -0.0675 -0.1040
 4414TIP3    H134657   2.206   3.520  14.936  1.2035 -0.5000  0.2687
 4414TIP3    H234658   2.231   3.400  15.024 -0.4722 -1.3043 -0.3467
 4415TIP3   OH234659   1.111   2.946  11.217  0.7650  0.1576  0.6318
 4415TIP3    H134660   1.030   2.979  11.179  0.9689  1.0722  0.9726
 4415TIP3    H234661   1.106   2.851  11.206  0.0795  0.2831 -0.2010
 4416TIP3   OH234662   0.192   1.732   1.430 -0.6481 -0.0918 -0.2454
 4416TIP3    H134663   0.101   1.702   1.438  0.0371 -2.5893 -1.3199
 4416TIP3    H234664   0.199   1.803   1.493 -2.8646 -1.0466  1.1638
 4417TIP3   OH234665   6.692   3.053  14.458  0.5533  0.1502  0.4551
 4417TIP3    H134666   6.618   3.112  14.443  0.2893 -0.5567 -1.1702
 4417TIP3    H234667   6.656   2.982  14.512  0.1826  0.0979  0.1398
 4418TIP3   OH234668   1.764   1.246   3.870  0.2013  0.0059  0.1313
 4418TIP3    H134669   1.668   1.248   3.875  0.1444 -1.8814  0.1542
 4418TIP3    H234670   1.791   1.332   3.901 -1.4083 -0.1046  1.9396
 4419TIP3   OH234671   6.534   5.423  12.508  0.3683 -0.2650 -0.4343
 4419TIP3    H134672   6.574   5.450  12.591 -1.3306  0.3915  0.2007
 4419TIP3    H234673   6.508   5.505  12.466  0.3110 -0.6486 -1.1571
 4420TIP3   OH234674   5.719   2.828  14.603  0.2430  0.2559  0.2910
 4420TIP3    H134675   5.644   2.808  14.659  0.6050  0.5077  0.8727
 4420TIP3    H234676   5.712   2.922  14.586 -0.2710  0.0428 -0.6843
 4421TIP3   OH234677   5.533   6.661  10.895 -0.7050  0.1096 -0.2897
 4421TIP3    H134678   5.505   6.741  10.938  1.8053  0.8839 -0.0250
 4421TIP3    H234679   5.589   6.690  10.823 -0.0440 -1.3788 -0.4090
 4422TIP3   OH234680   5.024   3.075  13.326  0.5408 -0.0089 -0.3086
 4422TIP3    H134681   5.106   3.125  13.332 -0.1609  1.5854 -2.9007
 4422TIP3    H234682   5.021   3.045  13.235 -2.1910  0.7804 -0.5292
 4423TIP3   OH234683   0.188   1.232   4.482  0.0103  0.0652  0.2551
 4423TIP3    H134684   0.182   1.319   4.441  1.1804 -0.1319 -0.3694
 4423TIP3    H234685   0.111   1.185   4.452  0.8529 -0.0698 -1.7331
 4424TIP3   OH234686   0.643   4.240  13.888  1.0034  0.0518  0.1966
 4424TIP3    H134687   0.645   4.204  13.977  0.6384  0.3697  0.3337
 4424TIP3    H234688   0.555   4.220  13.856  0.5595  1.4250  0.5265
 4425TIP3   OH234689   5.674   3.716   4.112  0.3532  0.4580 -0.5626
 4425TIP3    H134690   5.598   3.658   4.113  1.7028 -1.3517 -0.8467
 4425TIP3    H234691   5.668   3.765   4.194 -1.4235  0.7677 -0.8603
 4426TIP3   OH234692   4.285   5.510   4.279 -0.0422 -0.5421 -0.2082
 4426TIP3    H134693   4.190   5.512   4.289 -0.2142 -1.3169 -1.5464
 4426TIP3    H234694   4.303   5.573   4.209  0.6103  0.8523  1.1688
 4427TIP3   OH234695   0.207   2.088  11.644  0.7161 -0.2551  0.2092
 4427TIP3    H134696   0.251   2.169  11.670  2.6004 -1.4048  0.6770
 4427TIP3    H234697   0.219   2.084  11.549  2.0976 -0.7947  0.3835
 4428TIP3   OH234698   0.206   2.704   3.918 -0.4170 -0.7314  0.0999
 4428TIP3    H134699   0.191   2.692   3.825 -0.3431 -0.8716  0.1046
 4428TIP3    H234700   0.301   2.714   3.926 -0.1401 -3.3132  0.4253
 4429TIP3   OH234701   1.149   6.397   3.791 -0.1451  0.1593 -0.3831
 4429TIP3    H134702   1.183   6.358   3.710 -0.8448 -0.8740 -0.1806
 4429TIP3    H234703   1.223   6.394   3.852  0.0598 -0.0618 -0.6392
 4430TIP3   OH234704   2.697   2.424   6.062 -0.5273  0.3603 -0.7179
 4430TIP3    H134705   2.706   2.431   5.967 -0.2796 -0.5996 -0.7723
 4430TIP3    H234706   2.772   2.370   6.089  0.5288  2.2548  0.2617
 4431TIP3   OH234707   5.097   4.483  16.041  0.0304 -0.2845 -0.4317
 4431TIP3    H134708   5.114   4.554  16.103  0.6903 -0.0143 -0.9229
 4431TIP3    H234709   5.013   4.506  16.001 -1.0810 -1.1353  1.3081
 4432TIP3   OH234710   3.578   6.195  12.664  0.0743  0.5173  0.6500
 4432TIP3    H134711   3.613   6.150  12.587  3.2504  1.4260  1.5017
 4432TIP3    H234712   3.545   6.279  12.629  0.9732  0.6863  0.2002
 4433TIP3   OH234713   5.953   0.326  11.422  0.2222 -0.5133 -0.0523
 4433TIP3    H134714   5.873   0.283  11.390  0.1123  0.2558 -0.8453
 4433TIP3    H234715   5.983   0.271  11.493 -1.2767 -0.5804  0.5553
 4434TIP3   OH234716   4.992   3.582   3.344 -0.4720 -0.2990 -0.3548
 4434TIP3    H134717   5.013   3.665   3.302 -1.0011  0.2828  0.5028
 4434TIP3    H234718   5.076   3.540   3.360 -0.1681  0.3576 -0.2337
 4435TIP3   OH234719   4.059   3.880  15.171 -0.3833 -0.3865 -0.6586
 4435TIP3    H134720   4.085   3.936  15.098  2.1731 -1.9670 -1.0558
 4435TIP3    H234721   4.018   3.804  15.130  0.1630 -0.8232 -0.4083
 4436TIP3   OH234722   3.039   3.159   5.233  0.6387  0.1200  0.9388
 4436TIP3    H134723   2.997   3.209   5.163  1.9311  2.7290  1.9253
 4436TIP3    H234724   3.070   3.079   5.191 -2.0584 -0.1725 -0.5593
 4437TIP3   OH234725   2.480   2.446   0.716  0.1415  0.1936 -0.0603
 4437TIP3    H134726   2.385   2.436   0.714 -0.0676  1.2936  2.3354
 4437TIP3    H234727   2.514   2.358   0.698 -1.3151 -0.2045 -0.9385
 4438TIP3   OH234728   4.312   4.606  13.564 -0.0472 -0.0199  0.3019
 4438TIP3    H134729   4.363   4.685  13.547 -0.3027  0.5674  2.0915
 4438TIP3    H234730   4.222   4.638  13.576  0.1506 -0.3200  2.8844
 4439TIP3   OH234731   3.788   5.988   5.321 -0.8671  0.3165 -0.0511
 4439TIP3    H134732   3.715   5.964   5.377 -1.4543 -1.7976 -1.6554
 4439TIP3    H234733   3.751   6.049   5.257 -0.9186  0.3161 -0.0221
 4440TIP3   OH234734   3.818   5.905   6.647  0.0520  0.2877  0.3037
 4440TIP3    H134735   3.767   5.945   6.577 -0.9497 -0.5983  0.5172
 4440TIP3    H234736   3.758   5.897   6.721  0.4900 -0.7176  0.5726
 4441TIP3   OH234737   5.129   1.452   5.825 -0.4275 -0.7645  0.1903
 4441TIP3    H134738   5.116   1.503   5.905 -1.0026 -0.2523 -0.2328
 4441TIP3    H234739   5.219   1.419   5.833 -1.0273 -2.1289  1.8539
 4442TIP3   OH234740   4.824   2.121  12.233 -0.0139 -0.1713  0.1110
 4442TIP3    H134741   4.844   2.202  12.186 -1.4218  0.3179  0.3141
 4442TIP3    H234742   4.836   2.052  12.169  0.6923  0.2455 -0.2089
 4443TIP3   OH234743   6.753   5.057  11.787  0.4304 -0.0471 -0.1968
 4443TIP3    H134744   6.813   5.125  11.817  0.7179 -0.3239 -0.1401
 4443TIP3    H234745   6.809   4.995  11.740  0.4170 -0.9848  0.9860
 4444TIP3   OH234746   1.292   0.178  13.630 -0.6282 -0.2661  0.3304
 4444TIP3    H134747   1.319   0.121  13.558 -0.7806  0.7004 -0.4946
 4444TIP3    H234748   1.211   0.219  13.600 -0.7046  0.1332  1.0624
 4445TIP3   OH234749   5.534   6.748   3.450 -0.5241 -0.0003 -0.4179
 4445TIP3    H134750   5.543   6.653   3.454 -2.9891 -0.2780 -0.4491
 4445TIP3    H234751   5.445   6.765   3.481  0.5927  2.4764  1.6158
 4446TIP3   OH234752   0.342   3.578  17.198 -0.0181  0.4003 -0.2748
 4446TIP3    H134753   0.382   3.633  17.131 -0.6047 -1.8966 -2.5947
 4446TIP3    H234754   0.255   3.558  17.163 -0.1135 -1.3241  0.9061
 4447TIP3   OH234755   0.794   3.420   0.190 -0.3083 -0.4412  0.2960
 4447TIP3    H134756   0.788   3.332   0.227  0.1419 -0.0875  1.2249
 4447TIP3    H234757   0.832   3.473   0.259 -1.9247  0.8046  0.2790
 4448TIP3   OH234758   1.901   2.343   1.374 -0.8011 -0.7942 -0.7748
 4448TIP3    H134759   1.865   2.269   1.423 -0.3593 -0.9390 -0.6631
 4448TIP3    H234760   1.897   2.417   1.435  0.5678 -1.1739 -0.1971
 4449TIP3   OH234761   6.125   5.961   6.192  0.1662 -0.0799  0.0239
 4449TIP3    H134762   6.052   6.021   6.182 -0.5225 -1.0213 -0.6762
 4449TIP3    H234763   6.198   6.004   6.147  0.0010  0.7730  0.5614
 4450TIP3   OH234764   6.568   5.400   5.684  0.6363  0.3337 -0.2760
 4450TIP3    H134765   6.482   5.358   5.672  1.7200 -1.6721 -1.1793
 4450TIP3    H234766   6.621   5.334   5.727  2.0426  1.2288 -0.6169
 4451TIP3   OH234767   3.919   1.422   0.499  0.4067  0.5097 -0.1063
 4451TIP3    H134768   3.941   1.501   0.549 -1.0699  1.1634 -0.4576
 4451TIP3    H234769   3.928   1.350   0.562  0.5265  1.0917  0.5481
 4452TIP3   OH234770   3.116   1.309   4.319 -0.6271  1.0184 -0.0328
 4452TIP3    H134771   3.173   1.240   4.352 -1.6398 -0.3703 -1.1202
 4452TIP3    H234772   3.027   1.277   4.336 -1.1145  1.8955 -0.8772
 4453TIP3   OH234773   3.760   6.467  12.790  0.1095  0.3712  0.2176
 4453TIP3    H134774   3.783   6.538  12.729 -0.8208  0.9767  0.5508
 4453TIP3    H234775   3.681   6.500  12.835  1.7210  0.6406  2.9261
 4454TIP3   OH234776   0.730   6.098   5.128  0.1642  0.1659  0.1333
 4454TIP3    H134777   0.654   6.074   5.182  0.2196  0.0423  0.1554
 4454TIP3    H234778   0.784   6.019   5.126 -0.7262 -0.4202 -1.6297
 4455TIP3   OH234779   3.352   1.708  13.923 -0.1830 -0.1598 -0.0925
 4455TIP3    H134780   3.418   1.682  13.859  1.7366  0.5397  1.5535
 4455TIP3    H234781   3.399   1.764  13.985 -2.5916  1.3196  0.4736
 4456TIP3   OH234782   0.905   0.637  14.162 -0.3256  0.1962  0.1725
 4456TIP3    H134783   0.968   0.708  14.156 -1.2654  0.9798 -0.6108
 4456TIP3    H234784   0.933   0.575  14.095  2.7767 -2.0816  3.3777
 4457TIP3   OH234785   3.846   2.319  11.734  0.3524  0.3478  0.4103
 4457TIP3    H134786   3.859   2.381  11.805 -0.9308 -0.0078  0.9750
 4457TIP3    H234787   3.755   2.289  11.744  0.8667 -1.4356  0.0136
 4458TIP3   OH234788   2.575   4.795  13.878 -0.0921 -0.4810 -0.2024
 4458TIP3    H134789   2.641   4.755  13.934 -0.5011 -0.4691  0.2924
 4458TIP3    H234790   2.597   4.764  13.790  0.5238 -0.5375 -0.0321
 4459TIP3   OH234791   5.440   2.009  10.915 -0.4107  0.5991 -0.3383
 4459TIP3    H134792   5.391   2.090  10.901  0.0948  1.0710  0.5372
 4459TIP3    H234793   5.419   1.984  11.005  0.2451  0.3205 -0.2567
 4460TIP3   OH234794   6.278   3.827   1.043 -0.3199 -0.2119  0.2415
 4460TIP3    H134795   6.249   3.821   1.134 -0.6322 -0.4471  0.1294
 4460TIP3    H234796   6.371   3.845   1.049 -0.3756 -0.0380  0.6101
 4461TIP3   OH234797   1.470   5.323   3.483 -0.2178 -0.3280 -0.0754
 4461TIP3    H134798   1.482   5.229   3.501  0.1294 -0.3028 -0.1762
 4461TIP3    H234799   1.553   5.351   3.445  0.1343  0.3171  1.1583
 4462TIP3   OH234800   1.413   5.578  17.194 -0.5611  0.0480  0.4109
 4462TIP3    H134801   1.478   5.510  17.177  0.8588  1.2202  1.0829
 4462TIP3    H234802   1.380   5.560  17.281 -1.1837 -0.5751  0.0481
 4463TIP3   OH234803   1.663   3.405  14.391  0.4391 -0.8997  0.3161
 4463TIP3    H134804   1.594   3.432  14.452 -1.1120 -3.8985 -0.0432
 4463TIP3    H234805   1.675   3.481  14.334 -1.1085  0.3926  1.6409
 4464TIP3   OH234806   6.109   1.234  16.734  0.5053  0.1681 -0.3051
 4464TIP3    H134807   6.053   1.221  16.811 -0.4193  0.4584 -0.9234
 4464TIP3    H234808   6.112   1.148  16.692  0.2143  0.2450 -0.4819
 4465TIP3   OH234809   0.610   2.477  12.604 -0.2977  0.2392  0.5890
 4465TIP3    H134810   0.633   2.534  12.531 -1.3168  0.9266  0.8022
 4465TIP3    H234811   0.535   2.427  12.572 -0.4017  0.1478  0.9760
 4466TIP3   OH234812   1.086   1.427   3.407 -0.2492 -0.0731 -0.3964
 4466TIP3    H134813   1.091   1.366   3.332  0.4640 -1.2603  0.6000
 4466TIP3    H234814   1.000   1.410   3.445 -0.8150  0.8792 -1.2208
 4467TIP3   OH234815   0.690   2.253  17.154 -0.0677 -0.2485 -0.3156
 4467TIP3    H134816   0.762   2.201  17.191 -1.8146 -1.0456  2.1407
 4467TIP3    H234817   0.719   2.344  17.162  0.9911 -0.6020 -0.0623
 4468TIP3   OH234818   6.010   0.065  15.345 -0.0171 -0.0053  0.0462
 4468TIP3    H134819   6.074   0.022  15.288 -0.3156 -0.4320  0.0318
 4468TIP3    H234820   6.022   0.023  15.430  1.5473  1.7474  0.7210
 4469TIP3   OH234821   3.178   4.295  16.348 -1.2846  0.4861 -0.1240
 4469TIP3    H134822   3.227   4.369  16.312 -1.3083  0.3201 -0.5040
 4469TIP3    H234823   3.110   4.335  16.402 -1.9550  0.7747 -1.1684
 4470TIP3   OH234824   1.839   0.052   5.572 -0.4136  0.2166 -0.1149
 4470TIP3    H134825   1.785   0.105   5.513  0.4828  0.7163 -0.4969
 4470TIP3    H234826   1.847   0.107   5.651 -0.0775  0.3461 -0.2380
 4471TIP3   OH234827   6.642   1.965  11.507 -0.6906  0.0696 -0.2666
 4471TIP3    H134828   6.721   1.917  11.482 -1.7273 -1.8488 -0.0047
 4471TIP3    H234829   6.640   1.958  11.603 -0.4644  1.2933 -0.1661
 4472TIP3   OH234830   1.121   1.023  11.902 -0.0184  0.5177  0.0799
 4472TIP3    H134831   1.071   0.984  11.831  0.2951 -0.3480  0.3361
 4472TIP3    H234832   1.180   1.085  11.859  0.7359 -0.5918 -0.4907
 4473TIP3   OH234833   1.854   3.008   6.136 -0.3657 -0.0744 -0.7493
 4473TIP3    H134834   1.904   3.011   6.055 -1.1703 -1.5285 -1.3246
 4473TIP3    H234835   1.765   3.033   6.110 -0.3319  0.7628 -0.0679
 4474TIP3   OH234836   6.411   0.779  13.973 -0.6855 -0.4342  0.2433
 4474TIP3    H134837   6.462   0.699  13.965 -1.5255 -0.9906  0.3944
 4474TIP3    H234838   6.383   0.781  14.065 -1.7953 -0.6709 -0.0790
 4475TIP3   OH234839   5.231   1.974   3.159 -0.4490 -0.0455  0.7902
 4475TIP3    H134840   5.235   2.048   3.221  2.7492  0.6317 -0.1209
 4475TIP3    H234841   5.209   2.014   3.075  1.8338 -0.0042  0.1814
 4476TIP3   OH234842   3.926   0.589  13.711  0.3577  0.2354  0.8003
 4476TIP3    H134843   3.934   0.668  13.764  0.8028  0.7752 -0.0667
 4476TIP3    H234844   3.909   0.621  13.623  1.1420 -0.6180  0.3289
 4477TIP3   OH234845   4.937   3.378   3.946  0.4213 -0.1545  0.3130
 4477TIP3    H134846   4.894   3.460   3.923  0.6752 -0.5097 -1.5200
 4477TIP3    H234847   5.028   3.401   3.960  0.5040 -0.1245 -0.2632
 4478TIP3   OH234848   4.493   2.120  14.582 -0.8923  0.1769 -0.4637
 4478TIP3    H134849   4.409   2.112  14.628 -1.1347 -1.4112 -1.1596
 4478TIP3    H234850   4.474   2.091  14.493  0.0446  1.3061 -1.0475
 4479TIP3   OH234851   1.012   0.055   5.692  0.4352 -0.2545  0.1452
 4479TIP3    H134852   0.993   0.143   5.724 -1.0920 -0.2436 -0.7828
 4479TIP3    H234853   1.106   0.057   5.672  0.1341  1.5641 -1.1688
 4480TIP3   OH234854   1.906   6.387   6.568  0.0493  0.4396 -0.3792
 4480TIP3    H134855   1.866   6.378   6.655 -0.3166  0.1241 -0.5772
 4480TIP3    H234856   1.833   6.411   6.510  0.1786  0.0428 -0.7080
 4481TIP3   OH234857   0.552   6.011   4.848 -0.1822  0.3730 -0.5240
 4481TIP3    H134858   0.501   6.092   4.853  0.1189  0.6594 -1.7613
 4481TIP3    H234859   0.639   6.035   4.879  0.0086  0.6312 -1.2326
 4482TIP3   OH234860   1.829   0.354   0.266  0.1080 -0.0322  0.4586
 4482TIP3    H134861   1.919   0.327   0.244  0.7070 -0.1293  2.8777
 4482TIP3    H234862   1.821   0.336   0.359 -2.1626  0.7835  0.4462
 4483TIP3   OH234863   3.261   5.388   4.986  0.6030  0.0055 -0.4203
 4483TIP3    H134864   3.189   5.450   4.975 -0.7758 -1.2150  1.5235
 4483TIP3    H234865   3.332   5.441   5.023  0.9672  1.3297 -2.8489
 4484TIP3   OH234866   3.136   5.633   6.495 -0.3499 -0.1174 -0.2772
 4484TIP3    H134867   3.202   5.681   6.446  0.4973  0.1345  1.0716
 4484TIP3    H234868   3.090   5.699   6.546 -3.4931  0.0748 -3.2020
 4485TIP3   OH234869   1.103   0.167   0.395 -0.1911  0.4056 -0.4471
 4485TIP3    H134870   1.183   0.125   0.428 -0.8741  0.4860  1.3643
 4485TIP3    H234871   1.131   0.255   0.370  0.7527 -0.3199 -2.0058
 4486TIP3   OH234872   3.298   3.344  13.610  0.8451  0.0728  0.3004
 4486TIP3    H134873   3.236   3.355  13.538  0.6161 -1.4532  0.2396
 4486TIP3    H234874   3.251   3.373  13.688  0.8422  1.0555 -0.0680
 4487TIP3   OH234875   6.204   1.448  14.012 -0.2298 -0.2194  0.6335
 4487TIP3    H134876   6.190   1.541  14.026 -2.3147 -0.4607  0.3200
 4487TIP3    H234877   6.173   1.406  14.093 -3.6073 -0.9318 -0.9400
 4488TIP3   OH234878   0.647   4.164   3.698  0.0204  0.6257 -0.0234
 4488TIP3    H134879   0.701   4.097   3.655 -0.3330  0.2690  0.0924
 4488TIP3    H234880   0.699   4.190   3.774 -0.0589  0.1465  0.1936
 4489TIP3   OH234881   3.443   5.300  10.680  0.3526 -0.0828 -0.1047
 4489TIP3    H134882   3.387   5.332  10.609  0.2400  0.6503  0.3103
 4489TIP3    H234883   3.523   5.271  10.635 -0.7900 -2.2531 -0.8302
 4490TIP3   OH234884   5.280   3.072  16.311 -0.7230  0.0046 -0.0235
 4490TIP3    H134885   5.371   3.066  16.282  0.5303  1.2054  3.4145
 4490TIP3    H234886   5.235   3.003  16.263  2.1922 -1.2803 -1.0303
 4491TIP3   OH234887   1.052   3.958   4.169 -0.6584  0.0239  0.2514
 4491TIP3    H134888   1.125   3.917   4.124  0.6082  1.1744  1.2179
 4491TIP3    H234889   1.032   3.900   4.243 -0.4919 -0.1089  0.1898
 4492TIP3   OH234890   3.180   1.548   4.433 -0.2291  0.2971  0.3653
 4492TIP3    H134891   3.120   1.565   4.506  0.2190  2.3450  0.3047
 4492TIP3    H234892   3.151   1.465   4.397 -1.4215  0.0045  1.9339
 4493TIP3   OH234893   3.166   6.468  13.894 -0.6177 -0.6472  0.3449
 4493TIP3    H134894   3.073   6.451  13.902 -0.7585 -0.0941 -0.0942
 4493TIP3    H234895   3.199   6.398  13.837 -0.6775 -1.1165  0.8824
 4494TIP3   OH234896   0.025   0.906  13.973 -0.7445  0.1976  0.1305
 4494TIP3    H134897   0.059   0.968  14.037  1.6398 -0.1214 -0.7815
 4494TIP3    H234898   0.045   0.820  14.010 -0.2241  0.0091 -0.5804
 4495TIP3   OH234899   2.303   2.867   0.287 -0.9612 -0.1825  0.3001
 4495TIP3    H134900   2.386   2.881   0.240 -2.0574 -0.4597 -1.7677
 4495TIP3    H234901   2.269   2.956   0.300 -0.6270 -0.1004  0.6227
 4496TIP3   OH234902   2.578   0.553   1.674  0.1195  0.0740 -0.1021
 4496TIP3    H134903   2.618   0.472   1.640  0.9250  0.6696 -0.5874
 4496TIP3    H234904   2.551   0.601   1.596 -0.8371  0.0477  0.2026
 4497TIP3   OH234905   1.357   5.876  13.037  0.2779  0.5033  0.7732
 4497TIP3    H134906   1.269   5.854  13.067 -0.6457  1.1324 -1.3540
 4497TIP3    H234907   1.350   5.966  13.006  1.3398  0.1367 -0.5940
 4498TIP3   OH234908   1.835   3.774   6.381  0.2215  0.5135 -0.5129
 4498TIP3    H134909   1.866   3.683   6.376  0.4830  0.5930 -0.3721
 4498TIP3    H234910   1.742   3.769   6.360 -0.5666 -0.2435  2.8793
 4499TIP3   OH234911   5.946   6.295  16.012 -0.3905  0.0080  0.8061
 4499TIP3    H134912   5.932   6.341  16.094  2.4872 -0.9516  1.8809
 4499TIP3    H234913   5.932   6.202  16.034 -0.8467 -0.1489 -0.1033
 4500TIP3   OH234914   3.381   4.873   5.310  0.8839 -0.3222 -0.3586
 4500TIP3    H134915   3.293   4.860   5.346  1.0290  1.1969  0.6065
 4500TIP3    H234916   3.368   4.931   5.235  1.2580  1.6566  1.0537
 4501TIP3   OH234917   4.542   5.333  11.897  0.1824 -0.2381 -0.1377
 4501TIP3    H134918   4.477   5.369  11.958  0.8626 -0.2280  0.5950
 4501TIP3    H234919   4.516   5.242  11.885  0.0106 -0.2260  0.1318
 4502TIP3   OH234920   5.329   3.836  12.863 -0.1942  0.6627 -0.7681
 4502TIP3    H134921   5.248   3.870  12.902  0.6837  2.7428 -0.7136
 4502TIP3    H234922   5.357   3.766  12.922 -2.2738 -0.4981 -1.1167
 4503TIP3   OH234923   5.787   1.620   2.005 -0.1574 -0.1207 -0.0570
 4503TIP3    H134924   5.798   1.599   2.098  1.5717 -0.2600 -0.2659
 4503TIP3    H234925   5.718   1.686   2.003 -0.5139 -0.4343  1.2876
 4504TIP3   OH234926   4.862   3.250   3.475 -0.5218 -0.0984  0.4045
 4504TIP3    H134927   4.937   3.192   3.461 -1.5562 -1.1693 -0.8559
 4504TIP3    H234928   4.843   3.240   3.569  1.6793  1.1892  1.0301
 4505TIP3   OH234929   5.457   6.733  13.805  0.2951 -0.4128  0.0670
 4505TIP3    H134930   5.529   6.691  13.758  2.3794  0.0652  2.7672
 4505TIP3    H234931   5.380   6.682  13.779  0.8497  1.2353 -5.6805
 4506TIP3   OH234932   0.865   1.778  14.276 -0.1669 -0.0318  0.5015
 4506TIP3    H134933   0.948   1.766  14.321  0.9017 -2.1168 -1.9079
 4506TIP3    H234934   0.846   1.693  14.237 -1.7249  1.3209 -1.8222
 4507TIP3   OH234935   4.881   4.887   3.575  0.0534  0.2620 -0.2085
 4507TIP3    H134936   4.975   4.905   3.563  0.0703 -0.5704 -1.3999
 4507TIP3    H234937   4.841   4.974   3.582  1.0756  0.6106  1.6664
 4508TIP3   OH234938   5.822   4.027   0.238  0.0806  0.4175 -0.1804
 4508TIP3    H134939   5.895   4.085   0.256  0.6013 -0.3010  0.0646
 4508TIP3    H234940   5.819   3.968   0.314  1.1418 -1.4808 -1.5570
 4509TIP3   OH234941   5.099   5.965   3.350  0.0089  0.1613 -0.3776
 4509TIP3    H134942   5.104   6.055   3.382 -2.4599 -0.0734  0.8138
 4509TIP3    H234943   5.143   5.913   3.417  0.5792  0.3663 -0.5891
 4510TIP3   OH234944   3.448   2.698   0.750  0.1999 -0.3245  0.3612
 4510TIP3    H134945   3.456   2.611   0.712 -1.7086 -0.9190  1.2402
 4510TIP3    H234946   3.524   2.705   0.809  0.3763 -1.3875  0.2778
 4511TIP3   OH234947   6.017   5.531  12.468 -0.6489 -0.0942 -0.0852
 4511TIP3    H134948   6.045   5.481  12.544 -0.9474  0.2260  0.2329
 4511TIP3    H234949   6.084   5.514  12.402 -1.0118 -1.3334 -0.1538
 4512TIP3   OH234950   4.228   3.701  14.159 -0.8267  0.1477 -0.9701
 4512TIP3    H134951   4.167   3.638  14.196 -2.0909  2.3199  0.7250
 4512TIP3    H234952   4.282   3.728  14.233  0.0293  0.7082 -1.7886
 4513TIP3   OH234953   6.586   0.797  10.578  0.6352 -0.1211 -0.4356
 4513TIP3    H134954   6.663   0.769  10.528  0.6869  0.5312 -0.7197
 4513TIP3    H234955   6.584   0.892  10.569 -1.2529 -0.2673 -1.9532
 4514TIP3   OH234956   0.489   5.097   3.490 -0.6262 -0.7464 -0.4395
 4514TIP3    H134957   0.416   5.123   3.433 -1.6012  0.7117  1.4233
 4514TIP3    H234958   0.448   5.041   3.557  0.1229 -0.6656  0.0922
 4515TIP3   OH234959   5.879   2.740  13.982  0.0080  0.0511 -1.0061
 4515TIP3    H134960   5.852   2.825  14.018 -2.4298 -0.8054 -0.7496
 4515TIP3    H234961   5.875   2.753  13.887 -0.2776  0.2404 -0.9695
 4516TIP3   OH234962   4.244   5.840  14.355 -0.5641 -0.7959 -0.3423
 4516TIP3    H134963   4.228   5.885  14.272 -2.7733  0.8450  0.9186
 4516TIP3    H234964   4.329   5.872  14.385 -1.0553  0.7772 -0.6036
 4517TIP3   OH234965   0.768   0.976   4.027  0.6950  0.4721  0.5661
 4517TIP3    H134966   0.716   0.897   4.036  0.1481  0.7939  0.2972
 4517TIP3    H234967   0.856   0.951   4.055  1.1130 -0.8758 -1.7714
 4518TIP3   OH234968   2.419   2.089  11.985  0.4746 -0.2235 -0.0188
 4518TIP3    H134969   2.336   2.112  11.942  0.4147  1.4336  0.9225
 4518TIP3    H234970   2.482   2.086  11.914 -0.1754 -0.3068 -0.5981
 4519TIP3   OH234971   6.322   3.338   0.235  0.5042  0.4095  0.5334
 4519TIP3    H134972   6.402   3.337   0.184  1.3551 -0.6631  1.8572
 4519TIP3    H234973   6.319   3.426   0.273  0.3952  0.8648 -0.5132
 4520TIP3   OH234974   6.434   6.008  14.498 -0.2769 -0.2414  0.3399
 4520TIP3    H134975   6.388   5.927  14.522  0.9756 -0.5413  1.8230
 4520TIP3    H234976   6.405   6.072  14.564 -1.3856  0.5891 -0.9176
 4521TIP3   OH234977   4.531   4.828  14.507 -0.2600  0.1057  0.1976
 4521TIP3    H134978   4.520   4.878  14.427 -0.5063  0.2288  0.3082
 4521TIP3    H234979   4.483   4.746  14.492 -0.9199  0.4324  0.4907
 4522TIP3   OH234980   4.400   1.588  13.292  0.1818  0.3315  0.0333
 4522TIP3    H134981   4.495   1.585  13.287  0.2956  2.0878  0.7682
 4522TIP3    H234982   4.371   1.599  13.202  0.6536 -0.4633 -0.2201
 4523TIP3   OH234983   2.403   0.802   6.476  0.5213 -0.1731  0.1821
 4523TIP3    H134984   2.447   0.791   6.561 -1.7819  1.4186  1.6455
 4523TIP3    H234985   2.334   0.735   6.476  2.0905 -1.8536 -1.5778
 4524TIP3   OH234986   2.825   0.627   5.815 -0.0756 -0.3301 -0.5096
 4524TIP3    H134987   2.830   0.637   5.910  0.5598  1.5384 -0.7177
 4524TIP3    H234988   2.742   0.666   5.790  0.2119  0.0826 -0.8296
 4525TIP3   OH234989   6.543   1.552   4.395  0.0176  0.2102  0.0518
 4525TIP3    H134990   6.586   1.562   4.310  0.6807 -1.6591  0.1426
 4525TIP3    H234991   6.590   1.613   4.453  1.3155 -0.4285 -0.3016
 4526TIP3   OH234992   0.739   0.524  14.647  0.1452  0.3351 -0.5669
 4526TIP3    H134993   0.699   0.507  14.562  0.5652  1.6000 -1.0378
 4526TIP3    H234994   0.796   0.449  14.663  0.5274  0.3755 -1.6935
 4527TIP3   OH234995   6.321   0.380  16.447 -0.2660 -0.2047 -0.2264
 4527TIP3    H134996   6.386   0.349  16.510 -0.4025  2.0557  1.0693
 4527TIP3    H234997   6.334   0.324  16.370  1.6021 -1.3445  0.8815
 4528TIP3   OH234998   4.372   3.509   2.984 -0.0519 -0.6350  0.6280
 4528TIP3    H134999   4.369   3.421   2.948  1.4299 -0.3471 -0.2507
 4528TIP3    H235000   4.322   3.562   2.921 -0.4522 -0.7421  0.8540
 4529TIP3   OH235001   4.564   4.405   6.390 -0.5781 -0.1433 -0.3854
 4529TIP3    H135002   4.566   4.451   6.306 -0.9425 -0.8198 -0.7629
 4529TIP3    H235003   4.650   4.365   6.397 -0.2482  0.6112 -0.0445
 4530TIP3   OH235004   4.802   3.400  14.156  0.3730  0.2285  0.6683
 4530TIP3    H135005   4.844   3.482  14.181 -1.3045  1.5039 -0.5921
 4530TIP3    H235006   4.769   3.364  14.239  1.7703  0.4314  1.3288
 4531TIP3   OH235007   1.864   4.193   0.599 -0.0126 -0.9356 -0.6859
 4531TIP3    H135008   1.954   4.165   0.581 -0.0448 -2.2044  1.0201
 4531TIP3    H235009   1.816   4.111   0.614 -1.5880 -0.3048 -2.1504
 4532TIP3   OH235010   5.905   4.236  15.967  0.0760  0.0564 -0.6137
 4532TIP3    H135011   5.915   4.330  15.952 -0.0995  0.1857  0.0674
 4532TIP3    H235012   5.957   4.195  15.898 -1.3934  0.6271 -2.0889
 4533TIP3   OH235013   3.811   3.882  13.067 -0.2661 -0.0853  0.3291
 4533TIP3    H135014   3.832   3.975  13.079 -0.9819 -0.0618  1.4399
 4533TIP3    H235015   3.807   3.847  13.156 -1.5783 -0.8270 -0.0151
 4534TIP3   OH235016   6.100   4.128  15.806  0.1647 -0.5344 -0.3585
 4534TIP3    H135017   6.195   4.130  15.820 -0.3513 -3.2338  4.4743
 4534TIP3    H235018   6.087   4.059  15.741  1.5502  0.5661 -1.8456
 4535TIP3   OH235019   5.300   5.573  15.442  0.1339  0.1839  0.0006
 4535TIP3    H135020   5.388   5.537  15.444  0.4567  0.7986 -1.9316
 4535TIP3    H235021   5.245   5.501  15.410  0.1354  0.1700  0.0274
 4536TIP3   OH235022   1.882   5.857   3.416 -0.0550  0.6617  0.1423
 4536TIP3    H135023   1.797   5.858   3.371  0.1742  1.3589 -0.2873
 4536TIP3    H235024   1.889   5.769   3.452  1.2289 -1.0313 -3.9930
 4537TIP3   OH235025   0.551   4.512  13.286  0.1650 -0.5712 -0.4677
 4537TIP3    H135026   0.537   4.466  13.203 -0.9026  0.6719 -0.9931
 4537TIP3    H235027   0.593   4.594  13.260 -0.2634 -0.1406  0.2190
 4538TIP3   OH235028   6.432   1.104  13.290 -0.5419 -0.2198 -0.1009
 4538TIP3    H135029   6.368   1.175  13.294  0.7451  1.0341 -1.3749
 4538TIP3    H235030   6.467   1.098  13.379 -1.2655  0.1464  0.2170
 4539TIP3   OH235031   0.687   3.937   6.142 -0.0857  0.0649 -1.0568
 4539TIP3    H135032   0.638   3.913   6.220 -1.2204  0.7648 -1.5280
 4539TIP3    H235033   0.731   3.857   6.114  1.4941  0.1581  1.1120
 4540TIP3   OH235034   2.274   3.738  14.933 -0.4546  0.1573 -0.1038
 4540TIP3    H135035   2.335   3.789  14.985 -0.1748 -0.2976  0.0155
 4540TIP3    H235036   2.187   3.764  14.966 -0.3188  0.6131 -0.1025
 4541TIP3   OH235037   6.326   2.320   5.438  0.0209  0.2596 -0.0962
 4541TIP3    H135038   6.302   2.336   5.347  2.9453 -0.4153 -1.0047
 4541TIP3    H235039   6.329   2.225   5.446 -0.5607  0.3056  0.8365
 4542TIP3   OH235040   0.141   3.023  16.791 -0.2072 -0.1878  0.2377
 4542TIP3    H135041   0.189   2.972  16.856 -1.3726 -4.5003 -2.1104
 4542TIP3    H235042   0.065   3.058  16.838  0.8599 -0.2110  1.9947
 4543TIP3   OH235043   5.979   6.344   2.045  0.5286 -0.1736 -1.0376
 4543TIP3    H135044   5.939   6.271   1.998 -1.7393  0.0423  0.4901
 4543TIP3    H235045   5.960   6.326   2.137 -1.3993  3.1001 -0.7470
 4544TIP3   OH235046   5.640   4.577  15.903 -0.2002 -0.2793  0.4104
 4544TIP3    H135047   5.559   4.589  15.953 -0.0184  0.4161  0.5404
 4544TIP3    H235048   5.618   4.605  15.815 -0.3154 -0.8216  0.2640
 4545TIP3   OH235049   5.902   2.284  14.950 -0.1408 -0.2901  0.2101
 4545TIP3    H135050   5.942   2.313  14.868 -0.0020  0.7408  0.6397
 4545TIP3    H235051   5.953   2.328  15.019 -0.2855 -1.1040  0.8554
 4546TIP3   OH235052   3.378   1.929  13.617 -0.5195 -0.5017 -0.5979
 4546TIP3    H135053   3.421   1.993  13.674  0.8705 -0.2362 -1.9429
 4546TIP3    H235054   3.285   1.941  13.635 -0.2956  2.0586 -1.0096
 4547TIP3   OH235055   4.128   0.944   1.562 -0.0411  0.1799  0.0734
 4547TIP3    H135056   4.145   0.877   1.495 -1.5507 -0.0558 -0.0775
 4547TIP3    H235057   4.094   1.018   1.513 -0.7844  0.1476  0.5403
 4548TIP3   OH235058   4.790   3.009  15.134  0.1260  0.6574  0.5801
 4548TIP3    H135059   4.779   3.087  15.189  1.0604  0.5459  0.9235
 4548TIP3    H235060   4.779   2.936  15.194  2.0980  0.5375  0.8120
 4549TIP3   OH235061   4.167   3.386   5.941  0.4047 -0.6597  0.2888
 4549TIP3    H135062   4.244   3.434   5.970  0.1327  0.2080 -0.4304
 4549TIP3    H235063   4.142   3.333   6.017  0.7231  0.3126  1.0748
 4550TIP3   OH235064   4.645   1.538  12.783 -0.0110  0.2516 -0.4585
 4550TIP3    H135065   4.610   1.451  12.803 -0.1406  0.3643 -0.2020
 4550TIP3    H235066   4.736   1.534  12.811 -0.4663  0.7485  1.1425
 4551TIP3   OH235067   3.295   0.353  17.014 -0.0472  0.1163  0.2082
 4551TIP3    H135068   3.311   0.317  16.926 -1.2251 -0.0933  0.0721
 4551TIP3    H235069   3.373   0.330  17.064  1.1032  1.1725 -1.0758
 4552TIP3   OH235070   4.493   2.455  11.581 -0.8319 -0.5783 -0.2126
 4552TIP3    H135071   4.521   2.436  11.492  0.0281  2.2488 -0.6066
 4552TIP3    H235072   4.571   2.489  11.625 -1.4271 -1.1978  1.3901
 4553TIP3   OH235073   1.967   5.559  12.262 -0.3425 -0.1219 -0.2280
 4553TIP3    H135074   2.005   5.643  12.238 -0.0881  0.3443  1.6971
 4553TIP3    H235075   2.040   5.497  12.262 -0.1649  0.0830  0.2480
 4554TIP3   OH235076   4.556   2.702   3.761 -0.1994 -0.0429 -0.4918
 4554TIP3    H135077   4.472   2.689   3.805 -0.2996  1.5886 -0.1716
 4554TIP3    H235078   4.600   2.769   3.813  0.0091  1.3385 -2.4271
 4555TIP3   OH235079   1.018   1.796   5.607  0.0403  0.4682  0.8086
 4555TIP3    H135080   1.111   1.785   5.592  0.3051  1.5832  1.5887
 4555TIP3    H235081   0.982   1.820   5.521  0.2020 -1.5217  0.1603
 4556TIP3   OH235082   3.011   3.278   6.814  0.3957  0.3930 -0.1121
 4556TIP3    H135083   3.067   3.232   6.752  0.1568  1.6361 -1.2724
 4556TIP3    H235084   2.932   3.300   6.764  0.5435  2.1257  0.3704
 4557TIP3   OH235085   1.734   1.544   3.140  0.2939 -0.5641 -0.2339
 4557TIP3    H135086   1.716   1.614   3.202  0.0528 -1.2862  0.5158
 4557TIP3    H235087   1.828   1.553   3.120  0.4747 -0.6319  0.6002
 4558TIP3   OH235088   6.758   3.899  15.477  0.9807 -0.0241  0.4012
 4558TIP3    H135089   6.768   3.813  15.435  1.1198  0.2000 -0.0362
 4558TIP3    H235090   6.848   3.926  15.496  1.1515  1.2453 -1.9863
 4559TIP3   OH235091   3.590   5.630   5.229  0.0253  0.2270  0.4145
 4559TIP3    H135092   3.682   5.613   5.211  0.5950  1.0305  2.4097
 4559TIP3    H235093   3.575   5.590   5.315 -1.3234  0.6635  0.3907
 4560TIP3   OH235094   1.008   2.303  13.446  0.2916  0.0666  0.0919
 4560TIP3    H135095   1.067   2.378  13.435 -0.9209  1.0727  0.3657
 4560TIP3    H235096   1.051   2.232  13.399  1.1168  1.1104 -0.7555
 4561TIP3   OH235097   2.028   3.821   5.348  0.2446 -0.5190  0.0990
 4561TIP3    H135098   2.121   3.832   5.366  0.0436 -0.1143  0.9304
 4561TIP3    H235099   1.985   3.834   5.433 -0.7388  1.4471 -0.6760
 4562TIP3   OH235100   4.181   6.767  16.969 -0.3022  0.1342  0.1135
 4562TIP3    H135101   4.092   6.780  16.936 -0.4288  0.7072  0.6690
 4562TIP3    H235102   4.217   6.696  16.916 -0.2523  1.5263 -1.7510
 4563TIP3   OH235103   1.463   0.508   2.347 -0.2634  0.0042 -0.0099
 4563TIP3    H135104   1.470   0.431   2.290  0.7205  1.1295 -1.4424
 4563TIP3    H235105   1.401   0.481   2.415 -1.3660 -1.4267 -1.5229
 4564TIP3   OH235106   2.502   2.574  14.060  0.7893  0.0720 -0.7260
 4564TIP3    H135107   2.407   2.581  14.051  0.5675  0.4754  1.6632
 4564TIP3    H235108   2.520   2.481  14.052  0.2345  0.0307 -1.5390
 4565TIP3   OH235109   3.365   1.944   0.525 -0.1049 -0.3749 -0.6683
 4565TIP3    H135110   3.392   1.878   0.588  0.8246  0.8278  0.2247
 4565TIP3    H235111   3.446   1.976   0.486 -0.6096 -0.4541 -1.8255
 4566TIP3   OH235112   6.055   3.864   2.530 -0.2963 -0.0823 -0.1183
 4566TIP3    H135113   5.966   3.854   2.563 -0.7463  1.5997 -0.7772
 4566TIP3    H235114   6.111   3.850   2.607 -1.2184  1.0985  0.7847
 4567TIP3   OH235115   4.836   5.401  12.984  0.3341  0.6640  0.1346
 4567TIP3    H135116   4.815   5.335  12.918 -1.1433 -0.7218  1.9118
 4567TIP3    H235117   4.881   5.470  12.936 -0.3393 -0.4877 -2.2328
 4568TIP3   OH235118   6.521   4.675  17.164 -0.6639  0.3848  0.1637
 4568TIP3    H135119   6.565   4.613  17.222  0.3483  1.1899  0.2532
 4568TIP3    H235120   6.474   4.734  17.223 -1.4443 -0.1396  0.0821
 4569TIP3   OH235121   6.435   6.356  15.901 -0.9030  0.0470 -0.2842
 4569TIP3    H135122   6.448   6.401  15.985 -1.0607 -1.2194  0.4230
 4569TIP3    H235123   6.513   6.379  15.850  0.5334 -1.3959  1.2131
 4570TIP3   OH235124   3.145   6.108   5.053  0.5364  0.0280 -0.6650
 4570TIP3    H135125   3.081   6.072   5.114 -0.1382  1.3154 -0.5811
 4570TIP3    H235126   3.182   6.032   5.008 -0.8665 -0.7460 -0.5223
 4571TIP3   OH235127   4.309   2.335   1.860 -0.3146 -0.0076  0.5695
 4571TIP3    H135128   4.303   2.330   1.765  1.0111  0.6484  0.4404
 4571TIP3    H235129   4.301   2.245   1.890 -0.3613 -0.2513 -0.1778
 4572TIP3   OH235130   5.564   3.894   0.406  0.6274 -0.3143  0.4388
 4572TIP3    H135131   5.660   3.887   0.403  0.5758 -0.9358 -0.0151
 4572TIP3    H235132   5.533   3.811   0.370 -0.0798  0.3307 -0.4841
 4573TIP3   OH235133   2.150   1.110  16.538  0.0719  0.2061 -0.3688
 4573TIP3    H135134   2.130   1.062  16.458 -2.5330  0.4244  0.1236
 4573TIP3    H235135   2.093   1.186  16.536  1.5171  1.3559  0.6718
 4574TIP3   OH235136   0.467   6.758   3.464 -0.4394 -0.3128 -0.4723
 4574TIP3    H135137   0.447   6.848   3.491  0.2006 -0.3838  0.2594
 4574TIP3    H235138   0.422   6.703   3.528  0.4885 -0.4927  0.0308
 4575TIP3   OH235139   1.326   4.025  12.699  0.0485  0.2087  0.0975
 4575TIP3    H135140   1.245   4.073  12.715  0.0189 -0.7749  3.4551
 4575TIP3    H235141   1.297   3.936  12.680  0.2499  0.5728 -1.9790
 4576TIP3   OH235142   0.091   4.516  13.928 -0.1814  0.1790 -0.3686
 4576TIP3    H135143   0.182   4.496  13.907  0.5409  0.4430  2.3837
 4576TIP3    H235144   0.077   4.476  14.014 -2.4005  0.9070 -0.3650
 4577TIP3   OH235145   1.878   4.530   0.149 -0.2010 -0.5262 -0.0410
 4577TIP3    H135146   1.844   4.612   0.112 -2.0159 -1.1173  0.2946
 4577TIP3    H235147   1.800   4.478   0.169  0.7743 -0.8614  3.1918
 4578TIP3   OH235148   6.234   1.619   3.014  0.1042  0.1428  0.4141
 4578TIP3    H135149   6.308   1.572   3.054 -1.6875 -2.3478  0.9085
 4578TIP3    H235150   6.176   1.638   3.088 -0.5985  0.5097 -0.2341
 4579TIP3   OH235151   5.073   1.550  11.047  0.4798 -0.2103  0.1521
 4579TIP3    H135152   5.031   1.598  11.119 -0.3402  0.5617 -0.8314
 4579TIP3    H235153   5.070   1.459  11.075 -1.5792 -0.1495  0.2633
 4580TIP3   OH235154   5.515   1.862  12.270  0.5695 -0.2289 -0.5644
 4580TIP3    H135155   5.474   1.776  12.260  0.7805 -0.9493  3.7120
 4580TIP3    H235156   5.609   1.845  12.261  0.5979 -0.4405  0.0897
 4581TIP3   OH235157   1.879   3.634  11.767  0.1952  0.5361 -0.0704
 4581TIP3    H135158   1.805   3.574  11.755  1.1592 -0.4790 -0.9787
 4581TIP3    H235159   1.952   3.577  11.792  0.4691  1.6228  1.7341
 4582TIP3   OH235160   5.911   0.861   0.920  0.3331 -0.6075 -0.1049
 4582TIP3    H135161   5.972   0.817   0.861 -0.4582 -0.9552 -0.6773
 4582TIP3    H235162   5.966   0.899   0.988  1.4511  1.3030 -2.0163
 4583TIP3   OH235163   2.620   4.415  12.888 -0.2500  0.0001  0.4589
 4583TIP3    H135164   2.582   4.449  12.807  0.4037 -0.3430  0.0008
 4583TIP3    H235165   2.613   4.320  12.879 -0.9421 -0.0217  1.1845
 4584TIP3   OH235166   6.605   3.017   5.473  0.1985  0.5435  0.0224
 4584TIP3    H135167   6.654   3.077   5.416 -1.0265  1.0070 -0.5585
 4584TIP3    H235168   6.668   2.948   5.495  0.9828  0.8956 -1.0731
 4585TIP3   OH235169   0.437   5.061   5.170 -0.0301 -0.0271  0.0329
 4585TIP3    H135170   0.411   5.092   5.257  0.8614 -1.9442  1.0068
 4585TIP3    H235171   0.434   5.139   5.115  0.8757  1.5322  2.1227
 4586TIP3   OH235172   2.709   2.468  13.600 -0.1257 -0.2562  0.2236
 4586TIP3    H135173   2.657   2.392  13.626  1.7311 -2.1568 -1.3995
 4586TIP3    H235174   2.712   2.464  13.504  1.0296  1.1578  0.1788
 4587TIP3   OH235175   5.280   1.469   1.849  0.5945 -0.0470 -0.2331
 4587TIP3    H135176   5.301   1.559   1.824  0.1331  0.7988  2.2268
 4587TIP3    H235177   5.346   1.446   1.915 -0.3601 -0.8334  0.4700
 4588TIP3   OH235178   3.514   1.898   3.658  0.5114  0.0327  0.3638
 4588TIP3    H135179   3.514   1.822   3.599  0.3591 -0.9115  1.5772
 4588TIP3    H235180   3.585   1.952   3.626  0.0085 -0.1438 -1.1170
 4589TIP3   OH235181   0.110   3.474   4.821  0.0560 -0.2273  0.1927
 4589TIP3    H135182   0.157   3.415   4.762  0.0782 -1.5841  1.5282
 4589TIP3    H235183   0.080   3.545   4.765 -0.0911 -1.5793 -1.5018
 4590TIP3   OH235184   1.761   0.440  14.563 -0.4307 -0.1346 -0.1239
 4590TIP3    H135185   1.764   0.505  14.634  3.1921 -0.5611  0.2173
 4590TIP3    H235186   1.747   0.357  14.608 -2.2216  0.0654 -0.3005
 4591TIP3   OH235187   5.930   4.529   1.566 -0.0353  0.4703 -0.2793
 4591TIP3    H135188   5.906   4.594   1.501  3.3494  3.1214  0.9638
 4591TIP3    H235189   6.019   4.505   1.544  0.0347 -0.9893  1.4824
 4592TIP3   OH235190   5.977   1.963   2.067 -0.2269 -0.7805 -0.1275
 4592TIP3    H135191   5.897   1.948   2.016 -0.1766 -2.7231  0.3328
 4592TIP3    H235192   6.043   1.988   2.003 -0.7612 -0.9004 -0.7272
 4593TIP3   OH235193   4.959   1.323  10.310  0.1124 -0.2070 -0.0909
 4593TIP3    H135194   4.932   1.413  10.292  0.2017  0.4247  2.7418
 4593TIP3    H235195   5.039   1.312  10.258  1.6339  2.2865  1.5945
 4594TIP3   OH235196   6.402   0.765  11.967  0.5739 -0.3195 -0.4724
 4594TIP3    H135197   6.394   0.676  11.933  0.0827 -0.4679  0.0375
 4594TIP3    H235198   6.495   0.774  11.988  0.4401 -1.1004  0.5245
 4595TIP3   OH235199   5.861   1.867  11.927 -0.2385 -0.1615  0.2419
 4595TIP3    H135200   5.910   1.795  11.888 -0.0593  0.3362 -0.4756
 4595TIP3    H235201   5.927   1.918  11.973  0.1177  1.0299 -1.5033
 4596TIP3   OH235202   2.146   2.153  14.306  0.1491  0.0293 -0.5197
 4596TIP3    H135203   2.141   2.085  14.374 -0.0334  0.1828 -0.3789
 4596TIP3    H235204   2.150   2.105  14.224 -0.1157 -0.1466 -0.4274
 4597TIP3   OH235205   2.382   4.364   4.305  0.0674  0.1110 -0.0034
 4597TIP3    H135206   2.385   4.422   4.229  1.7956  0.4418  0.3040
 4597TIP3    H235207   2.419   4.416   4.377  0.0450 -0.7888  0.6701
 4598TIP3   OH235208   4.941   5.973  15.607  0.7566 -0.5561 -0.3449
 4598TIP3    H135209   4.942   5.964  15.703  1.0714  1.6461 -0.1014
 4598TIP3    H235210   4.948   5.884  15.574 -1.2253 -1.5098  1.6865
 4599TIP3   OH235211   5.621   0.139   3.773  0.3772 -0.2052  0.2059
 4599TIP3    H135212   5.627   0.096   3.688  0.7287  3.2272 -1.5572
 4599TIP3    H235213   5.712   0.157   3.797  0.1732  0.4389  0.4842
 4600TIP3   OH235214   0.853   2.948   3.030  0.2057  0.0859  0.0268
 4600TIP3    H135215   0.798   2.918   2.957  0.3132 -2.5209  0.9537
 4600TIP3    H235216   0.807   3.025   3.065 -0.3968  0.7227 -2.1028
 4601TIP3   OH235217   2.389   3.037  11.078 -0.0059 -0.0809 -0.6177
 4601TIP3    H135218   2.363   3.032  10.986  0.5237 -0.7587 -0.7330
 4601TIP3    H235219   2.478   3.073  11.075  1.4139 -3.4702 -0.5961
 4602TIP3   OH235220   1.583   0.618   4.778 -0.5704 -0.1411 -0.0736
 4602TIP3    H135221   1.651   0.662   4.830  1.0045  0.8607 -2.8718
 4602TIP3    H235222   1.626   0.539   4.744 -1.4027 -0.5007 -0.3003
 4603TIP3   OH235223   3.048   2.123   2.659  0.2292 -0.0982  0.3053
 4603TIP3    H135224   3.015   2.036   2.683 -0.0043 -0.7799 -2.3134
 4603TIP3    H235225   3.136   2.107   2.625 -0.4967  0.4207 -1.8991
 4604TIP3   OH235226   6.060   5.073   6.486  0.5616 -0.0574  1.0874
 4604TIP3    H135227   6.063   5.004   6.552 -0.1519 -1.8311 -0.6960
 4604TIP3    H235228   5.971   5.108   6.492  0.6712  0.1728  1.4228
 4605TIP3   OH235229   2.014   4.704  13.308  0.1900 -0.1034  0.1142
 4605TIP3    H135230   2.106   4.678  13.307  0.4566  0.7832  0.9861
 4605TIP3    H235231   1.993   4.715  13.400 -0.2044  1.7673 -0.1918
 4606TIP3   OH235232   5.184   3.897   0.325 -0.5353  0.5965  0.5521
 4606TIP3    H135233   5.167   3.833   0.257 -0.3368 -0.1224  1.1681
 4606TIP3    H235234   5.263   3.944   0.295 -2.6321  2.9075 -1.5541
 4607TIP3   OH235235   5.675   5.213  12.932 -0.2473 -0.0411  0.3197
 4607TIP3    H135236   5.587   5.217  12.893 -0.5854  0.7854  1.1754
 4607TIP3    H235237   5.712   5.300  12.918  0.0278 -0.0603  0.9270
 4608TIP3   OH235238   1.314   3.418  14.136 -0.0662 -0.1775 -0.6786
 4608TIP3    H135239   1.326   3.484  14.205 -2.7232  1.9186 -2.1584
 4608TIP3    H235240   1.399   3.415  14.092  0.4257  1.4880  0.0974
 4609TIP3   OH235241   2.537   0.210   0.073 -0.3354 -0.4887 -0.5474
 4609TIP3    H135242   2.544   0.120   0.103 -2.8648 -0.3032  0.7407
 4609TIP3    H235243   2.620   0.228   0.029  1.3386 -2.4866  1.7271
 4610TIP3   OH235244   0.605   1.322   0.675  0.4056 -0.2997  0.4101
 4610TIP3    H135245   0.553   1.399   0.650 -1.0102 -1.0862  0.9279
 4610TIP3    H235246   0.609   1.270   0.595  1.6305  0.4302 -0.0313
 4611TIP3   OH235247   5.030   0.009  16.993  0.4510 -0.3937  0.0712
 4611TIP3    H135248   5.050  -0.084  17.002 -1.4368 -0.8121  0.2930
 4611TIP3    H235249   4.945   0.020  17.036 -0.6888  0.8721 -2.3296
 4612TIP3   OH235250   4.974   5.366   2.078 -0.1423  0.8339 -0.1068
 4612TIP3    H135251   5.040   5.426   2.114 -0.4177  0.4065  1.1286
 4612TIP3    H235252   4.928   5.418   2.012  2.4615  0.6691 -2.1323
 4613TIP3   OH235253   6.484   2.764   2.648  0.1670 -0.0590 -0.1993
 4613TIP3    H135254   6.556   2.819   2.618  0.0710  0.0733 -0.1869
 4613TIP3    H235255   6.527   2.688   2.689  0.2978 -0.1906 -0.5820
 4614TIP3   OH235256   5.469   1.081  16.420  0.5055  0.4533 -0.0940
 4614TIP3    H135257   5.547   1.133  16.401  0.0291  1.0787 -0.3611
 4614TIP3    H235258   5.458   1.089  16.515  0.5059  0.7337 -0.1178
 4615TIP3   OH235259   4.056   5.454   2.023  0.1593 -0.2625  0.9376
 4615TIP3    H135260   4.047   5.539   1.980 -1.0201 -0.4473  0.8098
 4615TIP3    H235261   4.098   5.399   1.958  0.5838  0.1068  0.8882
 4616TIP3   OH235262   6.375   1.413   3.173  0.0650  0.1748 -0.0180
 4616TIP3    H135263   6.416   1.335   3.211  0.1274  1.7916  3.3823
 4616TIP3    H235264   6.329   1.380   3.096  0.8720 -3.0658  0.8082
 4617TIP3   OH235265   6.757   2.325   0.887 -0.0705  0.1480 -0.5604
 4617TIP3    H135266   6.755   2.390   0.957  0.4103  0.1172 -0.5127
 4617TIP3    H235267   6.723   2.371   0.810  1.4368  0.8525 -0.8336
 4618TIP3   OH235268   3.119   2.707   5.170  0.3033  0.1640  0.2058
 4618TIP3    H135269   3.081   2.699   5.257 -1.5419  3.1731 -0.2479
 4618TIP3    H235270   3.206   2.667   5.178 -1.4924 -3.6365  2.2130
 4619TIP3   OH235271   1.367   1.452  13.952 -0.6731  0.3316  0.5501
 4619TIP3    H135272   1.375   1.521  14.018  2.1304 -0.4274  1.0572
 4619TIP3    H235273   1.375   1.498  13.868  0.4657  0.7126  0.8682
 4620TIP3   OH235274   3.236   3.659  13.168  0.5233  0.2871  0.5683
 4620TIP3    H135275   3.305   3.633  13.229 -0.2293  0.8129  1.6398
 4620TIP3    H235276   3.206   3.576  13.130  0.9960 -0.0357  0.8887
 4621TIP3   OH235277   0.649   2.156  12.858  0.0046 -0.1858 -0.1827
 4621TIP3    H135278   0.724   2.164  12.799 -0.0044  0.1790 -0.1444
 4621TIP3    H235279   0.577   2.196  12.810  0.2347  1.0587  0.5079
 4622TIP3   OH235280   5.949   6.072  14.233 -0.1278 -0.3208  0.1858
 4622TIP3    H135281   5.897   6.112  14.163 -1.5949 -0.3380  1.2530
 4622TIP3    H235282   5.984   5.992  14.194 -1.3105 -0.5667 -0.3878
 4623TIP3   OH235283   0.549   2.497  11.736 -0.0634 -0.4303  0.4592
 4623TIP3    H135284   0.576   2.549  11.812 -0.2502 -1.1715  1.0351
 4623TIP3    H235285   0.507   2.561  11.678  0.8648  0.3039  0.5743
 4624TIP3   OH235286   1.230   2.904   4.538 -0.0864 -0.1763 -0.3936
 4624TIP3    H135287   1.319   2.932   4.557 -0.4617  0.0612  1.1179
 4624TIP3    H235288   1.239   2.838   4.469  1.2187  0.0432 -0.4456
 4625TIP3   OH235289   1.720   4.029  16.134  0.1556  0.2352 -0.1682
 4625TIP3    H135290   1.746   3.947  16.176  1.2459  0.3238 -0.6499
 4625TIP3    H235291   1.800   4.080  16.130 -0.8246  1.9370  1.4727
 4626TIP3   OH235292   2.552   4.217   2.644 -0.0204 -0.0026 -0.2030
 4626TIP3    H135293   2.577   4.202   2.734  1.1919  0.0002 -0.5318
 4626TIP3    H235294   2.635   4.228   2.597 -0.6033 -1.0035 -1.4919
 4627TIP3   OH235295   2.584   4.744  16.748 -0.0018  0.1095  0.8924
 4627TIP3    H135296   2.603   4.661  16.791  1.3629  0.0398  0.1982
 4627TIP3    H235297   2.598   4.727  16.655 -1.1434  0.7357  0.5912
 4628TIP3   OH235298   1.564   6.447  11.366  0.2144  0.5657 -0.1019
 4628TIP3    H135299   1.561   6.438  11.461 -2.7109  0.0369 -0.1959
 4628TIP3    H235300   1.606   6.532  11.352  0.8803  0.5545  1.6290
 4629TIP3   OH235301   1.639   5.751   3.924 -0.7378  0.2246 -0.2604
 4629TIP3    H135302   1.598   5.760   4.010 -0.6305 -0.1128 -0.1737
 4629TIP3    H235303   1.724   5.794   3.934 -0.6941  0.1196 -0.1745
 4630TIP3   OH235304   1.564   0.442   4.146  0.0327  0.5354  0.2630
 4630TIP3    H135305   1.530   0.375   4.206  0.1311  0.2061 -0.0464
 4630TIP3    H235306   1.572   0.397   4.062 -0.1913  1.0227 -0.0208
 4631TIP3   OH235307   2.275   6.134  13.359 -0.5958  0.5456  0.3091
 4631TIP3    H135308   2.191   6.114  13.402  0.4830 -0.1854  2.1301
 4631TIP3    H235309   2.252   6.199  13.292 -2.3256  1.8320  2.0645
 4632TIP3   OH235310   0.494   2.107   5.933 -0.2896 -0.1738 -0.5685
 4632TIP3    H135311   0.582   2.143   5.927 -0.0690 -0.4973  0.5355
 4632TIP3    H235312   0.446   2.168   5.989 -0.5392 -0.4087 -0.5225
 4633TIP3   OH235313   3.221   1.530   0.143  0.5306 -0.6320  0.0895
 4633TIP3    H135314   3.268   1.520   0.226  2.0117  0.5163 -0.6006
 4633TIP3    H235315   3.229   1.444   0.101 -0.2551 -1.2329  1.1233
 4634TIP3   OH235316   6.097   5.871   0.462 -0.4322  0.4015  0.7403
 4634TIP3    H135317   6.181   5.838   0.429 -0.6034  0.1846  0.5283
 4634TIP3    H235318   6.031   5.819   0.416 -0.7329  1.8823 -0.5340
 4635TIP3   OH235319   4.777   6.080   5.449  0.0704  1.1322  0.0901
 4635TIP3    H135320   4.692   6.037   5.441  0.4828  0.2045  0.6008
 4635TIP3    H235321   4.766   6.142   5.521 -0.2503  1.2100 -0.0252
 4636TIP3   OH235322   4.552   3.223  15.113 -0.4394  0.0691  0.4454
 4636TIP3    H135323   4.536   3.149  15.171  0.0800  0.2431  0.8155
 4636TIP3    H235324   4.640   3.253  15.136 -0.8340  1.1069  0.6428
 4637TIP3   OH235325   0.652   3.609   0.540 -0.0155 -0.4870  0.2686
 4637TIP3    H135326   0.736   3.610   0.493 -0.6870  0.8522 -0.9631
 4637TIP3    H235327   0.655   3.530   0.593  1.2165 -1.5236 -1.2821
 4638TIP3   OH235328   5.229   0.425  11.602  0.1730  0.4266 -0.0045
 4638TIP3    H135329   5.207   0.518  11.599 -1.6081  0.0271  0.0084
 4638TIP3    H235330   5.253   0.409  11.693  0.0529  0.7822  0.0909
 4639TIP3   OH235331   2.427   5.848   5.206 -0.0852  0.2250  0.3037
 4639TIP3    H135332   2.426   5.752   5.206 -0.1135  0.2196 -0.6678
 4639TIP3    H235333   2.339   5.873   5.179 -0.1686  0.5294  0.8528
 4640TIP3   OH235334   6.052   0.121   2.700  1.0516 -0.3362 -0.0206
 4640TIP3    H135335   6.038   0.115   2.606  0.6461 -1.4771  0.1124
 4640TIP3    H235336   5.992   0.190   2.729  1.0396 -0.1185 -0.5606
 4641TIP3   OH235337   4.579   2.112   0.816 -0.5012 -0.3427 -0.2601
 4641TIP3    H135338   4.484   2.114   0.827 -1.0399 -2.3184 -3.7758
 4641TIP3    H235339   4.594   2.143   0.727  2.1308 -0.5716  0.0554
 4642TIP3   OH235340   1.317   1.719   4.476 -0.5933 -0.1252  0.8543
 4642TIP3    H135341   1.337   1.626   4.466 -3.1750 -0.5156 -1.0350
 4642TIP3    H235342   1.246   1.721   4.541 -3.0175  0.2013 -1.7486
 4643TIP3   OH235343   5.536   4.816  16.860 -0.3708  0.4104  0.4591
 4643TIP3    H135344   5.601   4.876  16.823  1.1233 -1.0235  0.7022
 4643TIP3    H235345   5.461   4.825  16.802  1.2384 -0.3270 -1.8203
 4644TIP3   OH235346   3.157   4.781   6.355  0.2599 -0.2312  0.2990
 4644TIP3    H135347   3.185   4.872   6.346 -0.2994  0.0216  1.0982
 4644TIP3    H235348   3.102   4.766   6.278 -0.1323  0.2915  0.4756
 4645TIP3   OH235349   2.016   3.716   1.718 -0.7689  0.0961  0.1063
 4645TIP3    H135350   2.040   3.646   1.780 -1.6965  0.3489  0.7657
 4645TIP3    H235351   2.098   3.739   1.675 -0.2206 -0.5150  0.8055
 4646TIP3   OH235352   4.437   1.441   2.515  0.1154 -0.6848 -0.0696
 4646TIP3    H135353   4.526   1.477   2.523 -0.7119  1.2732  0.6082
 4646TIP3    H235354   4.440   1.360   2.566  1.5834 -0.7519 -0.2472
 4647TIP3   OH235355   2.317   1.358  11.522  0.0805  0.1091 -0.0336
 4647TIP3    H135356   2.282   1.416  11.589 -0.5072 -1.3956  1.0023
 4647TIP3    H235357   2.242   1.334  11.468  0.4086  0.6899 -0.7665
 4648TIP3   OH235358   4.477   4.664  11.697 -0.0862  0.3122 -0.4159
 4648TIP3    H135359   4.504   4.711  11.618 -0.9217  1.0224 -0.2869
 4648TIP3    H235360   4.385   4.643  11.682 -0.5183  1.2705  0.7471
 4649TIP3   OH235361   0.984   6.645  15.339 -0.2599 -0.1258 -0.2132
 4649TIP3    H135362   0.983   6.656  15.434  0.6881  1.2075 -0.3580
 4649TIP3    H235363   1.077   6.644  15.316 -0.4976  0.1771 -1.1995
 4650TIP3   OH235364   3.096   5.754   0.155  0.0776 -0.0903  0.3390
 4650TIP3    H135365   3.102   5.787   0.245 -0.1781 -2.0364  1.1014
 4650TIP3    H235366   3.005   5.765   0.131 -0.2230 -1.1085  0.9582
 4651TIP3   OH235367   0.505   4.195   2.166 -0.0612  0.4589  0.4030
 4651TIP3    H135368   0.517   4.289   2.171 -0.7803  0.4730  2.1039
 4651TIP3    H235369   0.530   4.163   2.253 -0.6709 -0.8221  0.1159
 4652TIP3   OH235370   0.857   2.444   5.414 -0.2477 -0.1361 -0.3700
 4652TIP3    H135371   0.850   2.456   5.509 -0.5917 -0.4075 -0.3589
 4652TIP3    H235372   0.834   2.529   5.377  4.0724  1.2647 -0.0855
 4653TIP3   OH235373   4.996   3.785  15.785 -0.0313  0.2704  0.1271
 4653TIP3    H135374   4.999   3.722  15.713  0.6907  0.6598 -0.1922
 4653TIP3    H235375   4.933   3.748  15.847 -0.4555 -0.2047 -0.5753
 4654TIP3   OH235376   1.086   1.295  13.088  0.6183 -0.4732 -0.3307
 4654TIP3    H135377   1.015   1.242  13.123  2.5158 -1.6973  1.7777
 4654TIP3    H235378   1.101   1.260  13.000 -2.2988  0.7505 -1.3658
 4655TIP3   OH235379   6.560   5.879  15.944  0.4769  0.1255 -0.6995
 4655TIP3    H135380   6.541   5.804  15.887  1.1608 -1.0118  0.5329
 4655TIP3    H235381   6.521   5.855  16.028  2.1530  0.4008  0.1731
 4656TIP3   OH235382   4.378   6.579   6.108 -0.5469  0.4598 -0.4004
 4656TIP3    H135383   4.473   6.573   6.113 -0.4689  2.0808  0.4979
 4656TIP3    H235384   4.361   6.669   6.081 -1.8477  0.4379  0.2895
 4657TIP3   OH235385   6.619   1.159  11.309 -0.1703 -0.0441 -0.2646
 4657TIP3    H135386   6.632   1.077  11.262 -1.6136 -0.2497 -0.3192
 4657TIP3    H235387   6.632   1.137  11.401 -1.5576 -0.5737 -0.1802
 4658TIP3   OH235388   6.221   2.975   3.644 -0.1980 -0.1822  0.0608
 4658TIP3    H135389   6.222   3.058   3.692  0.9897 -0.6591  0.8613
 4658TIP3    H235390   6.132   2.970   3.608 -0.2624  1.4616 -0.0430
 4659TIP3   OH235391   0.927   5.523   4.097 -0.6378  0.6756  0.6672
 4659TIP3    H135392   0.993   5.547   4.162  0.5803 -1.3775  0.2562
 4659TIP3    H235393   0.974   5.526   4.013 -0.5411 -2.3773  0.5325
 4660TIP3   OH235394   2.279   4.213  14.099 -0.2401  0.0280  0.2124
 4660TIP3    H135395   2.213   4.148  14.075  0.0800 -1.1007  2.2137
 4660TIP3    H235396   2.237   4.265  14.168  0.1552  0.7749 -0.1072
 4661TIP3   OH235397   4.438   2.027   2.233  0.3382 -0.9548  0.9260
 4661TIP3    H135398   4.512   1.968   2.236 -0.1659 -1.5166  3.1575
 4661TIP3    H235399   4.379   1.995   2.301 -1.5424  0.0133 -0.2033
 4662TIP3   OH235400   6.205   1.015  13.036  0.3902 -0.4361  0.3166
 4662TIP3    H135401   6.268   1.013  13.108  0.2817 -0.4630  0.4119
 4662TIP3    H235402   6.260   1.017  12.957  0.5154  0.7464  0.4187
 4663TIP3   OH235403   2.006   3.638   3.042 -0.2944  0.2663  0.5967
 4663TIP3    H135404   1.929   3.588   3.069 -0.6306  0.4615 -0.0004
 4663TIP3    H235405   1.981   3.678   2.959 -0.4463  2.3608  1.6109
 4664TIP3   OH235406   3.718   2.908   2.011  0.0323  0.1648  0.0218
 4664TIP3    H135407   3.700   2.829   1.960 -3.0623  0.9286 -0.1502
 4664TIP3    H235408   3.659   2.974   1.975  0.6207  1.8032  1.9856
 4665TIP3   OH235409   1.653   1.293  16.954  0.1660 -0.4846 -0.3484
 4665TIP3    H135410   1.676   1.324  17.042 -0.0692 -0.9545 -0.1249
 4665TIP3    H235411   1.735   1.258  16.918  0.3280 -0.0369 -0.4318
 4666TIP3   OH235412   0.523   0.470   5.986  0.0607  0.3635 -0.1479
 4666TIP3    H135413   0.617   0.452   5.978 -0.5894 -3.0886 -0.9769
 4666TIP3    H235414   0.488   0.397   6.037 -2.1424  1.7995  0.5026
 4667TIP3   OH235415   0.072   2.538  17.026  0.2291  0.0174 -0.0893
 4667TIP3    H135416   0.038   2.546  17.115  0.0240  1.0840 -0.2683
 4667TIP3    H235417   0.003   2.574  16.970  1.2085  1.2466 -0.5202
 4668TIP3   OH235418   3.526   5.669   2.375  0.1158 -0.3793 -0.3534
 4668TIP3    H135419   3.604   5.665   2.320  0.0209  0.1718 -0.5326
 4668TIP3    H235420   3.559   5.693   2.461 -0.2052  3.7302 -1.2614
 4669TIP3   OH235421   1.283   5.616  10.512  0.3267 -0.2256  0.7254
 4669TIP3    H135422   1.240   5.584  10.591 -0.1007  1.1800  1.0820
 4669TIP3    H235423   1.277   5.711  10.519  0.2215 -0.0899 -1.0415
 4670TIP3   OH235424   1.781   4.017  12.936 -0.1219  0.3645  0.0431
 4670TIP3    H135425   1.741   3.931  12.945  0.1019  0.1894 -0.6311
 4670TIP3    H235426   1.713   4.071  12.895 -0.5028  0.6872  1.1006
 4671TIP3   OH235427   5.288   4.465  11.946 -0.6709 -0.1387 -0.9055
 4671TIP3    H135428   5.202   4.466  11.988 -0.1632 -0.1221  0.1595
 4671TIP3    H235429   5.284   4.534  11.880 -0.6245  1.6926  0.9317
 4672TIP3   OH235430   6.629   3.805  12.883 -1.0143 -0.3688  0.4482
 4672TIP3    H135431   6.703   3.850  12.842  0.2399 -1.4634  1.4383
 4672TIP3    H235432   6.568   3.875  12.907 -0.3006  0.5514 -0.3897
 4673TIP3   OH235433   0.160   5.489  15.153  0.6391  0.0522 -0.6615
 4673TIP3    H135434   0.094   5.558  15.160  0.2624 -0.1952 -1.6248
 4673TIP3    H235435   0.243   5.533  15.168  0.2094  0.2488  1.1816
 4674TIP3   OH235436   2.576   0.693  13.116  0.7124 -0.2892 -0.2589
 4674TIP3    H135437   2.535   0.629  13.173  0.6284  0.7399  0.8512
 4674TIP3    H235438   2.649   0.646  13.076  2.6939 -0.1861  3.0643
 4675TIP3   OH235439   1.286   3.418   5.692 -0.1989  0.3610  0.1720
 4675TIP3    H135440   1.225   3.362   5.740 -0.5145 -1.1321 -1.8918
 4675TIP3    H235441   1.281   3.503   5.736 -1.1043 -0.7143  2.2042
 4676TIP3   OH235442   1.360   6.620  11.625 -0.5156 -0.5897  0.3634
 4676TIP3    H135443   1.371   6.572  11.543 -0.5902 -0.6880  0.4104
 4676TIP3    H235444   1.336   6.554  11.689 -0.3112 -0.5343  0.4967
 4677TIP3   OH235445   4.887   5.501   3.288 -0.0002 -0.0185  0.0458
 4677TIP3    H135446   4.885   5.596   3.294 -2.2296 -0.0867  0.8390
 4677TIP3    H235447   4.833   5.481   3.211  0.4102 -0.6558 -0.0829
 4678TIP3   OH235448   4.959   2.324   5.203  0.5423 -0.0101  0.0786
 4678TIP3    H135449   4.986   2.311   5.112 -0.7547 -1.6185 -0.1136
 4678TIP3    H235450   4.887   2.387   5.199  0.5168 -0.0454 -0.0096
 4679TIP3   OH235451   5.672   3.065  15.603 -0.0714  0.4960 -0.4073
 4679TIP3    H135452   5.652   3.157  15.617 -0.5189  0.4849 -0.9561
 4679TIP3    H235453   5.709   3.035  15.686  0.3135  1.2319 -0.3183
 4680TIP3   OH235454   3.716   3.524   5.154  0.0553 -0.4890  0.2987
 4680TIP3    H135455   3.721   3.595   5.091 -2.7519 -1.9641 -1.6592
 4680TIP3    H235456   3.787   3.464   5.129  0.2939 -0.0379 -0.1115
 4681TIP3   OH235457   4.623   1.830   6.433 -0.4463  0.0218 -0.0261
 4681TIP3    H135458   4.709   1.790   6.426 -0.2628  0.3202  0.5040
 4681TIP3    H235459   4.629   1.911   6.383 -1.2402 -1.2859 -2.2957
 4682TIP3   OH235460   5.758   1.651   2.270 -0.1664 -0.4449  0.1455
 4682TIP3    H135461   5.664   1.669   2.279 -0.6572  0.2507 -4.7066
 4682TIP3    H235462   5.801   1.717   2.323 -2.3895 -0.0917  1.5645
 4683TIP3   OH235463   1.327   2.331   4.096 -0.4411 -0.4547 -0.0430
 4683TIP3    H135464   1.252   2.313   4.153 -1.7224 -0.1880 -1.6050
 4683TIP3    H235465   1.386   2.257   4.109 -1.6772 -1.4272  0.0707
 4684TIP3   OH235466   0.103   1.267   0.339  0.2170  0.3107 -0.1210
 4684TIP3    H135467   0.136   1.189   0.293 -0.2258  0.9777 -1.5928
 4684TIP3    H235468   0.009   1.252   0.348 -0.0237  1.0704 -1.2333
 4685TIP3   OH235469   5.848   1.780  14.166  0.0090  0.4317 -0.3311
 4685TIP3    H135470   5.874   1.720  14.236  1.7852 -0.3852 -1.6358
 4685TIP3    H235471   5.842   1.724  14.088  1.5093  1.8764 -1.5209
 4686TIP3   OH235472   3.470   2.124   1.697  0.1090  0.4119 -0.5315
 4686TIP3    H135473   3.402   2.074   1.742 -1.1159  1.6626 -0.9667
 4686TIP3    H235474   3.451   2.111   1.604  1.2522 -0.2824 -0.6811
 4687TIP3   OH235475   6.730   5.267  14.479  0.3939 -1.1269 -0.3163
 4687TIP3    H135476   6.709   5.191  14.426  0.6790 -1.5465  0.1719
 4687TIP3    H235477   6.746   5.232  14.567 -1.4893 -0.2763  0.3931
 4688TIP3   OH235478   5.555   2.142  13.166 -0.1600 -0.4361 -0.1284
 4688TIP3    H135479   5.531   2.233  13.182 -0.9277 -0.6938  0.1927
 4688TIP3    H235480   5.610   2.145  13.087  3.1820  0.7764  2.1189
 4689TIP3   OH235481   3.586   4.318   1.449 -0.4776  0.4340  0.0599
 4689TIP3    H135482   3.554   4.233   1.420 -1.6242 -0.3130  3.2188
 4689TIP3    H235483   3.681   4.306   1.458 -0.3861  0.0817 -1.3677
 4690TIP3   OH235484   4.879   2.089   5.468 -0.2472 -0.1912  0.6698
 4690TIP3    H135485   4.955   2.115   5.417 -0.9159  2.1822  0.7937
 4690TIP3    H235486   4.821   2.166   5.465 -3.2698 -2.4267 -0.5953
 4691TIP3   OH235487   2.388   4.865  11.501  0.1878  0.3726  0.6835
 4691TIP3    H135488   2.378   4.943  11.447 -0.0946  0.6167  1.0859
 4691TIP3    H235489   2.335   4.798  11.456  1.5968  0.0028 -0.4475
 4692TIP3   OH235490   0.667   0.260  17.133 -0.2545 -0.0819 -0.3403
 4692TIP3    H135491   0.763   0.265  17.134 -0.2253 -0.5551 -0.4742
 4692TIP3    H235492   0.638   0.348  17.157  0.2028  0.4265 -1.6182
 4693TIP3   OH235493   2.577   5.222  11.526  0.7114 -0.7679  0.3845
 4693TIP3    H135494   2.580   5.192  11.617  1.5018  0.4824  0.7751
 4693TIP3    H235495   2.523   5.301  11.529 -0.5389 -1.5750 -0.4871
 4694TIP3   OH235496   1.914   3.033  13.438 -0.6206 -0.0540  0.2932
 4694TIP3    H135497   1.893   3.115  13.483 -0.9644 -0.6267  1.1946
 4694TIP3    H235498   1.918   3.056  13.345 -2.6962  0.6047  0.3459
 4695TIP3   OH235499   6.359   0.032   3.560 -0.2130  0.1539 -0.5641
 4695TIP3    H135500   6.383  -0.040   3.501  0.1963  0.9828 -1.4157
 4695TIP3    H235501   6.265   0.021   3.575  0.0228 -1.1220  0.0921
 4696TIP3   OH235502   0.381   0.669   2.920 -0.6521 -0.4517  0.7392
 4696TIP3    H135503   0.348   0.604   2.858 -1.9776  0.4116  0.5264
 4696TIP3    H235504   0.448   0.717   2.871 -1.3743 -0.0740  0.1163
 4697TIP3   OH235505   5.661   5.011   0.387 -0.4325 -0.4011  0.8789
 4697TIP3    H135506   5.633   4.920   0.390  2.0222 -1.1453  1.6290
 4697TIP3    H235507   5.590   5.059   0.430 -1.3936 -2.0297  1.1382
 4698TIP3   OH235508   6.399   5.214   5.580 -0.1522  0.6056 -0.5425
 4698TIP3    H135509   6.383   5.123   5.607 -0.9672  0.2113 -2.2869
 4698TIP3    H235510   6.311   5.249   5.562  0.0011  2.2486  1.5923
 4699TIP3   OH235511   0.135   4.520   4.381 -0.5517  0.3638 -0.1150
 4699TIP3    H135512   0.052   4.473   4.386  0.9110 -2.2397  0.1698
 4699TIP3    H235513   0.116   4.596   4.326 -3.2599  0.1172  0.4226
 4700TIP3   OH235514   5.868   0.972  13.377 -0.1207 -0.1285 -0.0417
 4700TIP3    H135515   5.812   0.919  13.433  1.5384  0.1783  2.0015
 4700TIP3    H235516   5.947   0.918  13.365  0.6659  0.9312  0.2386
 4701TIP3   OH235517   5.935   6.538   3.526 -0.1926  0.0423  0.7603
 4701TIP3    H135518   6.014   6.543   3.579  0.5994 -0.0736 -0.3997
 4701TIP3    H235519   5.887   6.619   3.546  1.2535  1.1488 -0.1586
 4702TIP3   OH235520   6.364   1.176   0.445 -0.4069 -0.8108  0.0320
 4702TIP3    H135521   6.318   1.096   0.417 -1.1127 -0.1225 -0.8178
 4702TIP3    H235522   6.324   1.245   0.393  1.1850 -0.1056 -0.2796
 4703TIP3   OH235523   6.610   3.494   3.625  0.8543 -0.3270  0.1888
 4703TIP3    H135524   6.685   3.499   3.567  0.5812 -0.1543 -0.1522
 4703TIP3    H235525   6.614   3.406   3.662  1.3247 -0.2558  0.3104
 4704TIP3   OH235526   5.969   0.886  16.130 -0.2744  0.0739 -0.4581
 4704TIP3    H135527   6.018   0.886  16.048  1.1914 -0.9987  0.3814
 4704TIP3    H235528   6.030   0.851  16.195 -2.0598 -1.0128  0.6931
 4705TIP3   OH235529   6.042   6.727   4.027 -0.3309 -0.3230 -0.4675
 4705TIP3    H135530   5.966   6.776   4.060  0.3203  1.3366 -1.3760
 4705TIP3    H235531   6.009   6.638   4.015 -1.5296 -0.1333  1.2749
 4706TIP3   OH235532   5.503   2.337  14.302 -0.7602 -0.6227 -0.1866
 4706TIP3    H135533   5.511   2.242  14.312 -2.1320 -0.6977  0.2586
 4706TIP3    H235534   5.442   2.349  14.229 -0.0556 -0.0739 -0.6941
 4707TIP3   OH235535   4.341   3.940  14.730 -0.2657 -0.2722 -0.0015
 4707TIP3    H135536   4.306   3.980  14.650 -1.9644 -1.6317  0.0312
 4707TIP3    H235537   4.274   3.955  14.796  0.2464 -0.8990  0.6743
 4708TIP3   OH235538   1.365   0.728   4.663  0.4488 -0.3933  0.4869
 4708TIP3    H135539   1.302   0.724   4.735  1.1557 -2.2221  1.0377
 4708TIP3    H235540   1.450   0.712   4.704  0.9821 -0.4270 -0.6066
 4709TIP3   OH235541   2.787   3.916   4.153  0.2096 -0.3113 -0.2985
 4709TIP3    H135542   2.877   3.889   4.171  0.1518 -0.7371 -0.6519
 4709TIP3    H235543   2.755   3.853   4.088  0.7294  1.7451 -2.6419
 4710TIP3   OH235544   6.184   6.482   4.912  0.0196 -0.4238 -0.0296
 4710TIP3    H135545   6.147   6.570   4.917  3.3826  0.9985  0.8078
 4710TIP3    H235546   6.141   6.434   4.984 -2.7853  0.0785 -1.2972
 4711TIP3   OH235547   4.869   6.327   5.610  0.5588  0.3778 -0.0461
 4711TIP3    H135548   4.872   6.421   5.593  1.9172  0.3367 -0.1116
 4711TIP3    H235549   4.821   6.319   5.692 -0.5048  1.0438 -0.5962
 4712TIP3   OH235550   4.006   6.704   5.156  0.1736  0.8621 -0.3202
 4712TIP3    H135551   3.916   6.692   5.186  0.0295 -0.2796 -1.1630
 4712TIP3    H235552   4.003   6.683   5.063  1.0222  2.2835 -0.6813
 4713TIP3   OH235553   6.360   5.163  16.880 -0.0856 -0.4383  0.1308
 4713TIP3    H135554   6.392   5.182  16.968  1.8020 -0.4013 -0.5419
 4713TIP3    H235555   6.359   5.068  16.874  3.9269 -0.5010 -1.2011
 4714TIP3   OH235556   5.203   2.439   2.836  0.0078  0.6061 -0.0705
 4714TIP3    H135557   5.184   2.475   2.923 -1.9783 -1.0783  0.2295
 4714TIP3    H235558   5.287   2.395   2.846  0.0810  0.9406  0.8287
 4715TIP3   OH235559   6.474   5.424  17.081  0.0279  0.3111  0.2096
 4715TIP3    H135560   6.469   5.370  17.159  0.1725 -2.0509 -1.3776
 4715TIP3    H235561   6.385   5.423  17.045  0.7609 -1.7534 -1.6729
 4716TIP3   OH235562   4.489   0.807  11.154  0.2335 -0.1544 -0.3122
 4716TIP3    H135563   4.462   0.850  11.073 -0.5508  0.3414  0.1971
 4716TIP3    H235564   4.553   0.741  11.127 -1.1475 -1.0470 -1.5245
 4717TIP3   OH235565   6.252   3.854   0.414 -0.1938  0.8623 -0.0976
 4717TIP3    H135566   6.228   3.814   0.331 -0.4783  0.3659  0.2203
 4717TIP3    H235567   6.348   3.859   0.412 -0.1181 -0.3388  0.0849
 4718TIP3   OH235568   3.932   6.450  14.466  0.0050 -0.6495  0.0310
 4718TIP3    H135569   3.907   6.385  14.402 -1.5325  2.0935 -2.2625
 4718TIP3    H235570   3.857   6.456  14.526 -0.0053 -0.7356  0.0248
 4719TIP3   OH235571   4.045   4.967  12.088  0.3543 -0.5637  0.1310
 4719TIP3    H135572   4.021   4.893  12.032  0.9200 -0.0363 -0.8206
 4719TIP3    H235573   4.081   4.926  12.167 -0.4241 -1.3115  0.0990
 4720TIP3   OH235574   4.325   5.422  12.027  0.2003  0.2778  0.5300
 4720TIP3    H135575   4.253   5.362  12.047 -1.1779  1.1040 -1.7896
 4720TIP3    H235576   4.314   5.495  12.088 -1.3946  0.7519 -0.3012
 4721TIP3   OH235577   4.924   0.919  13.587 -0.1691  0.5182 -0.4687
 4721TIP3    H135578   4.975   0.997  13.605 -2.0442  1.6059  0.2656
 4721TIP3    H235579   4.896   0.929  13.496  0.7720 -0.0010 -0.8197
 4722TIP3   OH235580   2.047   1.879  12.808 -0.6388 -0.3124  0.2337
 4722TIP3    H135581   2.136   1.847  12.797 -0.0021  0.7352  2.0657
 4722TIP3    H235582   1.998   1.838  12.737  1.7663  0.9584 -2.2382
 4723TIP3   OH235583   3.127   3.344  13.093 -0.2376  0.4672  0.5465
 4723TIP3    H135584   3.221   3.338  13.112 -0.3809  0.4664  1.2510
 4723TIP3    H235585   3.121   3.325  12.999  0.5025  0.8078  0.4216
 4724TIP3   OH235586   0.851   1.402  13.516  0.1097  0.8197 -0.5896
 4724TIP3    H135587   0.781   1.358  13.564  0.7384  0.9002  0.4111
 4724TIP3    H235588   0.924   1.339  13.517  1.1321  2.0108  1.1493
 4725TIP3   OH235589   5.813   4.169  16.860 -0.0234  0.3276  0.8553
 4725TIP3    H135590   5.817   4.123  16.944  0.5650 -1.1787  0.0132
 4725TIP3    H235591   5.883   4.234  16.865 -2.2433  2.6678  2.9094
 4726TIP3   OH235592   4.227   0.115  13.560 -0.2389  0.3102  0.2595
 4726TIP3    H135593   4.188   0.202  13.572 -0.1386  0.4325 -0.2624
 4726TIP3    H235594   4.172   0.056  13.611 -0.6855  0.5879  0.1017
 4727TIP3   OH235595   1.928   5.516  11.600 -0.7650 -0.1052 -0.9487
 4727TIP3    H135596   1.891   5.590  11.649  2.2814 -0.9213  2.8236
 4727TIP3    H235597   1.878   5.440  11.629 -0.1957 -0.3193 -0.5126
 4728TIP3   OH235598   5.374   1.300  11.107  0.1384 -0.4436  0.0753
 4728TIP3    H135599   5.393   1.390  11.135  0.5594  0.2409 -2.3608
 4728TIP3    H235600   5.457   1.268  11.072  0.1294 -1.9952  1.3941
 4729TIP3   OH235601   1.455   1.280   1.949  0.6873 -0.3813 -0.1153
 4729TIP3    H135602   1.533   1.250   1.904  1.2970  2.6560 -1.1755
 4729TIP3    H235603   1.399   1.315   1.880 -1.1358 -1.4862  0.7658
 4730TIP3   OH235604   6.145   0.596  14.449 -0.0943 -0.0879 -0.0934
 4730TIP3    H135605   6.199   0.585  14.527  1.1825  0.0805 -0.9494
 4730TIP3    H235606   6.061   0.627  14.482  0.3297 -0.3491  1.2437
 4731TIP3   OH235607   6.298   0.894   2.537  0.4306  0.0820  0.1051
 4731TIP3    H135608   6.259   0.822   2.586  2.1851 -0.1804  1.1671
 4731TIP3    H235609   6.260   0.973   2.575  1.1598 -0.1569  1.3584
 4732TIP3   OH235610   1.908   0.226  17.137 -0.0237 -0.4214  0.3837
 4732TIP3    H135611   1.936   0.287  17.069  0.4809 -0.9763  0.0913
 4732TIP3    H235612   1.866   0.281  17.203 -1.0714  0.0585 -0.6557
 4733TIP3   OH235613   5.322   4.400   1.471  0.6499  0.0893  0.2865
 4733TIP3    H135614   5.282   4.360   1.548 -1.9666  2.2137  0.1243
 4733TIP3    H235615   5.372   4.475   1.505 -0.7220  1.1854 -0.0467
 4734TIP3   OH235616   3.554   0.467  14.151 -0.0189  0.5534  0.1189
 4734TIP3    H135617   3.494   0.392  14.152  0.2745  0.2751 -1.0281
 4734TIP3    H235618   3.541   0.506  14.064  1.7306  0.2402 -0.3079
 4735TIP3   OH235619   5.869   5.045  16.254 -0.3356  0.4162  0.1011
 4735TIP3    H135620   5.870   5.021  16.347  0.3474 -1.9684 -0.4997
 4735TIP3    H235621   5.779   5.074  16.237 -0.1412  2.1342  1.7871
 4736TIP3   OH235622   6.229   4.038  11.928  0.6188 -0.2156 -0.3104
 4736TIP3    H135623   6.227   4.068  12.019  0.9831  1.4501 -0.8429
 4736TIP3    H235624   6.299   3.974  11.925  0.1625 -0.7702  0.7387
 4737TIP3   OH235625   3.960   1.644  16.000 -0.4042 -0.7257 -0.1616
 4737TIP3    H135626   4.051   1.660  15.974 -0.1595 -0.7964  0.6294
 4737TIP3    H235627   3.950   1.690  16.083 -1.5868  0.6676 -1.0536
 4738TIP3   OH235628   6.100   5.164   1.110 -0.0194  0.1086 -0.1293
 4738TIP3    H135629   6.109   5.074   1.142 -1.3266 -0.3516 -1.0378
 4738TIP3    H235630   6.121   5.158   1.017 -0.3200  0.7140 -0.2331
 4739TIP3   OH235631   1.946   0.525   1.021 -0.1426 -0.2905 -0.1377
 4739TIP3    H135632   1.852   0.545   1.013  0.0457  0.0755 -1.6066
 4739TIP3    H235633   1.957   0.445   0.969  0.4799  0.0339 -0.5047
 4740TIP3   OH235634   1.901   4.312   6.301  0.3660 -0.1046  0.2599
 4740TIP3    H135635   1.853   4.390   6.271 -2.5000 -2.0030 -0.3243
 4740TIP3    H235636   1.927   4.268   6.220 -2.0450 -2.0922  0.5221
 4741TIP3   OH235637   0.106   5.048   1.050  0.2119  0.4620 -0.3355
 4741TIP3    H135638   0.050   5.101   0.994  0.0026 -0.2122 -0.7739
 4741TIP3    H235639   0.045   5.005   1.111  0.1569 -0.8856 -1.3187
 4742TIP3   OH235640   3.277   3.656   4.672  0.0356 -0.2651  0.1918
 4742TIP3    H135641   3.259   3.745   4.702  0.0971 -0.8691  2.0785
 4742TIP3    H235642   3.191   3.615   4.662 -0.0039  0.0624 -0.9169
 4743TIP3   OH235643   2.865   3.216  14.118 -0.0756 -0.0778  0.3332
 4743TIP3    H135644   2.941   3.166  14.088 -0.5041 -0.1915 -0.5866
 4743TIP3    H235645   2.790   3.160  14.097 -0.4808  0.4696  0.3029
 4744TIP3   OH235646   2.111   4.763   0.854  0.1651 -0.1032  0.0201
 4744TIP3    H135647   2.016   4.773   0.854  0.4681  3.4176 -0.0687
 4744TIP3    H235648   2.135   4.755   0.946 -0.2588 -1.9128 -0.0060
 4745TIP3   OH235649   4.114   5.657  12.573  0.1858 -0.7228 -0.0089
 4745TIP3    H135650   4.021   5.669  12.592 -0.2541  0.2870 -2.5042
 4745TIP3    H235651   4.115   5.607  12.492  1.7871  0.2486 -0.6075
 4746TIP3   OH235652   1.325   6.655   0.792  0.5839  0.4779 -0.5157
 4746TIP3    H135653   1.294   6.606   0.716  0.5691  0.2695 -0.3774
 4746TIP3    H235654   1.408   6.692   0.765  1.4382 -1.0475 -0.0620
 4747TIP3   OH235655   4.407   1.525   5.487 -0.1860 -0.1205 -0.4054
 4747TIP3    H135656   4.465   1.547   5.559  2.0025 -1.0246 -1.8224
 4747TIP3    H235657   4.402   1.604   5.434 -1.7456  0.5244  0.6951
 4748TIP3   OH235658   2.122   4.227  15.536  0.4058  0.0327  0.4335
 4748TIP3    H135659   2.201   4.267  15.500 -0.1146  1.0443  0.3971
 4748TIP3    H235660   2.071   4.201  15.459  1.3464 -1.9741  0.4386
 4749TIP3   OH235661   6.489   2.465  13.043 -0.1241  0.3790  0.0195
 4749TIP3    H135662   6.562   2.425  13.090  0.1737 -1.7756 -2.1851
 4749TIP3    H235663   6.411   2.425  13.081 -0.0346  0.6511  0.5002
 4750TIP3   OH235664   4.139   4.973  16.912  0.0840  0.4898  0.1370
 4750TIP3    H135665   4.072   5.038  16.889  0.0357  0.4667  0.2134
 4750TIP3    H235666   4.205   5.022  16.961  0.5252  0.6786 -0.6394
 4751TIP3   OH235667   5.764   4.818  10.715  0.2924 -0.4438 -0.2786
 4751TIP3    H135668   5.801   4.755  10.653 -2.1925 -0.8593 -1.4220
 4751TIP3    H235669   5.750   4.768  10.795  1.0820 -0.5831 -0.2266
 4752TIP3   OH235670   2.428   2.093  12.969 -0.5256  0.0099  0.0626
 4752TIP3    H135671   2.498   2.154  12.943  0.9673 -1.6431  0.0937
 4752TIP3    H235672   2.410   2.044  12.889 -1.9016  0.6446 -0.0234
 4753TIP3   OH235673   2.786   2.255  11.670  0.2126 -0.1141 -0.5420
 4753TIP3    H135674   2.835   2.177  11.645  0.5334 -0.0791 -0.0317
 4753TIP3    H235675   2.796   2.314  11.596  0.1715 -0.4670 -0.8303
 4754TIP3   OH235676   3.259   4.250  10.984  0.5043  0.1989  0.4929
 4754TIP3    H135677   3.285   4.335  11.019 -0.7105  0.2324  1.3344
 4754TIP3    H235678   3.296   4.248  10.896  0.6275  1.5477  0.5103
 4755TIP3   OH235679   5.401   3.062   0.002 -0.2351 -0.3479  0.4905
 4755TIP3    H135680   5.406   3.055  -0.094 -0.0458 -1.2262  0.5555
 4755TIP3    H235681   5.471   3.004   0.033 -0.9879 -0.8867  1.1858
 4756TIP3   OH235682   1.106   3.200   0.802  0.4409 -0.6582  0.1901
 4756TIP3    H135683   1.114   3.267   0.870  0.5017 -2.6051  2.1640
 4756TIP3    H235684   1.082   3.120   0.850 -0.0020 -1.9640 -2.1446
 4757TIP3   OH235685   1.733   1.448  13.627  0.3128 -0.4545  0.4032
 4757TIP3    H135686   1.754   1.407  13.543 -0.6857 -0.7440  0.2858
 4757TIP3    H235687   1.810   1.432  13.681  2.0529  2.0260 -1.2810
 4758TIP3   OH235688   0.634   0.111  11.780 -0.1082  0.0670 -0.0360
 4758TIP3    H135689   0.675   0.038  11.734 -1.3106 -0.3631 -0.4244
 4758TIP3    H235690   0.671   0.189  11.739 -1.8113 -0.3080 -2.3421
 4759TIP3   OH235691   0.148   3.786   5.063 -0.1346 -0.3673  0.2111
 4759TIP3    H135692   0.182   3.777   4.973 -0.5269 -1.4854  0.1714
 4759TIP3    H235693   0.151   3.698   5.099  1.8664  0.3715  1.9818
 4760TIP3   OH235694   2.240   0.330  17.005 -0.1176 -0.8006 -0.2435
 4760TIP3    H135695   2.258   0.243  16.969  2.4828  0.2707 -1.6983
 4760TIP3    H235696   2.314   0.349  17.062 -1.7528 -0.4129  1.8112
 4761TIP3   OH235697   5.179   4.153  12.865 -0.1947  0.1868  0.6313
 4761TIP3    H135698   5.112   4.220  12.881  0.9739  1.3426  0.7362
 4761TIP3    H235699   5.256   4.202  12.837  1.0412 -1.0065  1.8693
 4762TIP3   OH235700   3.927   6.525  16.818 -0.1777 -0.1623  0.7342
 4762TIP3    H135701   3.855   6.470  16.848  0.9999 -3.3950 -2.0934
 4762TIP3    H235702   3.891   6.572  16.743 -0.3131  0.8168  1.3962
 4763TIP3   OH235703   1.544   3.382   2.902  0.0135 -0.0875  0.3215
 4763TIP3    H135704   1.615   3.340   2.853  0.4392 -0.7978  1.5367
 4763TIP3    H235705   1.581   3.464   2.933  0.5107 -0.7182  1.4430
 4764TIP3   OH235706   4.037   1.125   1.370  0.0172  0.0722  0.6936
 4764TIP3    H135707   3.989   1.199   1.407 -0.1317  0.6458 -0.6029
 4764TIP3    H235708   3.979   1.092   1.300 -1.3675 -3.2902  3.3100
 4765TIP3   OH235709   2.803   1.658   4.524  0.2192 -0.3479  0.0770
 4765TIP3    H135710   2.786   1.565   4.509  3.1379 -0.9744  0.3742
 4765TIP3    H235711   2.826   1.693   4.438  0.1895 -0.1400  0.1538
 4766TIP3   OH235712   2.200   5.939  11.630  0.0685  0.0501  0.1059
 4766TIP3    H135713   2.118   5.967  11.671 -0.6520 -0.3932 -1.0050
 4766TIP3    H235714   2.266   5.950  11.698 -0.7738  1.2282  0.7457
 4767TIP3   OH235715   0.787   4.639  14.530 -0.1871  0.3293  0.4126
 4767TIP3    H135716   0.838   4.646  14.611 -0.8709 -0.2965  0.9079
 4767TIP3    H235717   0.843   4.676  14.462  0.7657  0.0098  1.0202
 4768TIP3   OH235718   6.427   4.048   1.260  0.1088 -0.3036 -0.0129
 4768TIP3    H135719   6.434   3.954   1.272  0.6814 -0.4137 -1.1140
 4768TIP3    H235720   6.366   4.077   1.328 -0.6082 -1.5624 -0.1073
 4769TIP3   OH235721   3.370   0.858   3.907 -0.0362 -0.0732  0.1889
 4769TIP3    H135722   3.392   0.948   3.884  0.7413 -0.4953 -0.7577
 4769TIP3    H235723   3.448   0.823   3.950  0.0793 -0.6307 -0.4538
 4770TIP3   OH235724   3.947   1.721  10.137  0.0430 -0.3587 -1.1496
 4770TIP3    H135725   4.039   1.731  10.159 -0.3665 -0.9536  0.9663
 4770TIP3    H235726   3.924   1.633  10.168 -1.4513  0.1368 -0.7782
 4771TIP3   OH235727   4.702   5.226  16.295  0.0478 -0.2072 -0.0597
 4771TIP3    H135728   4.693   5.177  16.213 -0.0772  1.3497 -0.9884
 4771TIP3    H235729   4.625   5.202  16.346 -0.5060 -0.2371 -0.9047
 4772TIP3   OH235730   0.994   2.276  15.711  0.1159 -0.3233 -0.1802
 4772TIP3    H135731   0.993   2.317  15.624  0.5304 -1.8594 -0.9343
 4772TIP3    H235732   1.080   2.234  15.717  1.2016  2.0545  2.1052
 4773TIP3   OH235733   5.740   0.175  14.233 -0.1123 -0.3149 -0.7044
 4773TIP3    H135734   5.675   0.241  14.259  0.3854  0.1494 -0.6336
 4773TIP3    H235735   5.688   0.098  14.211 -0.5249 -1.1580  2.8813
 4774TIP3   OH235736   5.707   6.742  10.701 -0.2441 -0.3158  0.2984
 4774TIP3    H135737   5.750   6.825  10.723  0.5605 -1.0280  1.4592
 4774TIP3    H235738   5.779   6.681  10.684 -0.8334 -0.7108 -0.8640
 4775TIP3   OH235739   1.901   3.640   4.590  0.2757  0.6144 -0.4580
 4775TIP3    H135740   1.918   3.697   4.665 -1.1178 -0.3724  0.6530
 4775TIP3    H235741   1.825   3.680   4.547  0.1239  0.3276 -0.4547
 4776TIP3   OH235742   2.884   1.318  16.349 -0.3085 -0.3988 -0.0383
 4776TIP3    H135743   2.840   1.312  16.434 -2.0417 -0.6277 -0.9475
 4776TIP3    H235744   2.977   1.329  16.372 -0.7777 -0.2088  1.8860
 4777TIP3   OH235745   2.647   6.095  14.055 -0.2093  0.0830  0.0253
 4777TIP3    H135746   2.583   6.161  14.028 -0.5567 -0.6123 -0.8778
 4777TIP3    H235747   2.623   6.017  14.005  0.7243 -0.4761  0.4439
 4778TIP3   OH235748   1.985   5.511   0.638 -0.1716 -0.7172  0.5719
 4778TIP3    H135749   2.060   5.539   0.692 -0.5104 -0.8340  1.1076
 4778TIP3    H235750   2.024   5.457   0.569  0.6238  1.7825 -1.0246
 4779TIP3   OH235751   0.988   1.150  16.014  0.2265  0.1176  0.0936
 4779TIP3    H135752   0.913   1.108  16.056  1.5579 -1.0552  1.3580
 4779TIP3    H235753   1.056   1.150  16.080  1.1335  1.8258 -0.8092
 4780TIP3   OH235754   3.067   1.295  14.678 -0.1366  0.3287  0.6890
 4780TIP3    H135755   2.974   1.301  14.698 -0.7700 -1.2542 -1.6625
 4780TIP3    H235756   3.088   1.202  14.688  1.2571  0.7033  1.4403
 4781TIP3   OH235757   3.912   3.271   2.400  0.6091  0.1276  0.8904
 4781TIP3    H135758   3.926   3.201   2.464  1.0428 -1.1528 -0.5646
 4781TIP3    H235759   3.817   3.282   2.396  0.5146 -0.6959  0.8037
 4782TIP3   OH235760   1.225   0.477  11.309 -0.0119  0.3339  0.1203
 4782TIP3    H135761   1.249   0.391  11.274 -0.0795 -0.0048  0.8871
 4782TIP3    H235762   1.228   0.535  11.234 -1.6526 -0.6720 -0.7764
 4783TIP3   OH235763   0.281   5.642  14.815 -0.1256 -1.1768  0.2878
 4783TIP3    H135764   0.376   5.632  14.810  0.1238  1.3012 -0.3631
 4783TIP3    H235765   0.254   5.575  14.878  2.3928  0.1576  2.8757
 4784TIP3   OH235766   5.681   3.011  13.356  0.0934 -0.7648  0.0666
 4784TIP3    H135767   5.700   2.919  13.339  2.0807 -0.1463 -1.1559
 4784TIP3    H235768   5.752   3.059  13.314 -0.3711  1.3007  1.5431
 4785TIP3   OH235769   4.506   1.128  11.827 -0.4213 -0.2516 -0.0783
 4785TIP3    H135770   4.425   1.174  11.849 -0.2787 -0.5685  1.1604
 4785TIP3    H235771   4.560   1.193  11.783  0.4057  1.2326  3.0532
 4786TIP3   OH235772   2.604   3.632  10.372  0.1985  0.2242 -0.0084
 4786TIP3    H135773   2.687   3.624  10.325  0.5786  2.2735  0.2595
 4786TIP3    H235774   2.626   3.680  10.452 -1.3143  1.1904 -0.1582
 4787TIP3   OH235775   3.321   4.120   5.381  0.4848 -0.2423  0.9031
 4787TIP3    H135776   3.250   4.090   5.324  0.2596 -0.8133  1.4796
 4787TIP3    H235777   3.398   4.072   5.350  0.5370  0.0894  0.5246
 4788TIP3   OH235778   4.333   0.814   4.591  0.2423 -0.1893 -0.4272
 4788TIP3    H135779   4.396   0.764   4.643  0.5031 -1.0971 -1.6161
 4788TIP3    H235780   4.253   0.763   4.595 -0.4045  0.9169  1.0012
 4789TIP3   OH235781   3.810   1.053   6.277  0.1835 -0.5468  0.0632
 4789TIP3    H135782   3.834   1.143   6.300  1.5857 -1.0061  0.4725
 4789TIP3    H235783   3.840   1.001   6.352 -2.7189 -1.0981  0.8953
 4790TIP3   OH235784   6.059   1.762   1.666  0.7848 -0.8729 -0.1242
 4790TIP3    H135785   6.078   1.669   1.675 -0.1156 -1.1279 -0.8088
 4790TIP3    H235786   6.133   1.796   1.616  0.6798 -1.3957 -0.6461
 4791TIP3   OH235787   2.213   1.047  13.266 -0.1881 -0.5775  0.7168
 4791TIP3    H135788   2.294   1.091  13.290 -0.3806 -0.8876  1.9304
 4791TIP3    H235789   2.235   0.954  13.264 -0.7126 -0.7284  1.8363
 4792TIP3   OH235790   0.700   0.014  14.329 -0.3770  0.0805  0.6231
 4792TIP3    H135791   0.626   0.038  14.384 -0.8155  1.2307 -0.4408
 4792TIP3    H235792   0.690   0.068  14.250 -1.4267 -3.5574 -1.8884
 4793TIP3   OH235793   3.628   2.893  15.848  0.2147  0.3186  0.2913
 4793TIP3    H135794   3.645   2.981  15.816 -0.0281  0.4465  0.5073
 4793TIP3    H235795   3.573   2.906  15.925 -0.1893 -0.0401  0.0690
 4794TIP3   OH235796   2.790   5.916   4.061 -0.0747 -0.4548  0.3202
 4794TIP3    H135797   2.865   5.946   4.112  0.5620 -1.2659 -0.1217
 4794TIP3    H235798   2.718   5.913   4.125  0.7578 -1.6334  1.2359
 4795TIP3   OH235799   4.489   3.759   1.073  0.3133 -0.8248  0.0047
 4795TIP3    H135800   4.520   3.779   1.161 -1.1313 -0.0102  0.3331
 4795TIP3    H235801   4.554   3.698   1.038  2.0040  0.4578  0.8637
 4796TIP3   OH235802   6.727   2.660  12.537 -0.3270  0.2949 -0.0872
 4796TIP3    H135803   6.725   2.643  12.442  0.4302  1.8174 -0.4024
 4796TIP3    H235804   6.766   2.581  12.574  0.2682  0.0651 -1.1556
 4797TIP3   OH235805   4.916   0.920   4.853 -0.3625 -0.3223  0.1688
 4797TIP3    H135806   4.847   0.966   4.901  0.5620  0.8064  0.4326
 4797TIP3    H235807   4.876   0.836   4.828 -1.2524 -0.4199  1.8434
 4798TIP3   OH235808   6.539   2.761  14.497  0.0755 -0.1880 -0.1373
 4798TIP3    H135809   6.633   2.748  14.509  0.3118  1.7200  0.1522
 4798TIP3    H235810   6.529   2.786  14.405 -0.0314  0.5654  0.0745
 4799TIP3   OH235811   4.176   1.055   3.590 -0.2671  0.0724  0.1857
 4799TIP3    H135812   4.095   1.008   3.569 -0.4476  0.4435  0.0293
 4799TIP3    H235813   4.240   0.987   3.608 -0.5640 -0.2288  0.1107
 4800TIP3   OH235814   3.483   0.906   5.563  0.1278  1.0263  0.0302
 4800TIP3    H135815   3.456   0.986   5.609 -1.7736  0.7277 -0.5404
 4800TIP3    H235816   3.509   0.936   5.476 -1.9942  0.8652 -0.6811
 4801TIP3   OH235817   2.528   6.556   2.061 -0.1782  0.4014  0.1334
 4801TIP3    H135818   2.494   6.542   2.149 -1.5893 -1.2265 -0.6426
 4801TIP3    H235819   2.452   6.579   2.009  0.5224  0.5686 -0.8368
 4802TIP3   OH235820   4.520   6.220   0.035 -0.0652  0.9113  0.2390
 4802TIP3    H135821   4.459   6.293   0.035  0.5529  1.4579 -1.7847
 4802TIP3    H235822   4.523   6.190   0.126 -2.5027  1.5641  0.5417
 4803TIP3   OH235823   0.253   1.019   3.241  0.3979  0.2402  0.4918
 4803TIP3    H135824   0.184   1.075   3.205  0.1188 -0.9836 -0.9062
 4803TIP3    H235825   0.324   1.023   3.177  0.4903 -0.7628  0.5159
 4804TIP3   OH235826   2.231   4.922  14.700 -0.2853  0.6719  0.0391
 4804TIP3    H135827   2.141   4.952  14.695  0.4925  3.0414 -0.1343
 4804TIP3    H235828   2.234   4.845  14.643 -2.7372 -0.9020  1.9466
 4805TIP3   OH235829   0.593   2.888   5.767  0.0138  0.6375  0.3772
 4805TIP3    H135830   0.582   2.981   5.750  2.8202  1.3479  2.0818
 4805TIP3    H235831   0.684   2.870   5.743 -0.5200 -1.7084 -0.0437
 4806TIP3   OH235832   6.155   1.236   3.287 -0.3435 -0.5351  0.2122
 4806TIP3    H135833   6.072   1.189   3.291 -1.6177  1.2125 -3.3043
 4806TIP3    H235834   6.188   1.220   3.198  2.0624  0.4623  0.8833
 4807TIP3   OH235835   4.126   3.004   6.077 -0.0097 -0.0110 -0.5643
 4807TIP3    H135836   4.057   3.066   6.101 -0.8101 -0.3465 -1.9027
 4807TIP3    H235837   4.191   3.012   6.146 -1.2046  0.6093  0.5161
 4808TIP3   OH235838   2.371   5.171   6.048 -0.4944 -0.2106  0.1506
 4808TIP3    H135839   2.281   5.152   6.073  0.5271 -2.8216  2.0850
 4808TIP3    H235840   2.403   5.231   6.116 -1.5836  3.0677 -2.1177
 4809TIP3   OH235841   6.293   1.329  12.079  0.5393  0.3911  0.2141
 4809TIP3    H135842   6.223   1.275  12.117 -2.8319  3.0230 -1.8715
 4809TIP3    H235843   6.347   1.355  12.153 -0.2478 -2.3750  1.8140
 4810TIP3   OH235844   6.555   1.266   1.922 -0.0817 -0.0789  0.0616
 4810TIP3    H135845   6.488   1.212   1.879  0.4714 -2.1113  1.6851
 4810TIP3    H235846   6.526   1.271   2.013  1.0563  0.5522  0.3912
 4811TIP3   OH235847   2.424   1.713   1.062  0.1916 -0.1162 -0.1933
 4811TIP3    H135848   2.516   1.711   1.088  0.0194  1.6371  0.5834
 4811TIP3    H235849   2.376   1.734   1.142 -1.1493 -3.4287 -0.0250
 4812TIP3   OH235850   4.681   3.423  16.129  0.1141  1.3337  0.3417
 4812TIP3    H135851   4.623   3.404  16.202 -0.7651 -0.8192 -0.8748
 4812TIP3    H235852   4.763   3.379  16.151 -0.6308 -0.6126 -0.6050
 4813TIP3   OH235853   1.568   0.527  11.424  0.3079 -0.1477 -0.0457
 4813TIP3    H135854   1.543   0.519  11.332 -0.4707  0.9309  0.0673
 4813TIP3    H235855   1.512   0.464  11.470 -0.7383  0.7586 -0.0594
 4814TIP3   OH235856   4.982   5.263  16.673 -0.3096 -0.5347  0.1805
 4814TIP3    H135857   4.927   5.211  16.731 -1.6504  0.5344 -0.1222
 4814TIP3    H235858   4.944   5.249  16.586  0.8545 -1.0319 -0.2647
 4815TIP3   OH235859   4.410   2.054  14.324  0.4322 -0.2553  0.0389
 4815TIP3    H135860   4.423   2.068  14.231 -0.6530  0.3316 -0.0383
 4815TIP3    H235861   4.315   2.062  14.337  0.4535 -1.4122  1.0179
 4816TIP3   OH235862   6.682   0.129  11.666 -0.2450 -0.0988 -0.0825
 4816TIP3    H135863   6.726   0.136  11.581  0.1735 -0.8505  0.0686
 4816TIP3    H235864   6.738   0.071  11.717 -0.9935 -0.4022  0.3910
 4817TIP3   OH235865   4.006   6.733  15.247  0.0757 -0.4422 -0.8232
 4817TIP3    H135866   3.934   6.743  15.185  1.4967 -0.4889 -2.5242
 4817TIP3    H235867   3.987   6.797  15.316 -2.0662 -1.0989 -0.7677
 4818TIP3   OH235868   5.104   3.825  11.706 -0.2938 -0.0294  1.1372
 4818TIP3    H135869   5.173   3.870  11.754  0.9965  0.1895 -0.8745
 4818TIP3    H235870   5.063   3.767  11.771  1.6502 -0.0256  2.3990
 4819TIP3   OH235871   1.886   5.203  17.221  0.4131 -0.2374 -0.2548
 4819TIP3    H135872   1.803   5.246  17.242  1.1664  2.0558 -1.7255
 4819TIP3    H235873   1.873   5.111  17.246 -2.0425  0.3769  0.8768
 4820TIP3   OH235874   5.362   1.485   0.989  0.3272 -0.3479 -0.4427
 4820TIP3    H135875   5.430   1.520   1.047  1.1274 -0.4768 -1.3089
 4820TIP3    H235876   5.281   1.526   1.021  0.8746  0.2027  0.2612
 4821TIP3   OH235877   6.313   3.287   1.385 -0.2953 -0.2032  0.5404
 4821TIP3    H135878   6.223   3.280   1.416 -0.1334  0.4258  1.1734
 4821TIP3    H235879   6.365   3.293   1.465  0.0215  2.9171  0.1484
 4822TIP3   OH235880   4.455   4.323   4.832 -0.2789  0.5910  0.4080
 4822TIP3    H135881   4.548   4.327   4.809 -0.5444 -1.7776 -1.3025
 4822TIP3    H235882   4.420   4.251   4.779 -2.8958  0.8115  1.7347
 4823TIP3   OH235883   4.508   2.571  13.166 -0.1579  0.7553  0.2121
 4823TIP3    H135884   4.431   2.582  13.110  0.1946  0.4924 -0.3176
 4823TIP3    H235885   4.541   2.660  13.179  0.3848  0.7084 -0.8608
 4824TIP3   OH235886   4.855   0.626   4.553 -0.4007 -0.1847 -0.1959
 4824TIP3    H135887   4.872   0.720   4.544 -1.5668  0.1762  1.0932
 4824TIP3    H235888   4.759   0.620   4.556 -0.2943 -1.1794  2.0026
 4825TIP3   OH235889   3.707   0.656  14.791  0.4705  0.6678  0.3019
 4825TIP3    H135890   3.802   0.665  14.806  0.3061  0.9857  1.2042
 4825TIP3    H235891   3.697   0.663  14.697  1.1984  2.2290  0.3188
 4826TIP3   OH235892   2.003   4.678   3.074  0.5160 -0.2664 -0.4050
 4826TIP3    H135893   2.021   4.772   3.082 -1.0534 -0.0308  0.7377
 4826TIP3    H235894   2.077   4.643   3.025  0.8337  1.6725 -1.3815
 4827TIP3   OH235895   4.670   6.201   3.727  0.1732  0.2994 -0.1644
 4827TIP3    H135896   4.646   6.199   3.819 -0.5337 -1.7933 -0.3688
 4827TIP3    H235897   4.588   6.220   3.681  0.0159 -1.1498 -0.5022
 4828TIP3   OH235898   6.151   5.396  12.694 -0.3994  0.5155  0.1147
 4828TIP3    H135899   6.191   5.312  12.672  0.5093  1.7317 -3.0517
 4828TIP3    H235900   6.195   5.422  12.775  1.7855 -0.4567 -0.7104
 4829TIP3   OH235901   4.242   1.955  15.122  0.0978 -0.2486  0.4457
 4829TIP3    H135902   4.197   1.885  15.169  0.2437 -0.0255  0.9185
 4829TIP3    H235903   4.335   1.936  15.133  0.1318 -1.0772 -1.0822
 4830TIP3   OH235904   5.295   5.951  11.418 -0.0156  0.4578  0.5363
 4830TIP3    H135905   5.341   5.894  11.356 -0.2562 -0.4782  1.2163
 4830TIP3    H235906   5.301   6.038  11.379  1.7547  0.2447  0.2713
 4831TIP3   OH235907   5.825   5.395   3.202 -0.3056  0.2246 -0.5327
 4831TIP3    H135908   5.869   5.312   3.186  0.0332  0.5272 -1.2053
 4831TIP3    H235909   5.782   5.415   3.119  0.5706  1.2883 -0.7346
 4832TIP3   OH235910   6.483   3.960  12.079  0.1625 -0.3006  0.0982
 4832TIP3    H135911   6.491   4.008  12.161 -1.1831  1.2124 -0.6243
 4832TIP3    H235912   6.425   3.886  12.100  2.0209 -1.4858  1.1462
 4833TIP3   OH235913   2.744   4.025   5.209  0.6059 -0.6120  0.1678
 4833TIP3    H135914   2.802   3.981   5.147  1.0629 -1.3399  1.1133
 4833TIP3    H235915   2.679   4.069   5.153  0.2590 -2.3005 -0.7826
 4834TIP3   OH235916   1.667   2.127  12.985  0.1228  0.3725  0.0640
 4834TIP3    H135917   1.607   2.075  12.931  1.5407 -0.1083 -1.0554
 4834TIP3    H235918   1.746   2.136  12.932  1.2879  0.4776  1.7894
 4835TIP3   OH235919   6.253   3.141  14.091  0.4253 -0.0136 -0.0634
 4835TIP3    H135920   6.216   3.210  14.146 -0.4447 -1.8144  1.6564
 4835TIP3    H235921   6.184   3.124  14.026  1.2802  1.8058 -1.5053
 4836TIP3   OH235922   3.744   0.660  16.952 -0.5680 -0.2695  0.1389
 4836TIP3    H135923   3.677   0.654  16.884 -0.8589  1.9838  0.1746
 4836TIP3    H235924   3.695   0.684  17.031 -0.0427 -1.2808  0.7666
 4837TIP3   OH235925   5.461   3.823  16.899 -0.3809 -0.6424 -0.1351
 4837TIP3    H135926   5.490   3.736  16.926  2.5272  0.1526 -0.5838
 4837TIP3    H235927   5.430   3.865  16.980 -1.2721 -1.8755  0.1713
 4838TIP3   OH235928   0.478   5.583  14.390  0.0922  0.0562 -0.4870
 4838TIP3    H135929   0.434   5.659  14.353 -0.9162  0.3519  1.2588
 4838TIP3    H235930   0.463   5.513  14.327  0.4649  1.1406 -1.7827
 4839TIP3   OH235931   3.760   5.949   4.876 -0.3835  0.6753  0.1110
 4839TIP3    H135932   3.737   6.042   4.866 -0.8523  0.4966 -0.4565
 4839TIP3    H235933   3.682   5.908   4.912 -0.5084  0.3192 -0.5598
 4840TIP3   OH235934   3.462   2.487   6.838 -0.0378 -0.4958 -0.0759
 4840TIP3    H135935   3.435   2.435   6.763  0.4039  0.9744 -1.2733
 4840TIP3    H235936   3.552   2.460   6.855  0.7814  1.1135 -1.7913
 4841TIP3   OH235937   2.701   6.775  13.558 -0.2099 -0.6795 -0.4862
 4841TIP3    H135938   2.755   6.734  13.626  0.8219 -2.2865 -2.2131
 4841TIP3    H235939   2.754   6.848  13.525  0.1285 -1.0876 -0.8634
 4842TIP3   OH235940   3.574   4.750  16.705 -0.1035  0.1411  0.4985
 4842TIP3    H135941   3.541   4.695  16.776  1.2622 -1.2175  0.1278
 4842TIP3    H235942   3.544   4.838  16.726 -2.2975 -0.7310  1.1363
 4843TIP3   OH235943   2.974   1.882   2.745  0.1442 -0.6021 -0.6323
 4843TIP3    H135944   2.929   1.804   2.777 -1.7741  0.8729  0.3432
 4843TIP3    H235945   3.043   1.898   2.809  0.2637 -1.2322 -0.5986
 4844TIP3   OH235946   0.320   6.372   1.113  0.5893 -0.1711 -0.8655
 4844TIP3    H135947   0.271   6.315   1.055 -1.4173  3.4583 -2.9193
 4844TIP3    H235948   0.253   6.412   1.170  1.9855 -0.1780  0.8346
 4845TIP3   OH235949   1.954   5.743  15.779 -0.0463  0.2389  0.2108
 4845TIP3    H135950   1.999   5.769  15.699 -2.3522 -0.0439 -1.2401
 4845TIP3    H235951   1.925   5.826  15.819  0.5413  0.3451  0.4184
 4846TIP3   OH235952   6.350   4.404   3.355  0.3250 -0.2545 -0.9587
 4846TIP3    H135953   6.321   4.381   3.266  0.5499  1.2998 -1.4408
 4846TIP3    H235954   6.271   4.395   3.408 -0.5319  1.7076 -1.8612
 4847TIP3   OH235955   1.752   0.193   5.788 -0.0261 -0.7325 -0.0818
 4847TIP3    H135956   1.784   0.256   5.852  2.2410 -1.3265 -0.5746
 4847TIP3    H235957   1.664   0.223   5.766  0.0618  0.7972  1.5603
 4848TIP3   OH235958   5.587   2.018  10.669  0.4335 -0.0934  0.4823
 4848TIP3    H135959   5.538   2.027  10.751  0.6612  2.5017  0.3615
 4848TIP3    H235960   5.554   2.089  10.614  0.8937 -1.3111 -1.3773
 4849TIP3   OH235961   2.836   3.345   4.371  0.0890  0.0298  0.6538
 4849TIP3    H135962   2.774   3.391   4.315 -0.6700 -1.6372  0.0934
 4849TIP3    H235963   2.843   3.400   4.449 -1.7689  0.4595  0.5362
 4850TIP3   OH235964   3.440   1.460  13.113  0.2871  0.5424 -0.6679
 4850TIP3    H135965   3.470   1.472  13.023 -0.2177  0.1987 -0.8845
 4850TIP3    H235966   3.353   1.422  13.104  0.7289 -0.6429 -0.0298
 4851TIP3   OH235967   1.534   0.786   2.330  0.7707  0.3043  0.0881
 4851TIP3    H135968   1.514   0.692   2.340  1.9615 -0.0321 -0.5775
 4851TIP3    H235969   1.519   0.804   2.237 -0.3372  0.9883  0.4013
 4852TIP3   OH235970   2.794   5.439  14.073 -0.3735 -0.7859  0.3945
 4852TIP3    H135971   2.710   5.476  14.046 -0.3506 -0.6109  0.5611
 4852TIP3    H235972   2.779   5.345  14.078 -0.3615 -0.8327 -0.2959
 4853TIP3   OH235973   6.760   3.291  16.707  0.6999 -0.1991  0.4190
 4853TIP3    H135974   6.805   3.268  16.626  0.8524  0.7779  0.2246
 4853TIP3    H235975   6.732   3.207  16.744  0.8506 -0.6589 -0.5155
 4854TIP3   OH235976   0.040   4.148  13.527 -0.1246 -0.0164  0.1353
 4854TIP3    H135977   0.075   4.222  13.476 -0.0017 -0.1079  0.0861
 4854TIP3    H235978  -0.022   4.106  13.468  0.8734 -0.8177 -0.3725
 4855TIP3   OH235979   5.166   6.721   0.480 -0.0538 -0.4861 -0.5890
 4855TIP3    H135980   5.139   6.744   0.569  2.5952  0.0438  0.1065
 4855TIP3    H235981   5.198   6.631   0.487  0.5084 -0.3152 -0.9215
 4856TIP3   OH235982   5.093   2.962   4.719 -0.3583  0.0612  0.2013
 4856TIP3    H135983   5.186   2.941   4.730 -0.8645 -1.4676  1.9300
 4856TIP3    H235984   5.073   2.940   4.628  0.2465 -2.7584  0.6949
 4857TIP3   OH235985   2.597   2.346   0.394 -0.1618 -0.8174  1.0836
 4857TIP3    H135986   2.529   2.406   0.363  0.4053 -1.1292 -0.8750
 4857TIP3    H235987   2.673   2.402   0.409 -0.8890 -0.4323  3.5110
 4858TIP3   OH235988   1.292   1.586  13.679 -0.0104  0.6294 -0.2315
 4858TIP3    H135989   1.222   1.642  13.713 -1.0996 -1.1771  0.5651
 4858TIP3    H235990   1.292   1.601  13.585 -0.2762  1.9622 -0.0236
 4859TIP3   OH235991   0.288   5.229  10.805 -0.1793 -0.5539  0.1566
 4859TIP3    H135992   0.365   5.286  10.801 -1.5894  1.6006  2.3695
 4859TIP3    H235993   0.277   5.210  10.898 -1.6508 -1.7802 -0.2563
 4860TIP3   OH235994   2.005   4.793   5.383 -0.3668 -0.3874 -0.4205
 4860TIP3    H135995   1.959   4.856   5.328  1.1653  0.0013 -1.2646
 4860TIP3    H235996   1.946   4.780   5.458 -2.5852 -1.1112 -2.2199
 4861TIP3   OH235997   1.421   2.321   4.754  0.3121  0.2029 -0.1513
 4861TIP3    H135998   1.396   2.387   4.819  1.2140 -0.1248  0.5300
 4861TIP3    H235999   1.338   2.278   4.730  0.1564 -0.6706  1.8545
 4862TIP3   OH236000   4.335   1.776   3.740  0.2492  0.3870 -0.0634
 4862TIP3    H136001   4.320   1.835   3.666  1.2657  1.2658  0.4246
 4862TIP3    H236002   4.329   1.832   3.818  1.5856 -0.0655  0.3855
 4863TIP3   OH236003   0.627   5.010   6.266  0.0021  0.0976  0.0312
 4863TIP3    H136004   0.593   5.042   6.350 -1.1375 -0.4025 -0.2377
 4863TIP3    H236005   0.671   5.086   6.228  1.0979  0.1576  1.3726
 4864TIP3   OH236006   0.347   0.119  11.670  0.0477 -0.2075  0.0373
 4864TIP3    H136007   0.422   0.069  11.703 -0.3066  0.9129  2.6159
 4864TIP3    H236008   0.375   0.210  11.676 -1.2677  0.1838  0.3625
 4865TIP3   OH236009   3.690   2.727  12.635 -0.5176  0.2946  0.3302
 4865TIP3    H136010   3.641   2.659  12.589 -0.9296  0.6079  0.3139
 4865TIP3    H236011   3.645   2.737  12.719  1.3707 -1.6835  1.6625
 4866TIP3   OH236012   3.010   6.314   0.967  0.3724 -0.0182  0.0108
 4866TIP3    H136013   3.080   6.273   1.018  0.0939 -0.9677 -0.3546
 4866TIP3    H236014   2.929   6.279   1.004  0.1419  0.0056 -0.4638
 4867TIP3   OH236015   3.354   1.918  15.694  0.6312  0.0622 -0.0666
 4867TIP3    H136016   3.273   1.967  15.711  0.8125  0.0159  0.9866
 4867TIP3    H236017   3.396   1.964  15.621  0.1005  0.6238 -0.0180
 4868TIP3   OH236018   2.503   3.042  14.350  0.1474 -0.5412  0.0326
 4868TIP3    H136019   2.516   3.021  14.443  3.0050  1.2313  0.0880
 4868TIP3    H236020   2.444   3.118  14.351  0.2179 -0.4889  0.4223
 4869TIP3   OH236021   0.560   1.541   3.055  0.2921  0.3197  0.3184
 4869TIP3    H136022   0.518   1.621   3.087  0.0032  0.1570  0.3553
 4869TIP3    H236023   0.653   1.560   3.058  0.2900  0.2192  1.5423
 4870TIP3   OH236024   3.293   3.127   2.281 -0.0443  0.1084  0.6465
 4870TIP3    H136025   3.279   3.084   2.197  0.2646  0.8432  0.2101
 4870TIP3    H236026   3.355   3.070   2.327 -1.4609 -1.1431  1.0492
 4871TIP3   OH236027   5.737   4.061   3.545 -0.1335  0.1340  0.2674
 4871TIP3    H136028   5.806   3.998   3.525 -1.7888 -1.2229 -1.3613
 4871TIP3    H236029   5.729   4.115   3.466 -1.4084 -0.1880  0.1545
 4872TIP3   OH236030   4.300   3.420  16.869  0.2601 -0.0828 -0.0511
 4872TIP3    H136031   4.311   3.464  16.953  0.4799  0.3141 -0.2872
 4872TIP3    H236032   4.272   3.488  16.809 -1.3502 -0.6562  0.0336
 4873TIP3   OH236033   5.925   0.571   2.831 -0.0284 -0.5008  0.0083
 4873TIP3    H136034   6.017   0.577   2.805  0.7132 -0.6030  2.5434
 4873TIP3    H236035   5.905   0.477   2.826  0.6742 -0.7523  1.6111
 4874TIP3   OH236036   3.176   6.336   4.804  0.0524  0.0519 -0.2872
 4874TIP3    H136037   3.249   6.306   4.751  0.6305 -2.1060  1.6638
 4874TIP3    H236038   3.215   6.401   4.863 -0.3400  1.4910 -1.5626
 4875TIP3   OH236039   6.136   5.614  13.983  0.1731 -0.5817 -0.3521
 4875TIP3    H136040   6.084   5.603  14.063  0.2613  1.0267 -0.0634
 4875TIP3    H236041   6.096   5.554  13.920 -3.8160  2.6106 -1.0185
 4876TIP3   OH236042   6.330   5.731  17.154 -0.2224 -0.3966  0.1012
 4876TIP3    H136043   6.406   5.703  17.205 -0.1398  0.9674  0.7426
 4876TIP3    H236044   6.364   5.797  17.094 -0.4117 -1.6515 -1.4337
 4877TIP3   OH236045   0.757   5.190  12.938  0.3933  0.3807 -0.1316
 4877TIP3    H136046   0.820   5.217  12.871 -0.4611  1.0421 -0.6799
 4877TIP3    H236047   0.727   5.273  12.977 -1.1292  0.1566 -0.7959
 4878TIP3   OH236048   0.606   0.715  12.336 -0.4123  0.6735 -0.0763
 4878TIP3    H136049   0.682   0.715  12.278  0.1669  0.7707  0.6692
 4878TIP3    H236050   0.572   0.804  12.333 -0.6025  0.5858 -0.5443
 4879TIP3   OH236051   1.457   2.373   5.365 -0.0016 -0.6123  0.0425
 4879TIP3    H136052   1.443   2.300   5.425 -0.0993 -0.0553  0.6945
 4879TIP3    H236053   1.449   2.451   5.419  0.5794 -0.1290 -0.5618
 4880TIP3   OH236054   0.589   4.126  12.825 -0.1003  0.2039 -0.3731
 4880TIP3    H136055   0.544   4.045  12.799  0.8200  0.0392 -1.5025
 4880TIP3    H236056   0.523   4.175  12.876 -1.0588 -0.7054 -0.7179
 4881TIP3   OH236057   1.189   1.535  16.823 -0.1974 -0.3967 -0.2671
 4881TIP3    H136058   1.224   1.612  16.778  1.1704 -0.8077  0.0848
 4881TIP3    H236059   1.094   1.551  16.827 -0.2475  0.0344 -2.5135
 4882TIP3   OH236060   6.103   1.211  15.853  0.3348  0.1802 -0.5511
 4882TIP3    H136061   6.088   1.196  15.760  0.6867 -2.7814 -0.1812
 4882TIP3    H236062   6.020   1.190  15.895  0.0463  1.9219 -0.1836
 4883TIP3   OH236063   1.548   5.068  16.746  0.1894 -0.7269 -0.2379
 4883TIP3    H136064   1.597   5.122  16.685  0.8097 -2.0578 -0.9284
 4883TIP3    H236065   1.576   4.978  16.727 -0.3886 -1.2455  1.2828
 4884TIP3   OH236066   4.254   1.673   3.446 -0.0725 -0.4386  0.0531
 4884TIP3    H136067   4.260   1.578   3.440 -1.4867 -0.5338 -0.0759
 4884TIP3    H236068   4.162   1.692   3.426  0.1980  0.9479  0.1079
 4885TIP3   OH236069   5.124   6.499   2.970 -0.0361 -0.7935 -0.1626
 4885TIP3    H136070   5.048   6.441   2.962 -1.2202  0.6166  0.6734
 4885TIP3    H236071   5.148   6.520   2.880 -0.4379 -1.4979 -0.4366
 4886TIP3   OH236072   4.826   5.874  11.657  0.1264 -0.4131  0.4779
 4886TIP3    H136073   4.917   5.854  11.632 -0.1151 -1.0558  0.0965
 4886TIP3    H236074   4.786   5.788  11.671 -0.4490 -0.1322  0.5550
 4887TIP3   OH236075   3.367   3.222   4.352 -0.6482  0.2231  0.0254
 4887TIP3    H136076   3.371   3.257   4.440  0.2662  1.7091 -0.5843
 4887TIP3    H236077   3.281   3.250   4.318  0.5309  2.9687 -0.8631
 4888TIP3   OH236078   1.684   0.872  14.158 -0.0328  0.2992 -0.3721
 4888TIP3    H136079   1.670   0.781  14.133 -0.6750 -0.7875  3.5410
 4888TIP3    H236080   1.778   0.877  14.179 -0.3333  0.0168  1.1283
 4889TIP3   OH236081   6.164   3.179   3.125 -0.5780 -0.4198  0.7463
 4889TIP3    H136082   6.229   3.117   3.157  0.6800 -0.7425 -2.2447
 4889TIP3    H236083   6.096   3.123   3.086  0.7703 -0.0173 -2.3594
 4890TIP3   OH236084   3.686   0.644  13.313 -0.5870 -0.4524 -0.2542
 4890TIP3    H136085   3.648   0.731  13.325 -0.6256 -0.5617  0.4856
 4890TIP3    H236086   3.774   0.651  13.351 -0.5360 -0.6905 -0.3286
 4891TIP3   OH236087   5.076   6.643  15.704  0.0828  0.4147 -0.6862
 4891TIP3    H136088   5.149   6.673  15.757 -0.4158 -0.3910  0.4854
 4891TIP3    H236089   5.081   6.695  15.624  2.6245 -0.4652 -1.1433
 4892TIP3   OH236090   1.654   4.820   4.267  0.2987 -0.9307 -0.4688
 4892TIP3    H136091   1.683   4.743   4.218  3.7965  0.0560 -0.1310
 4892TIP3    H236092   1.730   4.844   4.320 -1.7421  0.9785  1.6953
 4893TIP3   OH236093   6.217   6.710  10.993  0.1822 -0.6241 -0.2599
 4893TIP3    H136094   6.260   6.693  10.909  0.3456 -0.2369 -0.2519
 4893TIP3    H236095   6.266   6.656  11.056  0.7721 -0.0368 -0.2191
 4894TIP3   OH236096   6.395   6.260  11.982 -0.1243 -0.4281  0.0024
 4894TIP3    H136097   6.439   6.278  11.899  0.3803 -0.7616  0.1926
 4894TIP3    H236098   6.430   6.175  12.009  0.1590 -0.0398  0.8487
 4895TIP3   OH236099   2.352   3.503   3.375 -0.1018 -0.0817 -0.7485
 4895TIP3    H136100   2.260   3.508   3.399 -0.2923 -1.4741 -1.1728
 4895TIP3    H236101   2.353   3.502   3.279  0.4469  1.5125 -0.7746
 4896TIP3   OH236102   6.300   6.721   1.078  0.4681  0.3141  0.7849
 4896TIP3    H136103   6.228   6.771   1.117  0.3475  0.2113  0.6936
 4896TIP3    H236104   6.267   6.632   1.072  0.9029  0.0996  1.5159
 4897TIP3   OH236105   5.340   1.503   3.183  0.3461  0.1151  0.1346
 4897TIP3    H136106   5.294   1.515   3.100  0.5427  1.5801  0.2301
 4897TIP3    H236107   5.367   1.591   3.209 -0.6329 -0.1824  2.2889
 4898TIP3   OH236108   0.875   5.686   0.157 -0.1613  0.5762 -0.0743
 4898TIP3    H136109   0.807   5.750   0.175 -0.3052  0.3574  0.1639
 4898TIP3    H236110   0.931   5.727   0.091  0.4862  1.4690  1.0190
 4899TIP3   OH236111   6.737   1.435  14.388 -0.1884  0.1936 -0.0322
 4899TIP3    H136112   6.802   1.416  14.319 -0.4918  2.1334 -0.8740
 4899TIP3    H236113   6.743   1.529  14.401 -3.6676  0.6018 -0.9809
 4900TIP3   OH236114   3.590   0.323   2.572 -0.2238 -0.2131 -0.5931
 4900TIP3    H136115   3.660   0.340   2.635  1.9051 -2.0200 -2.3955
 4900TIP3    H236116   3.572   0.229   2.581 -2.5748  0.2438 -0.0625
 4901TIP3   OH236117   1.674   3.347  16.315  0.4674 -0.2195 -0.0072
 4901TIP3    H136118   1.646   3.345  16.224 -0.5977 -1.2297  0.3332
 4901TIP3    H236119   1.593   3.338  16.365  0.9481  1.3186  1.0539
 4902TIP3   OH236120   5.429   6.016   3.200  0.2127 -0.6385  0.0749
 4902TIP3    H136121   5.370   6.075   3.155  0.3343 -0.8637 -0.3905
 4902TIP3    H236122   5.487   6.073   3.250 -1.0566 -0.4569  1.3764
 4903TIP3   OH236123   1.800   0.174  15.705  0.1656 -0.0099  0.7945
 4903TIP3    H136124   1.744   0.135  15.773 -1.1268 -0.3662 -0.4515
 4903TIP3    H236125   1.739   0.216  15.645  1.1679 -1.1420 -1.0719
 4904TIP3   OH236126   6.356   5.086  15.211 -0.4630  0.0857 -0.2016
 4904TIP3    H136127   6.422   5.139  15.168 -0.2098  0.7225  0.9383
 4904TIP3    H236128   6.405   5.024  15.265 -0.7796  0.5605  0.6481
 4905TIP3   OH236129   1.827   1.121  11.665  0.2384  0.1245 -0.6141
 4905TIP3    H136130   1.891   1.162  11.606  0.2877  0.0171 -0.6358
 4905TIP3    H236131   1.880   1.081  11.734  0.1249  1.2029  0.1150
 4906TIP3   OH236132   1.960   1.776  10.453 -0.2691  1.2671  0.0953
 4906TIP3    H136133   1.903   1.829  10.509  1.8620  2.3815  1.2904
 4906TIP3    H236134   1.957   1.820  10.368 -1.0707  1.3980  0.1871
 4907TIP3   OH236135   2.216   6.167  12.747 -0.6998  0.1121 -0.3150
 4907TIP3    H136136   2.199   6.094  12.687 -1.6475 -0.1970  0.3267
 4907TIP3    H236137   2.282   6.134  12.808 -2.2133 -0.7356  0.9023
 4908TIP3   OH236138   6.182   1.896  11.204  0.0578 -0.0426  0.3137
 4908TIP3    H136139   6.159   1.988  11.190  0.1268 -0.0421  0.1951
 4908TIP3    H236140   6.244   1.897  11.276  0.4377  0.0532 -0.0119
 4909TIP3   OH236141   0.961   1.618   1.736  0.2773 -0.2219 -0.1230
 4909TIP3    H136142   0.906   1.684   1.694  0.1023  1.6056  2.8585
 4909TIP3    H236143   1.046   1.662   1.748  0.6202 -1.0448  0.4927
 4910TIP3   OH236144   5.013   3.251  17.097 -0.3131  0.4367  0.4619
 4910TIP3    H136145   5.058   3.168  17.082  0.8494  0.8763  1.3589
 4910TIP3    H236146   5.051   3.284  17.179 -1.4703  1.3714  0.6306
 4911TIP3   OH236147   0.879   1.982   6.210  0.6968 -0.3012  0.2851
 4911TIP3    H136148   0.816   1.911   6.200  1.0827 -0.5434 -0.4935
 4911TIP3    H236149   0.846   2.033   6.284  0.2923 -1.1574  0.7040
 4912TIP3   OH236150   1.276   1.875  15.026  0.3218 -0.1278 -0.6029
 4912TIP3    H136151   1.311   1.797  15.070  2.5508  1.1034 -0.1597
 4912TIP3    H236152   1.199   1.843  14.979  1.9897 -2.8856 -1.5630
 4913TIP3   OH236153   2.763   4.070   4.372 -0.0251  0.3089 -0.4753
 4913TIP3    H136154   2.750   4.018   4.292  2.2692  1.0425 -1.3597
 4913TIP3    H236155   2.858   4.076   4.381 -0.2576  0.6941  2.0402
 4914TIP3   OH236156   1.019   3.068   5.708  0.4119 -0.3025  0.2017
 4914TIP3    H136157   0.979   3.005   5.767 -1.4507  0.2282 -0.4577
 4914TIP3    H236158   1.111   3.070   5.734  0.1994 -2.1655  1.2079
 4915TIP3   OH236159   0.677   6.572  16.019 -0.6352  0.0985  0.1468
 4915TIP3    H136160   0.666   6.557  16.113  0.7673 -0.6686  0.1968
 4915TIP3    H236161   0.698   6.486  15.983 -1.0753  0.4014 -0.8699
 4916TIP3   OH236162   4.101   2.325   0.488  1.0186  0.1933  0.1773
 4916TIP3    H136163   4.011   2.323   0.455  0.7447 -0.5281  0.9487
 4916TIP3    H236164   4.152   2.357   0.414  0.6806 -3.3161 -1.6950
 4917TIP3   OH236165   5.036   2.002   4.931  0.1451 -0.2742 -0.7115
 4917TIP3    H136166   5.030   1.923   4.985 -0.9033 -0.7009 -1.4188
 4917TIP3    H236167   5.130   2.019   4.923  0.2986  0.5832  2.3461
 4918TIP3   OH236168   3.358   2.893   3.097  0.0962  0.2822  0.1571
 4918TIP3    H136169   3.441   2.853   3.123  0.6343  1.0098 -0.3972
 4918TIP3    H236170   3.351   2.971   3.152  0.1362  0.6149 -0.3092
 4919TIP3   OH236171   1.714   2.421   6.093  0.2232 -0.5001  0.1013
 4919TIP3    H136172   1.716   2.349   6.030 -0.0352  1.5417 -2.3333
 4919TIP3    H236173   1.721   2.379   6.178 -0.0588 -3.4012 -1.2565
 4920TIP3   OH236174   1.661   3.149   2.580  0.3372 -0.5181 -0.1969
 4920TIP3    H136175   1.671   3.060   2.613  1.8871 -0.1337  0.4002
 4920TIP3    H236176   1.750   3.182   2.572 -0.2590  1.4148  0.8175
 4921TIP3   OH236177   1.914   2.757   1.343 -0.0858 -0.2671  0.1665
 4921TIP3    H136178   1.974   2.714   1.404  0.0203 -0.0949  0.1868
 4921TIP3    H236179   1.947   2.734   1.256  0.7675  0.8556  0.1789
 4922TIP3   OH236180   2.232   0.324   3.021  0.1370 -1.3218 -0.0313
 4922TIP3    H136181   2.253   0.232   3.036 -0.7742 -1.7303 -1.2003
 4922TIP3    H236182   2.316   0.370   3.027  0.4850 -2.1101  1.3688
 4923TIP3   OH236183   0.253   0.134   2.949 -0.1699 -0.0251 -0.4697
 4923TIP3    H136184   0.270   0.212   3.001  1.0961  0.5681 -1.7284
 4923TIP3    H236185   0.290   0.154   2.863 -0.5538 -1.7008 -1.0501
 4924TIP3   OH236186   2.215   0.398  11.322  0.3281 -0.2416  0.1639
 4924TIP3    H136187   2.156   0.355  11.261 -1.0377 -0.8772  1.8921
 4924TIP3    H236188   2.202   0.492  11.306 -0.8312 -0.3838  0.2345
 4925TIP3   OH236189   2.585   5.606   3.591  0.1333  0.3599 -0.5193
 4925TIP3    H136190   2.624   5.523   3.618 -2.1139 -0.0489  1.6138
 4925TIP3    H236191   2.595   5.663   3.667 -1.2717  0.9988 -0.8091
 4926TIP3   OH236192   6.442   4.507  16.103  0.2563 -0.0366 -0.0875
 4926TIP3    H136193   6.404   4.424  16.076  0.9034  0.0291 -1.2180
 4926TIP3    H236194   6.528   4.510  16.060  1.0274  0.3756  1.4319
 4927TIP3   OH236195   2.534   6.192   4.276 -0.1975 -0.0007 -0.1352
 4927TIP3    H136196   2.475   6.239   4.217 -0.5086  0.2952  0.4117
 4927TIP3    H236197   2.618   6.237   4.266 -0.1825 -0.1132 -0.5443
 4928TIP3   OH236198   2.531   1.020   1.191  0.3250 -0.1803  0.0433
 4928TIP3    H136199   2.482   0.955   1.140  0.6438 -0.5189  0.1674
 4928TIP3    H236200   2.542   0.979   1.277  0.8652 -0.1247 -0.0012
 4929TIP3   OH236201   4.593   1.459  15.911 -0.1648  0.2374 -0.2027
 4929TIP3    H136202   4.568   1.525  15.845  0.1245  0.2155 -0.3359
 4929TIP3    H236203   4.521   1.461  15.975 -0.2120  0.6052 -0.2626
 4930TIP3   OH236204   5.194   6.364  14.713  0.0965 -0.1885  0.2255
 4930TIP3    H136205   5.169   6.444  14.759  0.6752 -0.0828  0.3524
 4930TIP3    H236206   5.139   6.365  14.634 -1.2417 -0.6242  1.1454
 4931TIP3   OH236207   0.438   5.486  16.873 -0.5193 -0.1762 -0.9065
 4931TIP3    H136208   0.397   5.553  16.819  1.6602  1.3589 -0.6878
 4931TIP3    H236209   0.415   5.510  16.963  0.5489  0.5015 -0.8064
 4932TIP3   OH236210   0.135   1.606   4.436  0.6813  0.3699  0.1321
 4932TIP3    H136211   0.087   1.569   4.510 -0.3870  0.2568 -0.6140
 4932TIP3    H236212   0.197   1.537   4.411  0.0455 -0.1639  0.0033
 4933TIP3   OH236213   5.323   5.821   5.501 -0.2233 -0.1254  0.3143
 4933TIP3    H136214   5.408   5.829   5.543 -0.4513 -2.3728  1.2741
 4933TIP3    H236215   5.270   5.772   5.563 -1.3960 -1.1623 -1.4510
 4934TIP3   OH236216   2.314   1.555  16.885  0.0424  0.2212  0.3661
 4934TIP3    H136217   2.346   1.559  16.795  0.5092  0.6619  0.5502
 4934TIP3    H236218   2.223   1.526  16.877 -0.3444  1.5721 -0.3461
 4935TIP3   OH236219   5.194   4.897  17.205 -0.5117  0.7070  0.2133
 4935TIP3    H136220   5.285   4.889  17.176 -0.6891 -3.2852  0.3717
 4935TIP3    H236221   5.191   4.980  17.252  3.9194 -0.4722  2.9803
 4936TIP3   OH236222   3.788   2.076   1.298 -0.6781 -0.0986  0.0972
 4936TIP3    H136223   3.753   2.133   1.229 -0.8898  0.7624  0.9073
 4936TIP3    H236224   3.738   1.995   1.290  1.4308 -1.1946 -2.7978
 4937TIP3   OH236225   4.154   3.796  11.073  0.4175 -0.0440 -0.2505
 4937TIP3    H136226   4.145   3.713  11.025 -0.0914 -1.0793  1.5595
 4937TIP3    H236227   4.245   3.798  11.101  0.1006 -0.6754  0.8631
 4938TIP3   OH236228   6.001   6.145   5.420 -0.2862  0.3039 -0.4069
 4938TIP3    H136229   5.922   6.103   5.454  0.5725 -0.7474  0.3096
 4938TIP3    H236230   6.016   6.102   5.336  0.1977 -0.3330  0.0056
 4939TIP3   OH236231   1.669   0.725   0.016  0.3593 -0.6180 -0.3435
 4939TIP3    H136232   1.580   0.711  -0.017  0.3298 -0.6966 -0.2297
 4939TIP3    H236233   1.726   0.697  -0.056  0.2919  2.1844 -1.5688
 4940TIP3   OH236234   3.665   1.432  11.187 -0.0778  0.1739 -0.4702
 4940TIP3    H136235   3.724   1.408  11.115  0.3244 -2.0647  0.5694
 4940TIP3    H236236   3.724   1.463  11.256 -0.3323  0.6367 -0.4605
 4941TIP3   OH236237   4.729   2.899   1.672 -0.6664  0.3839 -0.7117
 4941TIP3    H136238   4.746   2.896   1.766 -2.2265  1.2388 -0.3741
 4941TIP3    H236239   4.703   2.990   1.655  0.0190  0.3391 -2.0412
 4942TIP3   OH236240   3.928   1.701  11.979 -0.3364 -0.9298  0.5454
 4942TIP3    H136241   3.848   1.682  11.931 -2.1983  0.6419  2.8893
 4942TIP3    H236242   3.962   1.781  11.939 -1.2393 -0.2767  1.0834
 4943TIP3   OH236243   1.248   1.280  16.600 -0.2565 -1.0324 -0.2087
 4943TIP3    H136244   1.160   1.316  16.591  0.8747  2.5461  1.8557
 4943TIP3    H236245   1.299   1.324  16.531  0.5038 -0.8861  0.4318
 4944TIP3   OH236246   0.764   2.646   5.289 -0.4531 -0.0813 -0.4609
 4944TIP3    H136247   0.710   2.593   5.230 -0.8044  0.5069 -0.6764
 4944TIP3    H236248   0.796   2.717   5.234 -0.5506  0.3160 -0.0049
 4945TIP3   OH236249   2.376   0.984   6.044 -0.0520  0.4802 -0.4059
 4945TIP3    H136250   2.330   1.065   6.068 -1.1298  0.0494 -0.9573
 4945TIP3    H236251   2.413   0.952   6.126 -2.1674 -0.0230  0.4037
 4946TIP3   OH236252   0.889   1.172   0.564 -0.1232  0.7423 -0.0185
 4946TIP3    H136253   0.814   1.220   0.528  0.7475  2.3999  0.3611
 4946TIP3    H236254   0.965   1.222   0.537  0.7035  0.5582  1.9149
 4947TIP3   OH236255   5.111   5.366   4.565  0.6203 -0.0229  0.0119
 4947TIP3    H136256   5.119   5.288   4.510  1.8937  0.4276 -0.4418
 4947TIP3    H236257   5.017   5.384   4.565  0.2867 -1.6289  0.2329
 4948TIP3   OH236258   2.026   5.603   5.024  0.1334  0.1523 -0.0802
 4948TIP3    H136259   1.991   5.644   5.102 -1.3609  2.6142 -2.0009
 4948TIP3    H236260   2.107   5.560   5.054 -0.1593  1.4399  2.6875
 4949TIP3   OH236261   0.313   3.338   3.646 -0.6690  0.3362  1.0994
 4949TIP3    H136262   0.229   3.378   3.669 -0.9548  1.2731 -1.4518
 4949TIP3    H236263   0.360   3.406   3.597  0.8537 -0.7940  0.9446
 4950TIP3   OH236264   4.043   0.331  16.667  0.1170 -0.3365 -0.0513
 4950TIP3    H136265   3.969   0.324  16.727 -0.1073  1.7679 -0.0501
 4950TIP3    H236266   4.007   0.310  16.581 -1.2770  3.7372 -0.5606
 4951TIP3   OH236267   1.393   3.747  14.604  0.0747  0.9650 -0.2151
 4951TIP3    H136268   1.393   3.754  14.700 -0.0981 -0.5696 -0.0961
 4951TIP3    H236269   1.436   3.664  14.586  0.3126  1.3618 -1.4878
 4952TIP3   OH236270   0.623   5.964  14.484  0.1664  1.0706 -0.1568
 4952TIP3    H136271   0.607   5.988  14.575  3.2191  1.3698  0.3697
 4952TIP3    H236272   0.698   6.018  14.458 -0.9448  1.3042 -2.9915
 4953TIP3   OH236273   3.266   0.037  14.776 -0.1633  0.2382 -0.2672
 4953TIP3    H136274   3.288   0.079  14.692  0.9063  1.5769  0.6720
 4953TIP3    H236275   3.190   0.085  14.807  0.1174  0.4615  0.0685
 4954TIP3   OH236276   3.394   6.051   4.718  0.5282 -0.1048 -0.5340
 4954TIP3    H136277   3.347   6.043   4.802 -1.0617  0.4168 -1.3572
 4954TIP3    H236278   3.442   6.133   4.726  2.0505 -1.0705  0.6564
 4955TIP3   OH236279   4.473   3.625   4.109 -0.2911 -0.6142  0.3175
 4955TIP3    H136280   4.394   3.596   4.064 -0.4186 -1.6030  1.1540
 4955TIP3    H236281   4.531   3.548   4.107  0.9206  0.2959 -0.8723
 4956TIP3   OH236282   5.819   2.523   1.222 -0.1488 -0.7057 -0.1085
 4956TIP3    H136283   5.849   2.599   1.172  2.0959 -0.8860  0.9247
 4956TIP3    H236284   5.821   2.552   1.314  0.0652 -1.7751  0.2380
 4957TIP3   OH236285   1.007   3.022  13.479 -0.0348 -0.2239  0.5593
 4957TIP3    H136286   1.025   2.974  13.398  0.1329  1.0030 -0.1604
 4957TIP3    H236287   0.951   2.964  13.530  0.3894 -1.2803 -0.1604
 4958TIP3   OH236288   0.208   2.669  16.013  0.0344  0.0411  0.3629
 4958TIP3    H136289   0.244   2.725  16.082  1.2310 -1.4653  0.9910
 4958TIP3    H236290   0.208   2.581  16.051 -0.2508 -0.6473 -1.1984
 4959TIP3   OH236291   1.217   4.410  14.807 -0.1781  0.0021  0.1465
 4959TIP3    H136292   1.240   4.499  14.783 -0.8423  0.7624  2.2134
 4959TIP3    H236293   1.300   4.367  14.825  0.0704  0.6223  0.4920
 4960TIP3   OH236294   5.255   3.676   0.553  0.0988  0.0984  0.1000
 4960TIP3    H136295   5.343   3.647   0.576  0.6680  2.2519  0.7182
 4960TIP3    H236296   5.266   3.724   0.471 -0.3069  1.3765  0.7910
 4961TIP3   OH236297   5.510   3.508   0.044 -0.0907 -0.2000 -0.2875
 4961TIP3    H136298   5.573   3.579   0.032  0.5407 -0.5482  0.8948
 4961TIP3    H236299   5.506   3.466  -0.042  0.5327  0.4506 -0.6420
 4962TIP3   OH236300   3.810   2.023  14.136  0.0521 -0.3288  0.5847
 4962TIP3    H136301   3.874   1.956  14.158 -1.1179 -1.4861  0.5565
 4962TIP3    H236302   3.744   2.017  14.206  0.5453  1.6109  1.2360
 4963TIP3   OH236303   3.083   2.959   3.248  0.2372 -0.4680 -0.0822
 4963TIP3    H136304   3.146   2.887   3.252  0.4896 -0.2603 -0.3033
 4963TIP3    H236305   3.111   3.019   3.317 -0.4289 -0.9485  0.6128
 4964TIP3   OH236306   0.547   3.380  11.265 -0.2881 -0.1601 -0.4340
 4964TIP3    H136307   0.501   3.401  11.183 -1.4112 -1.7418 -0.2306
 4964TIP3    H236308   0.482   3.396  11.333  0.0921 -0.5073  0.0118
 4965TIP3   OH236309   1.745   5.027  15.438  0.0246  0.2032  0.2058
 4965TIP3    H136310   1.666   5.074  15.466 -1.2204  0.4091 -3.4238
 4965TIP3    H236311   1.799   5.094  15.396 -0.2353 -0.8828 -1.9467
 4966TIP3   OH236312   5.627   6.196   6.181 -0.8134  0.3566  0.4362
 4966TIP3    H136313   5.558   6.233   6.235 -0.6724  0.7701  0.3328
 4966TIP3    H236314   5.679   6.271   6.153  1.5781 -0.2389  3.1058
 4967TIP3   OH236315   2.950   2.248  16.185  0.4231 -0.0157 -0.2612
 4967TIP3    H136316   2.982   2.195  16.259  1.3366 -0.4644 -0.9698
 4967TIP3    H236317   2.865   2.280  16.215  0.4679 -0.7594  0.7265
 4968TIP3   OH236318   6.358   3.266   5.050 -0.0182 -0.4984 -0.3494
 4968TIP3    H136319   6.278   3.277   5.102  0.2767  0.1770 -0.0209
 4968TIP3    H236320   6.328   3.250   4.961 -0.5428 -2.0631  0.0936
 4969TIP3   OH236321   5.194   2.222  16.918 -0.1026 -0.3717  0.0360
 4969TIP3    H136322   5.260   2.270  16.867  0.3429 -0.4119  0.5670
 4969TIP3    H236323   5.150   2.290  16.969 -0.3219 -0.3744 -0.1477
 4970TIP3   OH236324   2.226   1.877   3.835  0.2930  0.1699 -0.3258
 4970TIP3    H136325   2.317   1.870   3.865  0.1020 -0.8246  0.0622
 4970TIP3    H236326   2.221   1.816   3.762 -0.4473 -0.9487  0.6342
 4971TIP3   OH236327   4.944   0.146  15.694 -0.2279  0.1471  0.0646
 4971TIP3    H136328   4.881   0.097  15.746 -1.6632  0.0948 -1.6866
 4971TIP3    H236329   4.940   0.106  15.607  0.8395  1.3791 -0.5724
 4972TIP3   OH236330   4.640   5.157  14.266 -0.6013 -0.1978 -0.6534
 4972TIP3    H136331   4.672   5.187  14.351 -1.2770 -2.2462  0.3498
 4972TIP3    H236332   4.690   5.209  14.203  1.7098 -0.3845  0.9479
 4973TIP3   OH236333   2.605   5.847  12.638 -0.3702  0.2660 -0.4861
 4973TIP3    H136334   2.692   5.841  12.677 -0.6825  0.3078  0.2249
 4973TIP3    H236335   2.577   5.756  12.630  0.5011  0.1411 -2.4749
 4974TIP3   OH236336   6.266   4.176   1.429 -0.0923 -0.0052 -0.1227
 4974TIP3    H136337   6.275   4.248   1.491  0.5767 -0.2307  0.0514
 4974TIP3    H236338   6.187   4.130   1.457 -0.4999  0.6348 -0.2134
 4975TIP3   OH236339   5.947   4.855  17.030 -0.3993  0.4292 -0.2810
 4975TIP3    H136340   5.882   4.869  17.099 -0.1169  0.3211  0.0055
 4975TIP3    H236341   5.998   4.936  17.029  0.0189  0.1708  0.0851
 4976TIP3   OH236342   1.001   0.481   0.078  0.9436  0.0154  0.0224
 4976TIP3    H136343   0.947   0.488   0.156  1.4791 -1.1864  0.5018
 4976TIP3    H236344   0.949   0.524   0.009 -0.0082  0.0807  0.7764
 4977TIP3   OH236345   2.400   5.328  16.672  0.1103 -0.1170 -0.1957
 4977TIP3    H136346   2.313   5.330  16.632  0.0345 -0.3802 -0.0438
 4977TIP3    H236347   2.439   5.246  16.641 -0.0278 -0.4242  0.4328
 4978TIP3   OH236348   1.264   4.317   1.028 -0.8082 -0.5272 -0.1741
 4978TIP3    H136349   1.295   4.366   0.952 -1.3529  2.0550  1.2222
 4978TIP3    H236350   1.327   4.336   1.097 -1.7122 -0.8063  0.7430
 4979TIP3   OH236351   0.480   3.294  15.702 -0.6558  0.5074 -0.1529
 4979TIP3    H136352   0.399   3.248  15.677 -1.0154  1.0989 -0.0733
 4979TIP3    H236353   0.472   3.380  15.662 -0.3280  0.7715  0.3493
 4980TIP3   OH236354   2.850   4.671   4.981 -0.2848  0.0207  0.2909
 4980TIP3    H136355   2.787   4.700   5.047 -0.9656  0.8442 -0.7026
 4980TIP3    H236356   2.936   4.690   5.019 -0.7020  2.3287  0.1347
 4981TIP3   OH236357   3.848   5.051   6.353 -0.0735 -0.1416  0.4053
 4981TIP3    H136358   3.863   5.144   6.370  1.0826 -0.1452 -0.5541
 4981TIP3    H236359   3.763   5.033   6.393  0.5316  0.8803  2.2451
 4982TIP3   OH236360   1.048   6.579  11.185  0.1460 -0.7039 -0.0652
 4982TIP3    H136361   1.125   6.629  11.209 -1.2228  1.3936  0.0472
 4982TIP3    H236362   1.050   6.576  11.089  0.5058 -0.9256 -0.0531
 4983TIP3   OH236363   1.641   1.711  14.115  0.1678  0.1572  0.6199
 4983TIP3    H136364   1.707   1.769  14.154  1.5774 -1.6993  1.0716
 4983TIP3    H236365   1.610   1.759  14.038 -0.0004  2.2778  1.9453
 4984TIP3   OH236366   2.781   4.227  12.598  0.1198  0.4960 -0.0823
 4984TIP3    H136367   2.815   4.155  12.545  1.9994  1.3384 -0.0606
 4984TIP3    H236368   2.705   4.191  12.642  2.3107 -2.1609  1.6427
 4985TIP3   OH236369   4.887   0.859   2.567  0.6944 -0.1697 -0.0040
 4985TIP3    H136370   4.858   0.921   2.633  0.8642 -0.7626  0.6415
 4985TIP3    H236371   4.806   0.827   2.527  0.6153  0.5657 -0.4285
 4986TIP3   OH236372   0.118   0.341  15.737  0.0114  0.2642  0.0405
 4986TIP3    H136373   0.125   0.246  15.739  2.0524  0.3892 -0.1438
 4986TIP3    H236374   0.193   0.370  15.685 -1.6647  1.8822 -1.5737
 4987TIP3   OH236375   5.346   5.526   0.929 -0.2272  0.1906  0.5831
 4987TIP3    H136376   5.400   5.478   0.867  0.4214  0.4911  0.9054
 4987TIP3    H236377   5.391   5.609   0.941 -0.8915  0.5411  0.6766
 4988TIP3   OH236378   2.841   6.653   4.603 -0.0214  0.2335  1.0251
 4988TIP3    H136379   2.908   6.584   4.595  0.1357  0.4955 -0.1364
 4988TIP3    H236380   2.759   6.609   4.581  0.1097  0.4606  0.0613
 4989TIP3   OH236381   0.533   4.209  10.608 -0.1660  0.0370  0.3753
 4989TIP3    H136382   0.596   4.213  10.536  0.1656  0.2732  0.6739
 4989TIP3    H236383   0.579   4.162  10.677 -0.3337  0.1766  0.5809
 4990TIP3   OH236384   3.266   2.909  15.154 -0.3779 -0.1945 -0.2277
 4990TIP3    H136385   3.208   2.834  15.139  0.7457 -0.9392 -0.9470
 4990TIP3    H236386   3.289   2.904  15.247  0.0172 -1.0041 -0.3605
 4991TIP3   OH236387   1.621   4.190   4.281 -0.5009  0.5961 -0.4100
 4991TIP3    H136388   1.691   4.165   4.220 -1.4069 -1.3327 -0.6972
 4991TIP3    H236389   1.644   4.147   4.363 -0.8629  0.7260 -0.2398
 4992TIP3   OH236390   3.599   1.997   3.358  0.2347  0.0996 -0.0370
 4992TIP3    H136391   3.648   2.040   3.428  0.5884  2.1212 -1.4868
 4992TIP3    H236392   3.630   2.038   3.277  2.4239 -4.5918 -1.8002
 4993TIP3   OH236393   4.402   1.916  13.204  0.4471 -0.1250  0.0984
 4993TIP3    H136394   4.426   1.863  13.128  0.2897  0.1482 -0.1422
 4993TIP3    H236395   4.366   1.996  13.167 -1.5993 -0.8521  0.4648
 4994TIP3   OH236396   5.357   4.371   2.264 -0.6415 -0.3347 -0.1455
 4994TIP3    H136397   5.421   4.393   2.196 -0.3036  0.4509  0.4174
 4994TIP3    H236398   5.286   4.328   2.217  0.0860 -0.7913 -0.8439
 4995TIP3   OH236399   3.907   5.969  12.021 -0.0559 -0.1328  0.3794
 4995TIP3    H136400   3.829   6.023  12.012  0.2216  0.3432  0.7705
 4995TIP3    H236401   3.980   6.030  12.008  0.2589 -0.4187  0.7740
 4996TIP3   OH236402   4.224   3.924   6.090  0.3882 -0.4255  0.3056
 4996TIP3    H136403   4.139   3.965   6.075  1.9529  2.7479 -0.3961
 4996TIP3    H236404   4.237   3.929   6.185 -0.4102 -1.3962  0.4721
 4997TIP3   OH236405   6.636   4.164  15.419 -0.0045  0.2397  0.4587
 4997TIP3    H136406   6.680   4.087  15.454  3.7907  1.4999 -1.2820
 4997TIP3    H236407   6.638   4.227  15.491  0.3900  0.0412  0.6242
 4998TIP3   OH236408   2.400   3.258   0.498 -0.2867 -0.1702 -0.2549
 4998TIP3    H136409   2.400   3.268   0.402 -0.4409 -2.4321 -0.5310
 4998TIP3    H236410   2.411   3.164   0.511  0.1545  0.1860  1.9766
 4999TIP3   OH236411   4.017   1.277  16.044  0.0772  0.7175  0.2819
 4999TIP3    H136412   4.051   1.225  15.971 -2.6830 -0.3753 -0.3018
 4999TIP3    H236413   3.973   1.351  16.003 -1.5354  0.0722  0.8147
 5000TIP3   OH236414   4.651   6.602   6.138  0.3118  0.4378 -0.3977
 5000TIP3    H136415   4.618   6.679   6.184  0.7667 -0.0427  0.7631
 5000TIP3    H236416   4.746   6.616   6.133  0.7502 -1.2517  2.1863
 5001TIP3   OH236417   5.660   3.113   2.361  0.0911  0.0419 -0.1373
 5001TIP3    H136418   5.584   3.056   2.368 -0.8648  1.2804 -0.3722
 5001TIP3    H236419   5.711   3.094   2.440 -0.1825 -1.1697 -0.2396
 5002TIP3   OH236420   2.019   0.560   5.503 -0.2061  0.1091  0.0540
 5002TIP3    H136421   1.936   0.594   5.538  0.4313  1.2509  0.4648
 5002TIP3    H236422   2.073   0.637   5.490  1.0216 -0.6879  0.3465
 5003TIP3   OH236423   0.734   3.404   3.927  0.0673  0.2533 -0.2740
 5003TIP3    H136424   0.732   3.331   3.865  2.2697  1.8448 -2.3354
 5003TIP3    H236425   0.642   3.429   3.938 -0.5124 -1.3541 -1.3044
 5004TIP3   OH236426   3.008   1.320  12.861 -0.4127 -0.2630  0.0373
 5004TIP3    H136427   3.066   1.245  12.852 -0.0046 -0.0475  0.8560
 5004TIP3    H236428   2.962   1.306  12.944 -0.4361  0.3155  0.1266
 5005TIP3   OH236429   5.598   4.414  11.619  0.8026 -0.6169  0.2760
 5005TIP3    H136430   5.669   4.436  11.680 -1.4591  1.6830  2.1855
 5005TIP3    H236431   5.534   4.368  11.672 -0.2643 -0.4619 -0.8467
 5006TIP3   OH236432   0.120   2.756   2.251  0.3884 -0.3681  0.5531
 5006TIP3    H136433   0.034   2.736   2.213 -0.3914  2.1308  0.9162
 5006TIP3    H236434   0.151   2.832   2.202  1.0265  0.6032  2.4047
 5007TIP3   OH236435   0.477   5.645   0.412  0.5406  0.2111  0.4072
 5007TIP3    H136436   0.566   5.631   0.445 -0.3499 -0.8476  2.4568
 5007TIP3    H236437   0.435   5.559   0.419 -0.6444  0.6954 -0.5734
 5008TIP3   OH236438   6.727   4.739   3.603 -0.2085  0.0212  0.1868
 5008TIP3    H136439   6.695   4.816   3.556 -2.0218 -0.7672  0.0982
 5008TIP3    H236440   6.661   4.722   3.669  0.2748 -1.3589  0.3296
 5009TIP3   OH236441   2.093   2.320   2.014  0.3742 -0.7676 -0.2403
 5009TIP3    H136442   2.066   2.298   1.925  0.9899  0.0185 -0.6178
 5009TIP3    H236443   2.076   2.414   2.022  2.2311 -0.4243 -0.2034
 5010TIP3   OH236444   5.889   6.257   4.503 -0.5379 -0.1607 -0.0580
 5010TIP3    H136445   5.898   6.162   4.491 -1.5054 -0.6568  2.7407
 5010TIP3    H236446   5.979   6.287   4.519  0.2104 -0.0713 -3.8797
 5011TIP3   OH236447   1.453   2.126  10.616  0.2883  0.0660 -0.7889
 5011TIP3    H136448   1.449   2.071  10.694 -1.0037 -0.5458 -1.2664
 5011TIP3    H236449   1.546   2.131  10.595  0.7254  0.8451  1.2048
 5012TIP3   OH236450   5.285   3.151   1.525  0.1407 -0.1049 -0.2036
 5012TIP3    H136451   5.258   3.178   1.437  0.6914  1.6198  0.1318
 5012TIP3    H236452   5.218   3.089   1.553 -0.2224 -0.4107 -1.6942
 5013TIP3   OH236453   3.737   2.620   5.971 -0.0861 -0.0038 -0.3288
 5013TIP3    H136454   3.795   2.669   6.030  1.1762 -1.1152 -0.6222
 5013TIP3    H236455   3.721   2.538   6.017 -1.1836  0.1620 -0.4052
 5014TIP3   OH236456   3.992   0.637   5.244  0.8424  0.0837 -0.5564
 5014TIP3    H136457   4.014   0.724   5.212 -0.7981  1.5414  2.0922
 5014TIP3    H236458   3.993   0.645   5.339  0.8211 -2.8458 -0.2494
 5015TIP3   OH236459   1.315   2.948  13.208  0.0587  0.3202  0.6159
 5015TIP3    H136460   1.229   2.990  13.220 -0.1498 -0.0552  0.4309
 5015TIP3    H236461   1.325   2.941  13.113  1.3795  2.5893  0.5586
 5016TIP3   OH236462   6.583   1.330  16.835 -0.3002  0.6049 -0.1790
 5016TIP3    H136463   6.503   1.360  16.791  0.1890  1.9278 -0.2074
 5016TIP3    H236464   6.634   1.410  16.849 -0.0416  0.0985  1.9822
 5017TIP3   OH236465   1.396   6.392   3.936  0.2284  0.1718  0.4453
 5017TIP3    H136466   1.409   6.307   3.893  1.0075 -0.5689  2.1394
 5017TIP3    H236467   1.464   6.397   4.003 -2.5122  0.1846  3.3445
 5018TIP3   OH236468   3.443   0.505  13.889  0.2299 -0.2077 -0.4451
 5018TIP3    H136469   3.377   0.567  13.920 -0.7765 -2.0026  1.0752
 5018TIP3    H236470   3.398   0.452  13.824  0.2693 -1.1463  0.2771
 5019TIP3   OH236471   6.505   4.842  15.113  0.3662 -0.0340  0.4811
 5019TIP3    H136472   6.485   4.775  15.178  0.1845  0.7890  1.2719
 5019TIP3    H236473   6.571   4.897  15.154 -0.3534  0.9747  0.2927
 5020TIP3   OH236474   4.508   2.408   2.810 -0.0334  0.3384  0.6532
 5020TIP3    H136475   4.532   2.320   2.840 -4.1723 -0.8738  0.6654
 5020TIP3    H236476   4.464   2.448   2.885 -2.4023  0.6020 -0.8233
 5021TIP3   OH236477   1.945   4.141   5.708  0.1105  0.2284 -0.0845
 5021TIP3    H136478   1.892   4.218   5.688 -0.0622  0.0864 -0.1749
 5021TIP3    H236479   1.895   4.094   5.774 -0.1567 -0.2037 -0.5892
 5022TIP3   OH236480   4.753   0.847   1.143  0.1334  0.3323  0.9124
 5022TIP3    H136481   4.790   0.845   1.055  0.0820  0.3189  0.8912
 5022TIP3    H236482   4.818   0.894   1.196  0.7453 -0.7482  1.1424
 5023TIP3   OH236483   2.664   5.159   5.822  0.1269  0.2326  0.8541
 5023TIP3    H136484   2.709   5.105   5.887 -0.1206  0.1876  0.9908
 5023TIP3    H236485   2.716   5.150   5.743 -0.4276 -0.9801  0.6025
 5024TIP3   OH236486   4.156   2.062  13.977  0.4600 -0.0307 -0.8471
 5024TIP3    H136487   4.237   2.020  13.948  0.1642 -0.2655 -1.3212
 5024TIP3    H236488   4.163   2.063  14.073  1.0249 -0.0477 -0.8870
 5025TIP3   OH236489   4.178   3.818  11.413  0.0215 -0.4893 -0.0873
 5025TIP3    H136490   4.224   3.864  11.343 -0.8098  2.0333  0.9630
 5025TIP3    H236491   4.119   3.759  11.368  2.0582 -1.5194 -1.4699
 5026TIP3   OH236492   2.364   6.580   3.036  0.4051  0.2881  0.0791
 5026TIP3    H136493   2.445   6.579   2.985  1.1199  1.1987  1.1677
 5026TIP3    H236494   2.365   6.666   3.080 -0.7443 -0.0268  0.7259
 5027TIP3   OH236495   0.548   5.831   5.995  0.1078 -0.0933  0.5498
 5027TIP3    H136496   0.540   5.836   6.090  1.1959  2.6242  0.5245
 5027TIP3    H236497   0.466   5.867   5.962  0.7636  1.3572  0.4668
 5028TIP3   OH236498   6.392   2.271  15.841  0.1122  0.2617  0.3396
 5028TIP3    H136499   6.464   2.327  15.814  1.0689 -1.3202 -0.4580
 5028TIP3    H236500   6.317   2.330  15.848  0.8444  1.4535 -1.5356
 5029TIP3   OH236501   4.481   1.199  13.586 -0.2983 -0.4357 -0.7038
 5029TIP3    H136502   4.404   1.160  13.627  0.6689 -3.0215 -1.2909
 5029TIP3    H236503   4.556   1.155  13.626  0.8934  1.5385 -0.6560
 5030TIP3   OH236504   5.180   1.365   2.497 -0.3104  0.2654 -0.1615
 5030TIP3    H136505   5.166   1.340   2.589  0.9366  0.8198  0.1843
 5030TIP3    H236506   5.206   1.284   2.454  0.5708  0.2924  0.2989
 5031TIP3   OH236507   1.269   0.515   1.928 -0.0901 -0.2932  0.7371
 5031TIP3    H136508   1.228   0.451   1.870  1.1687 -0.1600 -0.3287
 5031TIP3    H236509   1.247   0.600   1.889  2.2186 -0.2612 -0.5707
 5032TIP3   OH236510   0.199   4.989  15.519 -0.7038 -0.3760 -0.0256
 5032TIP3    H136511   0.207   5.000  15.614  2.3600 -1.3800 -0.1109
 5032TIP3    H236512   0.142   4.914  15.509 -2.3227  0.6877  0.9826
 5033TIP3   OH236513   2.745   3.003   1.710 -0.4479  0.2594  0.2020
 5033TIP3    H136514   2.762   2.921   1.664 -1.8151  0.4533 -0.6800
 5033TIP3    H236515   2.768   2.984   1.801 -0.0409 -0.8690 -0.1214
 5034TIP3   OH236516   4.793   3.725   5.500 -0.2426  0.5276 -0.5471
 5034TIP3    H136517   4.784   3.630   5.514 -1.5891  0.6424 -0.4996
 5034TIP3    H236518   4.867   3.751   5.553 -0.3476 -0.3763  0.0528
 5035TIP3   OH236519   2.475   3.086  13.896 -0.2890 -0.5734 -0.1495
 5035TIP3    H136520   2.423   3.121  13.968  0.1549 -1.4365  0.6030
 5035TIP3    H236521   2.552   3.048  13.939 -0.5102 -1.9989 -0.9955
 5036TIP3   OH236522   5.866   0.337  14.845  0.1657  0.4241  0.3691
 5036TIP3    H136523   5.799   0.315  14.910 -2.2390  2.3297 -1.3599
 5036TIP3    H236524   5.817   0.347  14.763  2.9443 -0.5471 -1.4754
 5037TIP3   OH236525   6.186   4.795   3.123 -0.7176  0.2632 -0.1316
 5037TIP3    H136526   6.180   4.884   3.160 -1.4818  0.0376  0.2986
 5037TIP3    H236527   6.144   4.739   3.188  1.0801 -0.6329  0.3030
 5038TIP3   OH236528   6.378   0.943  16.947 -0.8285 -0.1188  0.2298
 5038TIP3    H136529   6.362   0.979  17.034 -0.7359 -0.5073  0.4069
 5038TIP3    H236530   6.348   0.852  16.952 -0.5053 -0.2422 -0.0458
 5039TIP3   OH236531   4.795   2.745   4.922 -0.1612 -0.0771  0.6402
 5039TIP3    H136532   4.765   2.788   5.002 -0.5009 -2.1841  1.6678
 5039TIP3    H236533   4.715   2.719   4.877  0.0520 -0.4740  0.4859
 5040TIP3   OH236534   6.766   2.213   4.616 -0.1789 -0.4453  0.0407
 5040TIP3    H136535   6.814   2.236   4.536  2.1711  2.4138  2.1666
 5040TIP3    H236536   6.675   2.233   4.596  0.2564 -0.6145 -2.2237
 5041TIP3   OH236537   1.630   4.223   0.930  0.0041 -0.7018  0.0692
 5041TIP3    H136538   1.597   4.285   0.865 -2.2244 -0.1344  1.6645
 5041TIP3    H236539   1.609   4.137   0.895  0.0545 -0.4534 -0.5762
 5042TIP3   OH236540   1.038   2.774  16.093  0.2515 -0.0882  0.5538
 5042TIP3    H136541   0.950   2.740  16.110  0.3374 -0.2335  0.7060
 5042TIP3    H236542   1.033   2.866  16.119 -0.8980  0.9033 -2.9050
 5043TIP3   OH236543   1.604   5.813  13.113  0.4205 -0.0778  0.0380
 5043TIP3    H136544   1.524   5.797  13.063  0.1376  0.1398  0.4235
 5043TIP3    H236545   1.621   5.907  13.101  0.1993  0.0304  0.5815
 5044TIP3   OH236546   2.143   5.551   1.663  0.0879  0.4530  0.1295
 5044TIP3    H136547   2.056   5.591   1.669 -0.1466  0.1828 -1.2781
 5044TIP3    H236548   2.175   5.578   1.577  0.4682 -1.3189 -0.2883
 5045TIP3   OH236549   5.756   6.438  16.209  0.2015 -0.6061  0.2329
 5045TIP3    H136550   5.681   6.382  16.188  1.4062 -2.5155  0.9016
 5045TIP3    H236551   5.749   6.511  16.147 -1.1976 -1.6664 -0.9095
 5046TIP3   OH236552   0.707   1.194   4.945  0.4977 -0.5598 -0.6195
 5046TIP3    H136553   0.648   1.118   4.952  1.5338 -1.3311 -0.0516
 5046TIP3    H236554   0.653   1.262   4.904 -1.2424 -0.7704  1.2325
 5047TIP3   OH236555   2.685   0.793   4.418 -0.0897  0.3628  0.0736
 5047TIP3    H136556   2.675   0.875   4.369  0.6443  0.1079 -0.4997
 5047TIP3    H236557   2.629   0.805   4.495 -2.5172  0.1360 -1.6097
 5048TIP3   OH236558   3.369   0.205  13.316  0.0833  0.7188 -0.2351
 5048TIP3    H136559   3.342   0.168  13.231 -0.5844  2.1535 -0.6630
 5048TIP3    H236560   3.420   0.282  13.293 -0.9541  1.6854  0.6732
 5049TIP3   OH236561   3.272   1.636  14.561 -0.2044  0.3744 -0.0604
 5049TIP3    H136562   3.302   1.670  14.476  1.8297 -1.2468 -0.0191
 5049TIP3    H236563   3.178   1.650  14.560 -0.1221  0.9715 -2.3244
 5050TIP3   OH236564   6.665   4.517  14.536  0.1771  0.0422 -0.8055
 5050TIP3    H136565   6.617   4.593  14.569 -1.3245 -1.4393  0.5238
 5050TIP3    H236566   6.598   4.451  14.519  1.5590 -1.3969 -0.8211
 5051TIP3   OH236567   3.731   4.408  13.814 -0.2269 -0.4966 -0.0868
 5051TIP3    H136568   3.819   4.381  13.787 -0.5087 -1.9821  0.4011
 5051TIP3    H236569   3.719   4.495  13.777  1.4578 -0.2862 -0.1415
 5052TIP3   OH236570   5.479   0.238   2.338  0.2565 -0.4417 -0.0897
 5052TIP3    H136571   5.528   0.264   2.259 -0.1839  0.8874  0.0610
 5052TIP3    H236572   5.474   0.318   2.390 -2.3788 -0.4854 -0.2468
 5053TIP3   OH236573   6.391   1.361   0.034  0.5384  0.5103 -0.7005
 5053TIP3    H136574   6.477   1.402   0.021  0.8075 -0.1371 -0.9907
 5053TIP3    H236575   6.410   1.268   0.043  0.0970  0.6099  1.5940
 5054TIP3   OH236576   1.944   3.400  12.505  0.3468  0.1890 -0.6484
 5054TIP3    H136577   1.970   3.438  12.421  1.1049  0.8114 -0.1418
 5054TIP3    H236578   1.898   3.319  12.482  2.4794 -0.7876 -1.6079
 5055TIP3   OH236579   3.277   6.616   5.587 -0.0277  0.8211 -0.1285
 5055TIP3    H136580   3.268   6.595   5.494 -0.8543 -2.6176  0.6309
 5055TIP3    H236581   3.372   6.618   5.602  0.1058 -0.8938 -0.6217
 5056TIP3   OH236582   0.898   1.653   2.219 -0.9537 -0.1147  0.4071
 5056TIP3    H136583   0.898   1.747   2.201  1.8682 -0.0778  0.3150
 5056TIP3    H236584   0.886   1.612   2.134  1.9116  0.1736 -0.2058
 5057TIP3   OH236585   5.467   4.933   2.248 -0.0638  0.7197  0.0971
 5057TIP3    H136586   5.529   5.005   2.239  1.3245 -0.8949 -4.9704
 5057TIP3    H236587   5.519   4.854   2.232 -1.9992 -1.3208  3.2737
 5058TIP3   OH236588   4.227   6.476  11.473 -0.0358  0.0049 -0.0936
 5058TIP3    H136589   4.136   6.488  11.447  0.2418  0.6135 -0.7944
 5058TIP3    H236590   4.222   6.429  11.557 -0.9724 -0.4782 -0.4163
 5059TIP3   OH236591   4.884   5.468  11.801  0.0495  0.1879  0.4413
 5059TIP3    H136592   4.896   5.435  11.713  0.4583 -0.6111  0.7939
 5059TIP3    H236593   4.915   5.398  11.858  1.1872  1.2874  1.1949
 5060TIP3   OH236594   6.045   4.910   0.755 -0.1091  0.0751  0.4372
 5060TIP3    H136595   6.054   4.853   0.679  0.6036 -0.0046  0.5752
 5060TIP3    H236596   5.956   4.895   0.786 -0.4721  0.2586 -0.4989
 5061TIP3   OH236597   2.709   0.441   2.767 -0.0268  0.3571  0.5759
 5061TIP3    H136598   2.714   0.492   2.686 -0.1584  0.3687  0.5742
 5061TIP3    H236599   2.675   0.502   2.832 -0.6766  0.1346  0.4522
 5062TIP3   OH236600   4.612   1.346   2.172  0.2685  0.6202  0.2166
 5062TIP3    H136601   4.637   1.281   2.106  2.2636  1.5778 -0.0207
 5062TIP3    H236602   4.520   1.327   2.191  0.4457 -1.4385 -0.7905
 5063TIP3   OH236603   0.277   4.401   4.883  0.3609  0.2648 -0.3328
 5063TIP3    H136604   0.240   4.469   4.827  0.2709  1.3186  0.9636
 5063TIP3    H236605   0.204   4.371   4.937  0.1584 -1.6350 -1.6083
 5064TIP3   OH236606   2.910   0.627  14.033 -0.2923  0.4035  0.1153
 5064TIP3    H136607   2.913   0.711  14.079  0.1523  1.3543 -1.5846
 5064TIP3    H236608   2.820   0.620  14.003 -0.9109 -0.8230  2.1742
 5065TIP3   OH236609   5.352   1.216   4.904  0.0253 -0.0874  0.2807
 5065TIP3    H136610   5.359   1.198   4.998 -0.2817  1.4729  0.6155
 5065TIP3    H236611   5.259   1.207   4.884 -0.0608  0.5986  0.3510
 5066TIP3   OH236612   3.173   3.907   1.898 -0.4872 -0.8732  0.0620
 5066TIP3    H136613   3.234   3.861   1.956  0.9385  1.1555  0.2031
 5066TIP3    H236614   3.153   3.844   1.829  2.0224 -1.4603 -0.1708
 5067TIP3   OH236615   1.846   3.557   2.039  0.1221 -0.2216  0.3114
 5067TIP3    H136616   1.937   3.562   2.068  0.7974 -2.0949 -1.2954
 5067TIP3    H236617   1.814   3.473   2.074 -1.5331  1.1739  2.2440
 5068TIP3   OH236618   1.327   0.814  12.498 -0.1168 -0.3804 -0.0836
 5068TIP3    H136619   1.375   0.865  12.433  1.3180 -1.7506 -0.1146
 5068TIP3    H236620   1.281   0.747  12.446 -1.7491  0.6606 -0.0165
 5069TIP3   OH236621   4.783   2.682  11.500 -0.2705  0.1624 -0.0493
 5069TIP3    H136622   4.786   2.665  11.594 -0.5347 -2.1397 -0.4476
 5069TIP3    H236623   4.702   2.731  11.487 -1.0558 -0.9204  0.7200
 5070TIP3   OH236624   1.767   5.173   1.406  0.1259  0.3784 -0.1631
 5070TIP3    H136625   1.770   5.255   1.454 -0.6556  1.4460 -1.9100
 5070TIP3    H236626   1.850   5.130   1.426  1.0548  2.1353 -0.2079
 5071TIP3   OH236627   3.916   5.137  15.988 -0.2240 -0.7706 -0.2978
 5071TIP3    H136628   3.962   5.091  15.918 -2.0854 -1.4605 -1.1116
 5071TIP3    H236629   3.942   5.229  15.978  1.5211 -1.2513 -0.2673
 5072TIP3   OH236630   3.742   2.464   3.298  0.3427  0.2713  0.5856
 5072TIP3    H136631   3.791   2.522   3.356 -1.5825  2.7741 -0.1905
 5072TIP3    H236632   3.658   2.451   3.343 -1.4812  2.8511 -1.8485
 5073TIP3   OH236633   1.808   2.047  16.160 -0.4268  0.2488  0.3454
 5073TIP3    H136634   1.799   2.111  16.231 -0.2253 -0.0396  0.6317
 5073TIP3    H236635   1.879   1.989  16.188 -2.2142 -1.5895  1.2395
 5074TIP3   OH236636   1.391   1.969  13.719 -0.1768  0.2785 -0.0651
 5074TIP3    H136637   1.451   1.937  13.786  1.7579  3.0714 -0.4133
 5074TIP3    H236638   1.416   1.923  13.639  1.0559  0.9286 -0.0547
 5075TIP3   OH236639   1.590   5.053  16.319 -0.4208  0.0525  0.1130
 5075TIP3    H136640   1.526   4.993  16.281 -1.0035  0.2541  0.7645
 5075TIP3    H236641   1.603   5.120  16.252 -0.9693  0.0590  0.0097
 5076TIP3   OH236642   6.395   0.731  11.103 -0.0136  0.5410  0.1254
 5076TIP3    H136643   6.329   0.662  11.104  1.2984 -0.7222  0.2775
 5076TIP3    H236644   6.394   0.767  11.192 -0.4093  0.4445  0.1602
 5077TIP3   OH236645   1.468   4.954   0.564  0.1641  0.1065 -0.0002
 5077TIP3    H136646   1.511   4.880   0.606  1.2321  0.6656 -0.0922
 5077TIP3    H236647   1.376   4.929   0.558  0.3705 -0.8325  0.7817
 5078TIP3   OH236648   3.061   3.535  12.386  0.3690  0.0431  0.0184
 5078TIP3    H136649   3.111   3.608  12.349 -0.4529  0.3018 -0.5847
 5078TIP3    H236650   3.099   3.457  12.345 -1.3627  0.4101 -2.3537
 5079TIP3   OH236651   6.688   0.671   4.023 -0.6686 -0.9341 -0.0328
 5079TIP3    H136652   6.742   0.594   4.008 -1.5137 -1.7192  0.8456
 5079TIP3    H236653   6.716   0.704   4.108 -2.6702 -2.3252  1.2184
 5080TIP3   OH236654   1.105   1.841  12.289  0.3132 -0.2174  0.6637
 5080TIP3    H136655   1.070   1.839  12.200  2.6388  0.0711 -0.2937
 5080TIP3    H236656   1.098   1.933  12.316 -0.4931 -0.3247  0.8457
 5081TIP3   OH236657   1.786   2.892   5.088  0.5545  0.0265 -0.2765
 5081TIP3    H136658   1.747   2.980   5.083 -0.5478 -0.3224  1.8939
 5081TIP3    H236659   1.877   2.908   5.114 -0.1774  0.4407  2.1282
 5082TIP3   OH236660   5.228   2.415  14.927 -0.3619 -0.2381  0.0861
 5082TIP3    H136661   5.284   2.388  15.000  1.5095  1.1557 -0.7709
 5082TIP3    H236662   5.171   2.483  14.963  0.5923  0.4815  0.2576
 5083TIP3   OH236663   5.769   5.976   2.362  0.3711 -0.4577 -0.0557
 5083TIP3    H136664   5.779   6.051   2.305  1.4536 -0.2231  0.4213
 5083TIP3    H236665   5.796   5.901   2.309  0.2772 -0.3779 -0.2141
 5084TIP3   OH236666   1.222   3.840   5.946 -0.2801  0.4205 -0.2918
 5084TIP3    H136667   1.150   3.828   6.008 -0.8647  0.1918 -1.0048
 5084TIP3    H236668   1.182   3.830   5.860  0.9488 -1.6435 -0.6563
 5085TIP3   OH236669   2.848   3.064  11.644  0.0177 -0.8677  0.4142
 5085TIP3    H136670   2.789   3.019  11.584  0.1006  0.1900 -0.4727
 5085TIP3    H236671   2.795   3.134  11.683  1.0238  1.0497 -1.4997
 5086TIP3   OH236672   0.890   5.623  11.996  0.2303 -0.4587 -0.2743
 5086TIP3    H136673   0.817   5.656  11.944  2.1308 -0.9736 -3.3811
 5086TIP3    H236674   0.949   5.697  12.007  0.9429 -0.9340 -0.8440
 5087TIP3   OH236675   2.569   1.829   0.654 -0.6275 -0.1458  0.1116
 5087TIP3    H136676   2.645   1.856   0.602 -0.6082 -2.1651 -0.9566
 5087TIP3    H236677   2.596   1.845   0.745  0.5543  0.4191 -0.3202
 5088TIP3   OH236678   3.607   3.144   6.554  0.5105  0.6621  0.3081
 5088TIP3    H136679   3.629   3.156   6.647  1.2058  1.8550 -0.0033
 5088TIP3    H236680   3.688   3.162   6.507 -0.3338  2.1360 -0.6608
 5089TIP3   OH236681   0.825   1.663   0.610  0.0815 -0.0576  0.0682
 5089TIP3    H136682   0.878   1.603   0.557 -1.0011  0.4686 -1.6680
 5089TIP3    H236683   0.876   1.744   0.611 -0.7269  0.5085 -1.7605
 5090TIP3   OH236684   5.818   6.688   2.407 -0.5582 -0.6237  0.3218
 5090TIP3    H136685   5.741   6.729   2.368 -0.4022  2.5409  3.1034
 5090TIP3    H236686   5.892   6.733   2.366 -0.2622 -1.2431  0.1721
 5091TIP3   OH236687   5.191   4.198   2.139  0.4880  0.6841  0.6423
 5091TIP3    H136688   5.101   4.178   2.165  0.3197 -0.2617 -0.5938
 5091TIP3    H236689   5.227   4.113   2.111  1.9167  0.9611  1.5829
 5092TIP3   OH236690   0.738   5.887   2.810 -0.0909 -0.0418  0.0890
 5092TIP3    H136691   0.708   5.880   2.900 -1.8395  1.0039 -0.3867
 5092TIP3    H236692   0.674   5.944   2.768  2.7051  2.4813 -0.9227
 5093TIP3   OH236693   4.715   1.592   4.244 -0.3746  0.7679  0.4939
 5093TIP3    H136694   4.764   1.521   4.286 -0.6055  0.9859  1.1338
 5093TIP3    H236695   4.783   1.647   4.205 -0.1428  0.7230  0.8295
 5094TIP3   OH236696   0.461   1.400   5.189  0.3954 -0.1179  0.8277
 5094TIP3    H136697   0.476   1.446   5.271 -1.3550  0.8453  0.6352
 5094TIP3    H236698   0.414   1.320   5.215  0.1539  0.0136  0.7930
 5095TIP3   OH236699   1.488   6.052   5.652 -0.4997 -0.3067  0.2418
 5095TIP3    H136700   1.559   6.108   5.619  0.2123 -0.9590  0.6551
 5095TIP3    H236701   1.525   6.010   5.730 -2.0262  0.9287  1.6732
 5096TIP3   OH236702   1.433   2.080  16.152  0.0206 -0.8224 -0.2512
 5096TIP3    H136703   1.500   2.038  16.098  0.3747  0.0129 -0.4611
 5096TIP3    H236704   1.439   2.036  16.237  0.9748 -0.5939 -0.2024
 5097TIP3   OH236705   3.748   4.877  14.531 -0.2843  0.2037 -0.3429
 5097TIP3    H136706   3.787   4.960  14.559  0.1441 -0.2390  0.3732
 5097TIP3    H236707   3.814   4.839  14.472  0.3746 -0.5346  0.8514
 5098TIP3   OH236708   1.540   4.040   6.487  0.3361  0.0599 -0.2907
 5098TIP3    H136709   1.587   4.117   6.519 -0.6245  0.1176  1.0088
 5098TIP3    H236710   1.455   4.073   6.459  0.6303 -0.2307 -1.6118
 5099TIP3   OH236711   1.973   1.917   2.676  0.1709  0.0489 -0.0277
 5099TIP3    H136712   2.021   1.883   2.600  0.0959 -1.0663  0.4116
 5099TIP3    H236713   1.962   1.841   2.733 -1.2838  0.5166  0.3187
 5100TIP3   OH236714   2.769   5.695   2.429  0.2211  0.2290  0.1033
 5100TIP3    H136715   2.747   5.634   2.499 -0.8622  0.3599 -0.1078
 5100TIP3    H236716   2.706   5.767   2.439  0.9009  0.8706 -0.2049
 5101TIP3   OH236717   3.054   0.681   0.223 -0.1581 -0.5178  0.2953
 5101TIP3    H136718   2.961   0.695   0.240  0.1330  0.4304  1.1349
 5101TIP3    H236719   3.093   0.669   0.309  0.5514 -0.5904 -0.0304
 5102TIP3   OH236720   0.901   1.115  13.594 -0.3676  0.3611 -0.7386
 5102TIP3    H136721   0.890   1.165  13.675  0.9244 -0.7030  0.1164
 5102TIP3    H236722   0.833   1.048  13.598 -1.2818  1.2460 -1.2753
 5103TIP3   OH236723   3.441   3.674  10.995  0.1782  0.1189  0.3333
 5103TIP3    H136724   3.396   3.660  10.912  1.1871 -1.2894 -0.0025
 5103TIP3    H236725   3.454   3.769  11.000 -0.7699  0.3104 -0.6416
 5104TIP3   OH236726   0.609   4.880   5.321  0.3861  0.1124  0.0979
 5104TIP3    H136727   0.566   4.964   5.311 -0.4232 -0.3893 -0.6504
 5104TIP3    H236728   0.553   4.831   5.381  1.2991  0.3966  1.2166
 5105TIP3   OH236729   5.348   5.683  12.896 -0.3448 -0.0194 -0.0907
 5105TIP3    H136730   5.428   5.635  12.876  0.2561  0.9690 -0.0912
 5105TIP3    H236731   5.360   5.768  12.853 -1.3476  0.1709 -0.0012
 5106TIP3   OH236732   0.481   1.392   3.605  0.3416  0.1080 -0.1228
 5106TIP3    H136733   0.531   1.411   3.684  1.6537  0.6400 -1.0438
 5106TIP3    H236734   0.470   1.477   3.562  0.4669 -0.2861 -0.9665
 5107TIP3   OH236735   1.036   3.810  11.439 -0.0334 -0.0613 -0.2423
 5107TIP3    H136736   1.072   3.863  11.510 -0.3033  0.3697 -0.4227
 5107TIP3    H236737   0.949   3.783  11.471  1.4217 -3.2470  1.2677
 5108TIP3   OH236738   4.378   0.534   3.428  0.6142  0.4652  0.3769
 5108TIP3    H136739   4.437   0.577   3.490 -0.4121  0.9902  0.9964
 5108TIP3    H236740   4.406   0.566   3.342  1.2664  0.6614  0.6588
 5109TIP3   OH236741   5.384   5.600   2.234 -0.2603 -0.1316  0.0860
 5109TIP3    H136742   5.442   5.532   2.269 -0.0370 -0.4678 -0.9430
 5109TIP3    H236743   5.403   5.677   2.289  0.0258 -0.6791  0.7674
 5110TIP3   OH236744   2.669   3.429  11.350 -0.2731  0.0222 -0.5793
 5110TIP3    H136745   2.613   3.500  11.319 -0.1305  0.5044  0.2676
 5110TIP3    H236746   2.736   3.421  11.283 -2.4143 -1.8545 -2.6128
 5111TIP3   OH236747   5.735   3.663  16.852  0.8438 -0.1056 -0.0160
 5111TIP3    H136748   5.649   3.625  16.836  1.1226 -0.9856  0.5454
 5111TIP3    H236749   5.741   3.735  16.789 -1.0689  1.1896  1.2355
 5112TIP3   OH236750   2.464   3.058   1.621  0.2186 -0.4489  0.7871
 5112TIP3    H136751   2.451   3.062   1.716  1.9021 -1.2096  1.0902
 5112TIP3    H236752   2.546   3.008   1.611 -0.5193 -1.3221 -1.1044
 5113TIP3   OH236753   5.129   0.820  11.988  0.4377  0.1013  0.1681
 5113TIP3    H136754   5.162   0.895  11.938 -0.5386  1.3570  1.3345
 5113TIP3    H236755   5.047   0.796  11.945  1.0681 -0.7161 -0.5854
 5114TIP3   OH236756   5.787   3.280  16.847  0.0734 -0.1684  0.4387
 5114TIP3    H136757   5.827   3.321  16.771 -0.2111  2.4224  1.6076
 5114TIP3    H236758   5.694   3.274  16.826  0.3622 -1.8829 -0.4244
 5115TIP3   OH236759   0.896   5.797  14.996 -0.1932 -0.0898  0.9163
 5115TIP3    H136760   0.942   5.876  15.025 -0.4837  1.2710 -2.1039
 5115TIP3    H236761   0.803   5.819  15.005 -0.3241  1.0839 -2.6743
 5116TIP3   OH236762   2.569   3.013  11.773  0.3260  0.0695 -0.5368
 5116TIP3    H136763   2.640   2.999  11.835  0.8500  0.6813 -1.0046
 5116TIP3    H236764   2.562   2.930  11.725 -1.4167 -1.1445  1.6840
 5117TIP3   OH236765   3.484   3.464   1.329 -0.1525  0.5374  0.1870
 5117TIP3    H136766   3.464   3.507   1.412 -0.0318  1.1053 -0.0746
 5117TIP3    H236767   3.403   3.467   1.279 -0.1711  0.3712  0.2064
 5118TIP3   OH236768   2.490   1.213   3.094  0.7098 -0.1700  0.1512
 5118TIP3    H136769   2.503   1.185   3.004 -1.3954 -0.9061  0.0448
 5118TIP3    H236770   2.504   1.308   3.091  0.2230 -0.1226 -1.0419
 5119TIP3   OH236771   2.451   2.730   3.884  0.2547  0.2355  0.6267
 5119TIP3    H136772   2.404   2.738   3.967 -1.2966 -0.5082 -0.1644
 5119TIP3    H236773   2.512   2.657   3.898  0.1314  0.2371  1.1676
 5120TIP3   OH236774   4.931   1.615  11.267  0.0746 -0.4035 -0.0057
 5120TIP3    H136775   4.857   1.587  11.320  0.3689  0.2569  0.7659
 5120TIP3    H236776   4.994   1.651  11.330 -0.0738  1.4765 -0.9029
 5121TIP3   OH236777   2.189   2.895  12.333 -0.2078  0.2480  0.1797
 5121TIP3    H136778   2.270   2.913  12.286 -0.7831  3.3224  0.2597
 5121TIP3    H236779   2.207   2.921  12.423 -0.5339 -1.4011  0.7513
 5122TIP3   OH236780   0.949   4.319  13.547 -0.2845  0.2336  0.0781
 5122TIP3    H136781   0.881   4.336  13.482  1.0068  2.5591 -0.7398
 5122TIP3    H236782   1.022   4.374  13.519  0.7786  0.2305  2.7555
 5123TIP3   OH236783   0.009   1.363  16.495  0.0259 -0.0555 -0.2082
 5123TIP3    H136784  -0.086   1.362  16.481  0.3019 -1.9625 -2.2675
 5123TIP3    H236785   0.040   1.436  16.442 -0.1015 -0.6689 -1.1447
 5124TIP3   OH236786   4.266   3.237  16.090 -0.1211 -0.1370 -0.2107
 5124TIP3    H136787   4.230   3.149  16.108  2.4107 -1.1630 -0.0422
 5124TIP3    H236788   4.298   3.232  16.001  0.9241  0.3248  0.1356
 5125TIP3   OH236789   6.506   0.862  12.750 -0.5501  0.0483  0.1025
 5125TIP3    H136790   6.447   0.934  12.774 -0.5374 -0.0198  0.3413
 5125TIP3    H236791   6.491   0.795  12.817 -0.0729  0.1007  0.2599
 5126TIP3   OH236792   6.168   3.643  13.560 -0.4373 -0.6628  0.5429
 5126TIP3    H136793   6.096   3.632  13.621 -0.1941 -0.5383  0.8520
 5126TIP3    H236794   6.227   3.705  13.602 -1.6342  1.6429 -1.0513
 5127TIP3   OH236795   0.832   4.848  17.057  0.1358  0.3996  0.0244
 5127TIP3    H136796   0.885   4.771  17.037 -0.7867 -0.2901  0.2097
 5127TIP3    H236797   0.758   4.814  17.107 -0.6370  1.3097 -0.4778
 5128TIP3   OH236798   0.987   2.009   5.096 -0.0276 -0.3798 -0.1682
 5128TIP3    H136799   0.978   2.029   5.189  0.0878  2.7794 -0.7604
 5128TIP3    H236800   0.912   1.952   5.076 -3.2369  3.2265  0.8215
 5129TIP3   OH236801   2.402   6.338  10.924  0.1344  0.4224 -0.2865
 5129TIP3    H136802   2.313   6.302  10.914  0.7359 -1.5621  1.0996
 5129TIP3    H236803   2.389   6.431  10.941 -1.5993  0.4721 -1.6835
 5130TIP3   OH236804   6.531   5.553   2.875 -0.1806  1.0516  0.1941
 5130TIP3    H136805   6.489   5.504   2.804  1.4855 -0.2603  0.0602
 5130TIP3    H236806   6.460   5.600   2.918 -1.5845 -0.1205 -0.7990
 5131TIP3   OH236807   4.284   6.121  12.211  0.0977  0.3512  0.1429
 5131TIP3    H136808   4.346   6.075  12.267 -0.3534 -1.0204 -0.4566
 5131TIP3    H236809   4.200   6.112  12.256  0.1409  1.3090  0.4334
 5132TIP3   OH236810   1.057   3.459  16.529 -0.2030  0.3610  0.4028
 5132TIP3    H136811   1.105   3.540  16.511 -0.3890  0.7772  1.7313
 5132TIP3    H236812   1.121   3.401  16.570  0.0861 -0.3937 -1.0936
 5133TIP3   OH236813   4.090   6.482  15.251 -0.0017  0.4158 -0.8374
 5133TIP3    H136814   4.065   6.575  15.253 -0.8162  0.2693 -3.2286
 5133TIP3    H236815   4.023   6.439  15.305 -1.1299  0.8823 -1.8443
 5134TIP3   OH236816   4.558   2.959   1.139 -0.5605 -0.3768 -0.8039
 5134TIP3    H136817   4.576   2.915   1.056 -1.7020 -0.0409 -1.2368
 5134TIP3    H236818   4.463   2.971   1.140 -0.9372 -2.9472  1.8347
 5135TIP3   OH236819   0.091   6.544   6.348 -0.3311 -0.0650 -0.0696
 5135TIP3    H136820   0.018   6.504   6.396 -2.5521  2.4953 -1.2561
 5135TIP3    H236821   0.104   6.486   6.273  0.0537 -1.4855  1.0502
 5136TIP3   OH236822   6.136   0.991  12.504 -0.2301  0.0984  0.1137
 5136TIP3    H136823   6.056   1.041  12.490 -0.6176 -0.1306  1.4357
 5136TIP3    H236824   6.117   0.905  12.466 -0.3955  0.2379 -0.1177
 5137TIP3   OH236825   3.292   4.115  16.513  0.5344 -0.0892 -0.2495
 5137TIP3    H136826   3.257   4.175  16.448  1.1156  0.7962  0.2362
 5137TIP3    H236827   3.380   4.096  16.483  1.1420  1.0670  0.7507
 5138TIP3   OH236828   3.104   5.294   0.572 -0.5889 -0.4212  0.0615
 5138TIP3    H136829   3.162   5.220   0.556 -1.0772 -1.1734  1.6488
 5138TIP3    H236830   3.072   5.319   0.486  2.7387  0.5620 -0.9843
 5139TIP3   OH236831   3.389   0.969   2.358  0.0045  0.1814  0.4033
 5139TIP3    H136832   3.295   0.955   2.356  0.1106 -0.3948 -0.9762
 5139TIP3    H236833   3.401   1.046   2.414 -1.2313 -0.0370  0.9791
 5140TIP3   OH236834   1.681   2.362   5.102  0.5192 -0.2433 -0.2027
 5140TIP3    H136835   1.747   2.340   5.036  1.5444 -0.2054  0.7994
 5140TIP3    H236836   1.697   2.454   5.122  0.3719 -0.3216  0.2813
 5141TIP3   OH236837   0.941   0.399  13.994  0.3317 -0.3110 -0.8465
 5141TIP3    H136838   0.981   0.329  14.044 -1.4897 -1.1613 -0.5345
 5141TIP3    H236839   0.877   0.355  13.937 -1.9421  1.1769  0.4467
 5142TIP3   OH236840   1.324   6.519   1.655 -0.1212 -0.0580  0.3430
 5142TIP3    H136841   1.312   6.430   1.621  2.2480 -0.5223  0.6360
 5142TIP3    H236842   1.373   6.507   1.736 -0.6180  1.4716  0.8925
 5143TIP3   OH236843   3.618   4.390  17.141  0.0079  0.7972 -0.0936
 5143TIP3    H136844   3.643   4.447  17.214 -0.5960  1.7963 -0.6704
 5143TIP3    H236845   3.544   4.340  17.175  0.2233  0.6994  0.2448
 5144TIP3   OH236846   0.499   4.257  10.215  0.1148 -0.1429 -0.3855
 5144TIP3    H136847   0.587   4.237  10.245  0.5236  0.5184 -1.1320
 5144TIP3    H236848   0.442   4.228  10.286  1.0468  1.1807  0.9183
 5145TIP3   OH236849   2.026   2.841  15.520  0.7902  0.2143 -0.1800
 5145TIP3    H136850   1.983   2.761  15.549 -0.9398  1.4552  0.7981
 5145TIP3    H236851   1.995   2.854  15.430 -1.1506  1.2469  0.6120
 5146TIP3   OH236852   2.701   3.664   6.138 -0.0164  0.4425  0.7467
 5146TIP3    H136853   2.675   3.589   6.192 -0.6932  0.3156  0.2512
 5146TIP3    H236854   2.765   3.628   6.076  0.1490  0.4123  0.9364
 5147TIP3   OH236855   5.397   0.286  14.874  0.4629  0.2663 -0.5564
 5147TIP3    H136856   5.308   0.295  14.910 -0.0914 -2.1462 -1.2201
 5147TIP3    H236857   5.428   0.202  14.907  2.6392  1.2052 -0.1230
 5148TIP3   OH236858   1.750   4.627   5.513  0.6260 -0.4610  0.0920
 5148TIP3    H136859   1.678   4.588   5.562 -1.4666  2.0591 -0.8462
 5148TIP3    H236860   1.772   4.706   5.561  0.3168  0.6586 -1.5580
 5149TIP3   OH236861   4.951   2.204  16.125  0.1283  0.2860 -0.2912
 5149TIP3    H136862   4.896   2.172  16.054 -1.2744  2.0755 -0.0603
 5149TIP3    H236863   5.000   2.128  16.155 -0.2664 -0.7694 -2.2785
 5150TIP3   OH236864   5.466   1.416   0.519  0.1260  0.2837 -0.0070
 5150TIP3    H136865   5.561   1.414   0.523  0.1672  0.1672 -0.8170
 5150TIP3    H236866   5.446   1.393   0.428 -0.6058  2.0961 -0.3254
 5151TIP3   OH236867   2.094   3.550   0.723  0.1452 -0.4717  0.2642
 5151TIP3    H136868   2.118   3.550   0.816  2.9887  0.0766 -0.4149
 5151TIP3    H236869   2.103   3.458   0.697 -0.5336 -0.6068  0.5148
 5152TIP3   OH236870   2.998   4.640   1.175  0.2601  0.5230 -0.1333
 5152TIP3    H136871   2.921   4.590   1.150 -0.1487  0.0823  1.8739
 5152TIP3    H236872   3.004   4.711   1.111 -1.4858  0.2261 -0.6320
 5153TIP3   OH236873   2.894   5.990   3.614 -0.0566  0.2060 -0.1593
 5153TIP3    H136874   2.839   6.067   3.627 -0.3945 -0.1298  0.4450
 5153TIP3    H236875   2.835   5.925   3.574 -0.4509 -0.5659  1.6035
 5154TIP3   OH236876   4.645   6.160  12.529  0.0866  0.4676  0.3199
 5154TIP3    H136877   4.604   6.105  12.463 -1.7812  0.3347  1.5355
 5154TIP3    H236878   4.659   6.244  12.486  0.7989 -0.2291 -0.8385
 5155TIP3   OH236879   0.128   0.847  17.058 -0.8026 -0.3836 -0.5397
 5155TIP3    H136880   0.033   0.838  17.050 -0.7634 -1.7966  0.4649
 5155TIP3    H236881   0.157   0.763  17.094  0.8721 -0.1053 -1.2057
 5156TIP3   OH236882   5.394   0.170   2.745  0.2817  0.0781 -0.0431
 5156TIP3    H136883   5.437   0.234   2.801 -0.3502 -0.6628  1.3347
 5156TIP3    H236884   5.457   0.098   2.737  0.6259  0.4687 -0.8167
 5157TIP3   OH236885   0.250   0.607  17.222 -0.0194  0.0524  0.3754
 5157TIP3    H136886   0.314   0.582  17.156 -1.0625  0.1527 -0.6877
 5157TIP3    H236887   0.302   0.637  17.296  1.1650  1.9222 -1.1730
 5158TIP3   OH236888   2.134   4.233  14.357 -0.2428 -0.2481 -0.8459
 5158TIP3    H136889   2.164   4.167  14.420  2.5657  0.6190 -1.1977
 5158TIP3    H236890   2.137   4.316  14.405 -1.3168 -0.0223 -1.1558
 5159TIP3   OH236891   2.017   0.328   0.837 -0.2171  0.4907  0.3037
 5159TIP3    H136892   2.107   0.315   0.865  0.0821  0.2019 -0.7404
 5159TIP3    H236893   2.022   0.393   0.767 -0.6196 -0.5894 -0.7668
 5160TIP3   OH236894   5.411   3.268  15.337  0.2247 -0.0889  0.3910
 5160TIP3    H136895   5.497   3.310  15.341 -0.7707  2.5348 -3.1860
 5160TIP3    H236896   5.426   3.188  15.286  0.4636  0.5770 -0.5792
 5161TIP3   OH236897   5.244   0.758  16.653  0.6792 -0.0491  0.1795
 5161TIP3    H136898   5.276   0.706  16.727  0.9459  0.2240  0.2570
 5161TIP3    H236899   5.313   0.752  16.587  0.2155 -0.7189 -0.2524
 5162TIP3   OH236900   5.031   0.892   1.391 -0.3406 -0.2216 -0.0277
 5162TIP3    H136901   5.011   0.798   1.400 -0.3473 -0.2144  0.0324
 5162TIP3    H236902   5.064   0.918   1.477  1.7699 -0.6776 -0.6735
 5163TIP3   OH236903   6.743   1.136  16.979  0.4005 -0.4545  0.2083
 5163TIP3    H136904   6.681   1.206  16.959  0.3820 -0.5100  0.0726
 5163TIP3    H236905   6.829   1.179  16.978  0.5243 -0.7171 -1.3059
 5164TIP3   OH236906   2.020   1.786  11.868  0.7882 -0.2742  0.7434
 5164TIP3    H136907   1.966   1.786  11.789  1.2515 -0.7539  0.4228
 5164TIP3    H236908   2.026   1.878  11.894  0.6821 -0.1125  0.1835
 5165TIP3   OH236909   4.549   0.985   5.360  0.0132  0.0558 -0.7600
 5165TIP3    H136910   4.639   1.000   5.331  0.3991 -0.1973  0.3142
 5165TIP3    H236911   4.551   1.000   5.454 -1.0302 -0.1345 -0.7060
 5166TIP3   OH236912   5.603   5.339  16.175 -0.0177 -0.5987  0.0012
 5166TIP3    H136913   5.671   5.376  16.119 -1.8126  0.9420 -1.2451
 5166TIP3    H236914   5.611   5.244  16.164  3.2198 -0.5541  1.4962
 5167TIP3   OH236915   4.011   6.735   4.123  0.5406  0.2113  0.7328
 5167TIP3    H136916   4.001   6.656   4.070  1.5261  0.0800  0.7224
 5167TIP3    H236917   4.099   6.727   4.161  0.6229  1.2707  0.7758
 5168TIP3   OH236918   5.539   0.280  16.276  0.2963 -0.5864  0.0066
 5168TIP3    H136919   5.513   0.337  16.204 -2.8482  0.5257  1.8992
 5168TIP3    H236920   5.598   0.334  16.329  0.1579 -0.3392 -0.0891
 5169TIP3   OH236921   5.867   2.354   0.108 -0.0529  0.6759 -0.1427
 5169TIP3    H136922   5.901   2.397   0.187  2.0632 -0.3514 -0.4482
 5169TIP3    H236923   5.865   2.261   0.131  1.1419  0.3042 -1.4555
 5170TIP3   OH236924   6.673   1.817   4.571  0.4564 -0.3056 -0.7183
 5170TIP3    H136925   6.747   1.859   4.615  0.6025  0.7305 -1.9145
 5170TIP3    H236926   6.670   1.859   4.485 -0.4591 -1.5685 -1.3077
 5171TIP3   OH236927   4.664   0.159   2.740  0.0684 -0.5440 -0.4518
 5171TIP3    H136928   4.744   0.192   2.699 -1.5149  0.8230 -2.5519
 5171TIP3    H236929   4.623   0.105   2.673 -1.1297 -0.6790  0.3753
 5172TIP3   OH236930   4.160   4.442  15.754 -0.6450 -0.6641 -0.7108
 5172TIP3    H136931   4.232   4.451  15.691 -1.0559 -0.1570 -1.1132
 5172TIP3    H236932   4.129   4.352  15.742  0.0750 -0.9605 -0.3641
 5173TIP3   OH236933   1.083   5.607   5.204  0.2699  0.4401 -0.5291
 5173TIP3    H136934   1.150   5.552   5.244  2.0592  0.4556 -3.2952
 5173TIP3    H236935   1.098   5.694   5.242 -0.8234 -0.3640  1.8376
 5174TIP3   OH236936   1.601   4.585   4.860 -0.6778  0.3150 -0.3557
 5174TIP3    H136937   1.583   4.502   4.903 -1.5456  1.2716  1.1556
 5174TIP3    H236938   1.697   4.588   4.852 -0.6408 -0.7916 -0.3952
 5175TIP3   OH236939   0.937   3.008  12.377 -0.2121  0.1473 -0.0903
 5175TIP3    H136940   0.898   3.004  12.290 -0.0178  1.7968 -0.2667
 5175TIP3    H236941   0.988   3.088  12.377  1.6520 -1.0046  0.8004
 5176TIP3   OH236942   2.614   0.335   1.953  0.0230 -0.0679 -0.0405
 5176TIP3    H136943   2.682   0.351   1.888  1.7041  1.0297  1.9129
 5176TIP3    H236944   2.538   0.383   1.920  0.2527 -1.0904 -2.1130
 5177TIP3   OH236945   0.024   3.836   5.747  0.0290  0.0096 -0.3142
 5177TIP3    H136946   0.076   3.907   5.710 -1.4490  2.1789  1.6526
 5177TIP3    H236947   0.086   3.764   5.756  2.7751  2.5416  2.0814
 5178TIP3   OH236948   5.617   3.303  15.704 -0.6252  0.2028 -0.2181
 5178TIP3    H136949   5.588   3.341  15.787  1.0135  0.7005  0.1420
 5178TIP3    H236950   5.623   3.377  15.644 -0.2409  0.0851 -0.3274
 5179TIP3   OH236951   4.179   5.481   3.769  0.2851 -0.4704 -0.1978
 5179TIP3    H136952   4.218   5.566   3.785 -1.7548  0.2944  0.8054
 5179TIP3    H236953   4.121   5.465   3.844 -1.0642 -1.7193 -1.4567
 5180TIP3   OH236954   5.674   3.923  12.980 -0.3515  0.2436 -0.3964
 5180TIP3    H136955   5.588   3.964  12.971  0.0974  1.2179 -0.3101
 5180TIP3    H236956   5.736   3.993  12.963  0.4545  0.0753  1.6572
 5181TIP3   OH236957   3.399   0.862  12.258  0.2814  0.0716  0.1177
 5181TIP3    H136958   3.332   0.795  12.243  0.0727  0.4807 -0.8239
 5181TIP3    H236959   3.471   0.837  12.200  0.9359 -0.3463  1.1009
 5182TIP3   OH236960   6.175   4.376  12.266  0.1243  0.0014  0.2592
 5182TIP3    H136961   6.262   4.337  12.257 -0.2155 -0.2681 -2.3472
 5182TIP3    H236962   6.185   4.465  12.232 -0.3378  0.4083  1.1646
 5183TIP3   OH236963   4.767   5.319  11.001  0.0464  0.2005 -0.5672
 5183TIP3    H136964   4.739   5.247  10.945  0.2343  0.7143 -1.3365
 5183TIP3    H236965   4.689   5.375  11.008 -0.3284 -0.4479  0.6460
 5184TIP3   OH236966   6.293   1.587   6.079 -0.7142  0.3197 -0.6467
 5184TIP3    H136967   6.226   1.648   6.111 -0.0065 -0.3771  2.2353
 5184TIP3    H236968   6.251   1.501   6.086  0.1651 -0.0303  0.3189
 5185TIP3   OH236969   5.077   4.561   3.153 -0.4137 -0.6102 -0.1920
 5185TIP3    H136970   5.134   4.520   3.218 -0.4257 -0.1346  0.1239
 5185TIP3    H236971   5.052   4.490   3.094 -1.0758 -1.2161  0.8010
 5186TIP3   OH236972   6.388   1.755  12.621  0.4431 -0.2506 -0.0153
 5186TIP3    H136973   6.302   1.763  12.662  0.0900 -0.2816 -0.7253
 5186TIP3    H236974   6.390   1.827  12.557  0.4185 -1.0230 -0.9036
 5187TIP3   OH236975   1.982   6.461   1.459  0.1439 -0.4186 -0.0585
 5187TIP3    H136976   2.071   6.426   1.455  0.8281  0.9056  2.6483
 5187TIP3    H236977   1.968   6.499   1.372  2.8105  0.6568 -0.0745
 5188TIP3   OH236978   3.986   1.141  11.855  0.3279  0.1075 -0.1171
 5188TIP3    H136979   3.951   1.141  11.944  2.7987 -0.6450  0.9182
 5188TIP3    H236980   4.009   1.233  11.839  1.8382 -0.0682  0.8831
 5189TIP3   OH236981   2.376   0.627  17.101  0.1107 -0.5337  0.0893
 5189TIP3    H136982   2.384   0.676  17.019  1.3890  0.4033  0.7511
 5189TIP3    H236983   2.459   0.580  17.109 -0.0636 -0.7343  0.7729
 5190TIP3   OH236984   4.508   3.074   6.078 -0.2363 -0.1548  0.0743
 5190TIP3    H136985   4.458   3.055   6.157 -1.0840 -1.7592 -0.8172
 5190TIP3    H236986   4.494   3.168   6.062 -0.0056  0.1901  1.8296
 5191TIP3   OH236987   6.401   4.711  13.718  0.0785 -0.0958  0.1802
 5191TIP3    H136988   6.381   4.786  13.774  0.9564  0.1821  0.1419
 5191TIP3    H236989   6.467   4.662  13.767  2.2722  1.1634 -1.3822
 5192TIP3   OH236990   2.436   6.722   0.370 -0.3000 -0.2167 -0.6705
 5192TIP3    H136991   2.529   6.740   0.356 -0.6600  1.0728 -1.4890
 5192TIP3    H236992   2.417   6.765   0.454 -0.5553  1.0109 -1.3524
 5193TIP3   OH236993   5.480   6.256   4.511  0.1659 -0.1851  0.1999
 5193TIP3    H136994   5.563   6.282   4.552  0.4570 -2.1709  0.9155
 5193TIP3    H236995   5.439   6.198   4.575 -1.1091 -0.3704 -0.7635
 5194TIP3   OH236996   6.420   4.619  11.953 -0.1503 -0.1400 -0.4809
 5194TIP3    H136997   6.371   4.663  11.884 -0.4308  2.6053  1.3606
 5194TIP3    H236998   6.468   4.690  11.997 -0.2541 -1.7301  2.3361
 5195TIP3   OH236999   0.222   6.037  15.930 -0.5877  0.3666  0.1615
 5195TIP3    H137000   0.135   6.076  15.938 -0.6637  0.4920 -1.0735
 5195TIP3    H237001   0.205   5.946  15.907 -0.4022 -0.2012  2.1951
 5196TIP3   OH237002   3.065   2.919   3.698 -0.0684 -0.5567  0.3421
 5196TIP3    H137003   3.039   2.848   3.639  0.1635 -1.2555  1.0847
 5196TIP3    H237004   3.157   2.935   3.677 -0.0443 -0.6584  0.3717
 5197TIP3   OH237005   1.371   0.868   2.574  0.0015  0.1609  0.2615
 5197TIP3    H137006   1.414   0.949   2.601  1.0752 -1.2301  2.8816
 5197TIP3    H237007   1.409   0.847   2.488  1.7548  0.9358  0.8454
 5198TIP3   OH237008   1.926   3.020  15.883  0.0181  0.3043  0.0865
 5198TIP3    H137009   1.867   3.058  15.947 -1.4390 -2.0779  0.2361
 5198TIP3    H237010   1.983   2.962  15.934  0.5483  0.3670 -0.4287
 5199TIP3   OH237011   2.203   0.757   0.791 -0.2285 -0.0721 -0.1153
 5199TIP3    H137012   2.151   0.793   0.862 -0.7340  2.2977 -1.5984
 5199TIP3    H237013   2.261   0.693   0.832 -0.3358  1.4284  2.4448
 5200TIP3   OH237014   2.610   1.202   1.768  0.1526 -0.2054  0.2275
 5200TIP3    H137015   2.694   1.234   1.801  0.7638 -2.2414  0.7235
 5200TIP3    H237016   2.546   1.233   1.832  0.5208  1.3119 -0.1232
 5201TIP3   OH237017   3.218   3.701   0.685 -0.3679 -0.7067  0.3160
 5201TIP3    H137018   3.132   3.740   0.665  0.0147 -0.4325 -0.7853
 5201TIP3    H237019   3.197   3.614   0.718 -0.9335 -1.6894 -2.5732
 5202TIP3   OH237020   5.050   3.376  14.983 -0.2631  0.1679  0.8771
 5202TIP3    H137021   5.066   3.466  14.953  0.3135  0.1479  1.1120
 5202TIP3    H237022   4.957   3.373  15.003 -0.4519  0.4681  0.0430
 5203TIP3   OH237023   1.265   5.713   3.243  0.4922  0.0044 -0.2626
 5203TIP3    H137024   1.233   5.634   3.287  1.9694 -0.7131 -0.4465
 5203TIP3    H237025   1.236   5.703   3.153 -0.7983  0.5090  0.0795
 5204TIP3   OH237026   6.698   5.354  16.907  0.3608  0.1355  0.9877
 5204TIP3    H137027   6.617   5.374  16.953  0.9399  0.7123  1.7803
 5204TIP3    H237028   6.685   5.267  16.870 -0.5197  0.1305  1.3150
 5205TIP3   OH237029   0.151   2.635   4.333 -0.1007 -0.2202  0.1574
 5205TIP3    H137030   0.174   2.586   4.412  0.1537 -0.5557 -0.1236
 5205TIP3    H237031   0.090   2.703   4.364 -2.7830 -2.5106  0.1313
 5206TIP3   OH237032   5.891   1.967   1.618  0.2246 -0.1136  0.6016
 5206TIP3    H137033   5.958   1.902   1.638  0.7526  0.2989  0.2088
 5206TIP3    H237034   5.842   1.929   1.545  0.0777 -0.3919  0.8497
 5207TIP3   OH237035   0.593   4.346   6.187  0.3720 -0.4314  0.1018
 5207TIP3    H137036   0.684   4.366   6.207 -0.3556  1.4347  1.6938
 5207TIP3    H237037   0.583   4.371   6.095  1.2062  0.3328  0.2120
 5208TIP3   OH237038   3.312   2.874   0.919  0.2251 -0.3345 -0.7035
 5208TIP3    H137039   3.324   2.826   0.837 -0.6864  0.0423 -1.0573
 5208TIP3    H237040   3.251   2.821   0.970  0.1004 -0.1205 -0.6295
 5209TIP3   OH237041   2.353   2.256   4.639 -0.2544 -0.1802 -0.9076
 5209TIP3    H137042   2.259   2.252   4.657 -0.1113  1.3120  0.2794
 5209TIP3    H237043   2.364   2.339   4.592  0.9247  1.3551  1.9887
 5210TIP3   OH237044   1.235   5.053   4.871  0.3497  1.3704 -0.1973
 5210TIP3    H137045   1.255   4.997   4.796 -0.4151  1.0726 -0.1914
 5210TIP3    H237046   1.313   5.050   4.926 -0.3905 -1.3028  0.7794
 5211TIP3   OH237047   5.818   6.163  15.171  0.3878 -0.1214  0.2621
 5211TIP3    H137048   5.829   6.132  15.081 -1.8484  0.1088 -0.1234
 5211TIP3    H237049   5.766   6.243  15.163  1.1648  0.5614  1.6874
 5212TIP3   OH237050   4.905   2.124  13.844 -0.1388  0.0692  0.6742
 5212TIP3    H137051   4.922   2.095  13.934 -0.5328  0.4511  0.8717
 5212TIP3    H237052   4.813   2.104  13.829  0.1539 -0.8387  0.0318
 5213TIP3   OH237053   4.056   1.693  11.737  0.1141 -1.0810  0.7916
 5213TIP3    H137054   4.138   1.668  11.781  1.7758 -0.5518 -1.8799
 5213TIP3    H237055   4.050   1.788  11.749 -0.3934 -1.1921  1.4353
 5214TIP3   OH237056   5.078   4.760   1.749 -0.5765  0.0922 -0.2721
 5214TIP3    H137057   5.033   4.821   1.690  0.4634  1.5219  0.4009
 5214TIP3    H237058   5.163   4.746   1.708 -0.0018  0.7751  0.6764
 5215TIP3   OH237059   3.029   5.383  13.162  0.2434 -0.2946  0.0792
 5215TIP3    H137060   3.055   5.351  13.248  1.0192  2.1550  0.7860
 5215TIP3    H237061   3.111   5.395  13.115 -0.1443 -1.0354 -0.8139
 5216TIP3   OH237062   3.518   5.096   4.452  0.1029  0.0317 -0.1064
 5216TIP3    H137063   3.594   5.114   4.507  1.1524  1.2007 -1.8862
 5216TIP3    H237064   3.454   5.163   4.477 -0.8761 -1.7701  2.3276
 5217TIP3   OH237065   0.840   2.828   0.090  0.3129 -0.0229 -0.2907
 5217TIP3    H137066   0.754   2.865   0.106  1.2475  2.0646  0.1053
 5217TIP3    H237067   0.892   2.854   0.166  1.0350 -2.1567 -0.0170
 5218TIP3   OH237068   2.608   2.612   1.779 -0.1906  0.0427 -0.0751
 5218TIP3    H137069   2.635   2.670   1.708  1.7965 -0.8711 -0.0984
 5218TIP3    H237070   2.689   2.590   1.825 -1.2825 -0.4349  1.6833
 5219TIP3   OH237071   1.143   1.563  12.571 -0.1734  0.2362 -0.3974
 5219TIP3    H137072   1.122   1.551  12.479  0.0522  0.1119 -0.4330
 5219TIP3    H237073   1.235   1.535  12.579 -0.2495  0.0640 -0.1017
 5220TIP3   OH237074   5.840   0.547  15.612  0.4110  0.2578  0.5888
 5220TIP3    H137075   5.803   0.586  15.533  2.1038  1.3626  0.3006
 5220TIP3    H237076   5.912   0.606  15.636  2.1735 -1.9302  0.9180
 5221TIP3   OH237077   0.736   3.099   5.618 -0.1707  0.1092  0.3750
 5221TIP3    H137078   0.803   3.040   5.582  0.0412  0.6414 -0.1035
 5221TIP3    H237079   0.768   3.121   5.706 -0.5271 -0.9280  0.7776
 5222TIP3   OH237080   0.984   4.878   3.982  0.2570 -0.3910  0.1873
 5222TIP3    H137081   1.016   4.893   4.071 -1.0541  0.9506  0.4457
 5222TIP3    H237082   0.923   4.804   3.990 -0.2553  0.0669  0.4879
 5223TIP3   OH237083   6.240   2.610  12.869  0.4942  0.1578 -0.1506
 5223TIP3    H137084   6.253   2.515  12.871 -0.4666  0.0262  0.0097
 5223TIP3    H237085   6.146   2.621  12.851  0.4991  1.0731  0.3736
 5224TIP3   OH237086   0.219   1.395  13.191 -0.5803  0.3334 -0.0270
 5224TIP3    H137087   0.244   1.487  13.198  1.1671 -0.0921 -0.4963
 5224TIP3    H237088   0.124   1.395  13.203 -0.5380  2.1421  0.4335
 5225TIP3   OH237089   1.356   2.717   0.206  0.2310  0.1853  0.2644
 5225TIP3    H137090   1.266   2.686   0.202  0.1152  0.4525  0.7186
 5225TIP3    H237091   1.409   2.642   0.181 -0.0924 -0.1231  0.5062
 5226TIP3   OH237092   5.165   1.381   3.665 -0.4971  0.2122  0.0474
 5226TIP3    H137093   5.173   1.476   3.655  0.6814  0.0420 -0.7005
 5226TIP3    H237094   5.100   1.356   3.599 -1.7612  0.6528  1.1052
 5227TIP3   OH237095   0.506   0.132   3.149  0.1385 -0.0350 -0.0153
 5227TIP3    H137096   0.472   0.058   3.199  0.5253  0.9148  1.7167
 5227TIP3    H237097   0.517   0.202   3.214  2.5142  0.6402 -1.0748
 5228TIP3   OH237098   0.943   0.431  12.528 -0.4656  0.0549 -0.3037
 5228TIP3    H137099   0.928   0.446  12.622 -0.1721  1.0265 -0.4015
 5228TIP3    H237100   0.938   0.518  12.489  1.4868 -0.0587 -0.8916
 5229TIP3   OH237101   0.303   3.076   4.842 -0.1473  0.1294 -0.0473
 5229TIP3    H137102   0.263   3.097   4.757  0.0414  0.2356 -0.1101
 5229TIP3    H237103   0.263   2.992   4.867  1.1936 -0.8431 -1.1309
 5230TIP3   OH237104   0.080   1.351  15.977 -0.3988  0.7322  0.0835
 5230TIP3    H137105   0.172   1.376  15.986  0.3824 -1.1887 -2.0482
 5230TIP3    H237106   0.048   1.402  15.902 -0.9734  1.1284  0.5933
 5231TIP3   OH237107   5.291   1.964  12.018  0.1539  0.2267 -0.3300
 5231TIP3    H137108   5.362   2.024  11.995  0.1469  0.2946 -0.1766
 5231TIP3    H237109   5.290   1.964  12.114 -1.0896  1.4579 -0.3351
 5232TIP3   OH237110   3.082   6.400   2.726  0.1446  0.1609 -0.0752
 5232TIP3    H137111   3.081   6.462   2.798  0.1410  0.1258 -0.0450
 5232TIP3    H237112   3.151   6.338   2.749  1.1608  1.0017 -0.8086
 5233TIP3   OH237113   4.796   4.947   2.260  0.3774  0.0270  0.1385
 5233TIP3    H137114   4.888   4.921   2.263  0.0178 -1.2412  0.1048
 5233TIP3    H237115   4.764   4.913   2.177 -0.4416 -0.5877  0.6992
 5234TIP3   OH237116   2.355   1.343   1.343 -0.2234 -0.1318 -0.2404
 5234TIP3    H137117   2.401   1.364   1.262 -0.3495 -1.1953 -0.5937
 5234TIP3    H237118   2.424   1.321   1.405 -0.1874 -0.3658 -0.3650
 5235TIP3   OH237119   0.466   1.080  14.125 -0.1441 -0.4350 -0.4592
 5235TIP3    H137120   0.505   1.078  14.213 -0.7698  0.5911 -0.1493
 5235TIP3    H237121   0.470   1.172  14.100 -0.3121 -0.6727 -1.3594
 5236TIP3   OH237122   6.140   1.933   2.480 -0.0853 -0.5712 -0.4160
 5236TIP3    H137123   6.115   1.931   2.572  0.0977  1.5907 -0.2891
 5236TIP3    H237124   6.192   1.854   2.467  2.0047  0.3419  1.9926
 5237TIP3   OH237125   6.090   4.134   2.103 -0.0866 -0.3447  0.1010
 5237TIP3    H137126   6.125   4.114   2.190  0.9908  0.6926 -0.0771
 5237TIP3    H237127   5.999   4.158   2.119  0.5352  1.4589  1.1743
 5238TIP3   OH237128   0.103   4.695  10.662  0.1530  0.4210 -0.8855
 5238TIP3    H137129   0.019   4.740  10.660 -0.8212 -1.3213 -0.0657
 5238TIP3    H237130   0.130   4.688  10.571 -0.8807  0.4308 -1.1883
 5239TIP3   OH237131   1.641   3.971   6.231 -0.1847  0.0914 -0.4425
 5239TIP3    H137132   1.581   3.898   6.247  1.4079 -0.8060  1.6550
 5239TIP3    H237133   1.643   4.020   6.314  0.0539  1.5653 -1.2918
 5240TIP3   OH237134   5.253   4.143   3.634 -0.1302  0.3212  0.2729
 5240TIP3    H137135   5.232   4.205   3.564 -0.3611 -0.8112 -0.6737
 5240TIP3    H237136   5.170   4.129   3.680  0.2871  2.0948  1.6541
 5241TIP3   OH237137   0.349   1.571  13.843  0.2206 -0.3879 -0.0355
 5241TIP3    H137138   0.347   1.596  13.751 -1.3665  1.1645  0.3939
 5241TIP3    H237139   0.392   1.644  13.887 -0.4911 -0.3701  0.6529
 5242TIP3   OH237140   0.306   1.498   0.457 -0.0706 -0.1108  0.2188
 5242TIP3    H137141   0.391   1.538   0.440  0.5644 -1.4345  0.1900
 5242TIP3    H237142   0.260   1.502   0.373  0.6319 -0.9420 -0.2117
 5243TIP3   OH237143   2.135   2.081  13.608 -0.6127 -0.2125 -0.0682
 5243TIP3    H137144   2.132   2.174  13.584 -0.3250 -0.0255  0.6175
 5243TIP3    H237145   2.225   2.055  13.588 -0.2139  0.0788  1.2842
 5244TIP3   OH237146   6.594   2.090  12.949  0.7537  0.1880  0.7069
 5244TIP3    H137147   6.519   2.094  12.889 -0.2388 -1.4357  1.8153
 5244TIP3    H237148   6.579   2.163  13.010  0.4372  0.2754  0.5282
 5245TIP3   OH237149   0.232   2.295   3.003 -0.1153 -0.3144  0.0176
 5245TIP3    H137150   0.142   2.274   3.028 -0.2783  1.3557  0.8988
 5245TIP3    H237151   0.228   2.384   2.969  1.3204  0.0483  0.7604
 5246TIP3   OH237152   2.516   1.135  15.019  0.6530  0.3853  0.2236
 5246TIP3    H137153   2.567   1.189  14.958  0.1955 -0.9433 -1.3589
 5246TIP3    H237154   2.427   1.139  14.986  0.5726 -1.1525  0.2262
 5247TIP3   OH237155   0.752   4.050   2.016  0.3441  0.3102 -0.6359
 5247TIP3    H137156   0.672   4.082   2.059  0.7145  0.2553  0.0930
 5247TIP3    H237157   0.720   3.988   1.950 -0.3712  2.0061 -1.9235
 5248TIP3   OH237158   2.206   6.683  11.061  0.3950  0.0145 -0.0990
 5248TIP3    H137159   2.284   6.667  11.007  1.3091 -1.8374  1.6943
 5248TIP3    H237160   2.150   6.607  11.047 -0.5309  0.7413 -0.3989
 5249TIP3   OH237161   6.128   3.946   2.997  0.0034 -0.3524  0.4937
 5249TIP3    H137162   6.155   3.918   2.910 -0.0573  2.8547 -0.6176
 5249TIP3    H237163   6.208   3.976   3.039 -0.1871 -0.5614  1.0145
 5250TIP3   OH237164   1.675   5.483  11.720 -0.4131 -0.4517  0.1377
 5250TIP3    H137165   1.707   5.557  11.772 -0.4762 -0.8201  0.7048
 5250TIP3    H237166   1.582   5.477  11.743  0.1061 -2.2194  1.9544
 5251TIP3   OH237167   1.883   3.222   5.237 -0.1690 -0.7668 -0.4279
 5251TIP3    H137168   1.889   3.283   5.310 -1.1773 -1.2830  0.0949
 5251TIP3    H237169   1.925   3.268   5.164 -0.5456  0.3858  0.0679
 5252TIP3   OH237170   1.393   5.363  16.120 -0.4588  0.3796  0.5722
 5252TIP3    H137171   1.357   5.446  16.149 -0.0959  0.6232  0.3386
 5252TIP3    H237172   1.319   5.317  16.080 -0.7493  0.4209  1.0642
 5253TIP3   OH237173   0.184   5.904   0.080  0.3316 -0.5136  0.2337
 5253TIP3    H137174   0.089   5.891   0.077  0.2101  0.2737  0.4998
 5253TIP3    H237175   0.220   5.816   0.089 -0.2882 -0.9866 -1.6156
 5254TIP3   OH237176   3.243   4.923  11.680  0.1835  0.2488  0.2847
 5254TIP3    H137177   3.210   4.893  11.595  0.9942 -0.3167  0.1547
 5254TIP3    H237178   3.294   4.849  11.713 -0.0231  0.5112  1.2156
 5255TIP3   OH237179   5.912   5.153   5.951 -0.2244  0.6048  0.1021
 5255TIP3    H137180   5.840   5.199   5.909 -0.8089 -0.1645  0.2520
 5255TIP3    H237181   5.907   5.179   6.043 -2.4765 -2.1352  0.8114
 5256TIP3   OH237182   3.752   0.244   5.179  0.0274 -0.4750 -0.2447
 5256TIP3    H137183   3.835   0.236   5.133  1.5008  2.0930  1.7919
 5256TIP3    H237184   3.707   0.317   5.136 -0.4439 -0.8067 -0.3174
 5257TIP3   OH237185   2.755   1.004  15.774  0.3954 -0.7587 -0.2860
 5257TIP3    H137186   2.708   0.956  15.842 -1.9936  0.6291 -0.9192
 5257TIP3    H237187   2.808   1.068  15.822 -1.4168  0.3378  0.2932
 5258TIP3   OH237188   5.467   3.903  15.946  0.1220 -0.4926 -0.3670
 5258TIP3    H137189   5.538   3.883  15.885  0.5371 -1.8974  0.5348
 5258TIP3    H237190   5.390   3.859  15.909 -0.0110  0.0705 -0.7548
 5259TIP3   OH237191   4.762   4.072  13.904  0.8253  0.6033  0.0652
 5259TIP3    H137192   4.784   4.029  13.822  0.5647 -0.0982  0.3519
 5259TIP3    H237193   4.721   4.155  13.878 -2.9633 -1.3621 -0.6477
 5260TIP3   OH237194   6.608   4.211  16.293 -0.5144  0.4045 -0.3385
 5260TIP3    H137195   6.613   4.137  16.233 -0.5100 -0.7015  1.0029
 5260TIP3    H237196   6.699   4.226  16.321 -0.3398  1.7391 -1.5774
 5261TIP3   OH237197   0.409   4.907  12.951 -0.0600 -0.1089  0.0524
 5261TIP3    H137198   0.466   4.917  12.875  1.0442  0.1164  0.9094
 5261TIP3    H237199   0.320   4.908  12.914  0.4712 -0.1794 -1.2484
 5262TIP3   OH237200   0.344   3.149   6.253  0.2731 -0.4554  0.7986
 5262TIP3    H137201   0.308   3.088   6.188  1.8192 -2.1514  1.4803
 5262TIP3    H237202   0.279   3.218   6.260  0.3785  0.1336 -3.0840
 5263TIP3   OH237203   2.100   6.041   3.887  0.8651 -0.0769 -0.2119
 5263TIP3    H137204   2.024   6.063   3.941  1.4042 -0.7034  0.8305
 5263TIP3    H237205   2.139   6.125   3.864 -0.5992  0.2858 -1.4366
 5264TIP3   OH237206   5.224   3.253  16.869  0.6722 -0.2653 -0.8938
 5264TIP3    H137207   5.223   3.247  16.773  0.8487  1.3633 -1.0092
 5264TIP3    H237208   5.189   3.169  16.898 -0.1188 -0.4840 -2.3954
 5265TIP3   OH237209   3.876   6.680  13.996  0.2614  0.1666 -0.0210
 5265TIP3    H137210   3.832   6.752  13.950  0.1572  1.5554  2.2091
 5265TIP3    H237211   3.805   6.630  14.037  0.5508  0.8524  1.3458
 5266TIP3   OH237212   1.059   4.357   1.261 -0.5513  0.1978 -0.0649
 5266TIP3    H137213   1.029   4.328   1.175  1.6738  0.9349 -1.1442
 5266TIP3    H237214   1.077   4.277   1.309  0.7315 -0.2296 -1.2406
 5267TIP3   OH237215   5.478   0.601  11.651  0.6305 -0.2809  0.2630
 5267TIP3    H137216   5.430   0.562  11.724  0.9059  0.1369  0.6624
 5267TIP3    H237217   5.417   0.665  11.614  0.3406 -0.7728 -0.1307
 5268TIP3   OH237218   5.708   2.890   2.579 -0.0359 -0.1029 -0.6237
 5268TIP3    H137219   5.647   2.846   2.638 -1.5496 -0.2397 -2.2633
 5268TIP3    H237220   5.793   2.882   2.623 -1.2454  0.4789  1.8847
 5269TIP3   OH237221   4.918   2.970   0.696 -0.5666  0.6162  0.6196
 5269TIP3    H137222   5.005   2.991   0.731 -0.3542 -1.8692  1.7241
 5269TIP3    H237223   4.860   3.036   0.734  0.5505  1.2148  1.3309
 5270TIP3   OH237224   5.094   5.619   2.165 -0.4222 -0.1572 -0.2985
 5270TIP3    H137225   5.103   5.705   2.124 -0.3606 -0.3097 -0.6098
 5270TIP3    H237226   5.181   5.600   2.200  0.2304 -1.1393 -2.3318
 5271TIP3   OH237227   0.308   2.417  14.301 -0.0958 -0.0123 -0.0142
 5271TIP3    H137228   0.236   2.364  14.270  0.4595 -1.4601  1.1260
 5271TIP3    H237229   0.269   2.475  14.367 -0.2769 -0.6094  0.4054
 5272TIP3   OH237230   5.376   1.924   5.892  0.1645  0.0105 -0.0194
 5272TIP3    H137231   5.326   1.953   5.968  0.4148 -0.1309  0.2016
 5272TIP3    H237232   5.310   1.900   5.827 -0.0947 -2.4088  1.0921
 5273TIP3   OH237233   1.543   1.680  16.202 -0.1736  0.2756  0.0545
 5273TIP3    H137234   1.634   1.686  16.232 -0.0631  1.2982 -0.4625
 5273TIP3    H237235   1.529   1.587  16.188  0.4253 -0.0169  1.2781
 5274TIP3   OH237236   1.184   4.122  10.867  0.5876  0.0755 -0.0988
 5274TIP3    H137237   1.090   4.139  10.859  0.0572 -3.1893 -1.8792
 5274TIP3    H237238   1.193   4.076  10.950  0.6912  0.6783  0.2305
 5275TIP3   OH237239   6.282   5.499   4.449  0.0964  0.1491  0.0800
 5275TIP3    H137240   6.257   5.489   4.357  0.1065  0.9629 -0.0102
 5275TIP3    H237241   6.202   5.527   4.493  0.5832  1.7265 -0.0274
 5276TIP3   OH237242   6.767   4.335   6.009  0.3400 -0.5819  0.0133
 5276TIP3    H137243   6.851   4.370   5.977  0.0912  0.8086  0.8037
 5276TIP3    H237244   6.753   4.382   6.092 -2.3647  0.9403 -1.2613
 5277TIP3   OH237245   2.610   3.424   0.570 -0.3598 -0.1380 -0.4801
 5277TIP3    H137246   2.529   3.373   0.564 -0.2763 -0.2675 -0.5095
 5277TIP3    H237247   2.662   3.380   0.637 -1.4190  1.4987  1.4679
 5278TIP3   OH237248   4.176   3.921   5.413 -0.2794  0.2147  0.1511
 5278TIP3    H137249   4.255   3.925   5.358  0.2097 -2.1930  0.6119
 5278TIP3    H237250   4.104   3.921   5.350  0.2789 -2.7136 -0.5739
 5279TIP3   OH237251   0.377   6.130  12.922  0.6369 -0.3553 -0.3225
 5279TIP3    H137252   0.329   6.187  12.983  2.2121  1.7153 -0.9694
 5279TIP3    H237253   0.356   6.165  12.835 -1.2889 -3.0574 -1.0143
 5280TIP3   OH237254   1.780   4.874  11.493 -0.4737  0.3083  0.7177
 5280TIP3    H137255   1.855   4.836  11.540 -0.3326 -0.4798 -0.1424
 5280TIP3    H237256   1.726   4.799  11.469 -2.1015  0.9552  2.2707
 5281TIP3   OH237257   1.893   4.540  13.743 -0.8782 -0.0159 -0.5305
 5281TIP3    H137258   1.822   4.603  13.753 -0.9731 -0.2294  0.2220
 5281TIP3    H237259   1.969   4.592  13.718 -0.6463  0.5659  1.3424
 5282TIP3   OH237260   2.419   1.281  12.994  0.0807  0.1446  0.3505
 5282TIP3    H137261   2.382   1.228  12.924 -1.3589 -0.0352  1.2295
 5282TIP3    H237262   2.346   1.335  13.024  1.0002  1.1187  0.8811
 5283TIP3   OH237263   1.583   0.826  11.897  1.0848 -0.3236  0.2995
 5283TIP3    H137264   1.590   0.921  11.908  0.1840 -0.2243  0.0393
 5283TIP3    H237265   1.616   0.810  11.808  2.9587 -0.4720  1.0037
 5284TIP3   OH237266   3.984   1.886   1.325 -0.9693  0.1616  0.3468
 5284TIP3    H137267   3.914   1.944   1.294 -1.4151  0.1897  1.3896
 5284TIP3    H237268   3.938   1.814   1.368 -0.3396  0.6241  1.8053
 5285TIP3   OH237269   6.307   1.424  16.756  0.1263  0.0044 -0.2150
 5285TIP3    H137270   6.277   1.500  16.706 -0.6602  0.9111  1.5782
 5285TIP3    H237271   6.238   1.359  16.745  1.1268 -0.7311 -2.3237
 5286TIP3   OH237272   4.978   5.267   0.302 -0.0775 -0.2404  0.0335
 5286TIP3    H137273   5.045   5.226   0.247 -2.9912 -3.2462 -1.4229
 5286TIP3    H237274   4.963   5.204   0.373 -0.8949  0.7031  0.7192
 5287TIP3   OH237275   6.397   1.527  15.986  0.3896 -0.0950 -0.0390
 5287TIP3    H137276   6.349   1.598  16.030  1.0581  1.0180 -1.0588
 5287TIP3    H237277   6.484   1.564  15.969  0.3146 -0.6834 -1.8098
 5288TIP3   OH237278   2.076   2.643   3.108 -0.0230 -0.3021  0.2586
 5288TIP3    H137279   2.014   2.701   3.153  0.6156  0.2916  0.3925
 5288TIP3    H237280   2.108   2.695   3.034  0.5149 -0.5008  0.3480
 5289TIP3   OH237281   0.216   6.553   1.919  0.5282  0.0232  0.0260
 5289TIP3    H137282   0.239   6.489   1.987  2.7351 -2.1983 -2.6819
 5289TIP3    H237283   0.121   6.559   1.924  0.4975 -1.3858  2.1935
 5290TIP3   OH237284   3.229   5.471   1.982 -0.1399 -0.2371  1.0156
 5290TIP3    H137285   3.150   5.489   1.932 -0.2405  3.3443  2.3601
 5290TIP3    H237286   3.201   5.473   2.073  0.8058 -2.7262  1.3992
 5291TIP3   OH237287   3.210   5.002   0.803 -0.3967 -0.0566 -0.0363
 5291TIP3    H137288   3.222   5.023   0.710  0.6200 -1.0918 -0.1507
 5291TIP3    H237289   3.203   5.086   0.847 -0.0947  0.4495 -0.9537
 5292TIP3   OH237290   5.659   1.793   0.082  0.4945  0.2697  0.7391
 5292TIP3    H137291   5.610   1.838   0.151 -1.6330  1.3255 -1.3968
 5292TIP3    H237292   5.645   1.700   0.099 -0.2785  0.5307  1.5649
 5293TIP3   OH237293   1.018   2.750  14.346  0.0840  0.0561 -0.1431
 5293TIP3    H137294   1.036   2.737  14.253 -1.0443  1.6441 -0.6054
 5293TIP3    H237295   1.047   2.840  14.364 -2.0715  0.6767  0.4083
 5294TIP3   OH237296   3.915   1.666  15.720  0.0644 -0.0337  0.2536
 5294TIP3    H137297   3.907   1.632  15.809 -1.8685  0.4746  0.2860
 5294TIP3    H237298   3.846   1.732  15.712  1.4240  1.2736 -1.0190
 5295TIP3   OH237299   5.410   2.451  11.368  0.7102 -0.0156  0.4984
 5295TIP3    H137300   5.320   2.483  11.359  1.4201  2.2330  1.0617
 5295TIP3    H237301   5.406   2.387  11.439 -0.2388  0.9880  1.3741
 5296TIP3   OH237302   2.923   4.265  15.852  0.1785  0.0199 -0.3071
 5296TIP3    H137303   3.002   4.248  15.904 -0.3139 -0.6232  0.2329
 5296TIP3    H237304   2.941   4.349  15.809 -0.3406  1.7544  2.7134
 5297TIP3   OH237305   5.604   5.928  16.350 -0.4975  0.3505 -0.3596
 5297TIP3    H137306   5.611   5.882  16.433  2.0398 -0.1825 -0.8138
 5297TIP3    H237307   5.693   5.961  16.334 -1.1481  1.1651 -2.4324
 5298TIP3   OH237308   1.700   3.344  16.047 -0.1016  0.3279 -0.0234
 5298TIP3    H137309   1.699   3.312  15.957 -1.9072  1.0656 -0.2921
 5298TIP3    H237310   1.686   3.438  16.039  1.0598  0.5943  0.9633
 5299TIP3   OH237311   3.846   4.804   2.908 -0.0799 -0.1135  0.2994
 5299TIP3    H137312   3.808   4.760   2.833 -0.5640  0.3589  0.2681
 5299TIP3    H237313   3.797   4.771   2.983  1.5968 -1.9783  0.6367
 5300TIP3   OH237314   5.029   6.405  12.240 -0.5808  0.2325 -0.2065
 5300TIP3    H137315   4.965   6.390  12.171  0.5196 -0.6737 -1.0434
 5300TIP3    H237316   5.093   6.465  12.201 -0.9100  1.1376  0.6227
 5301TIP3   OH237317   3.673   1.473   4.363 -0.7401  0.2385  0.1735
 5301TIP3    H137318   3.749   1.461   4.420 -1.6303 -0.5284  1.2275
 5301TIP3    H237319   3.694   1.423   4.284 -0.6383 -0.9385  0.9307
 5302TIP3   OH237320   1.489   2.248   0.546 -0.2823 -0.7540  0.4391
 5302TIP3    H137321   1.423   2.291   0.600  0.7952  0.8025  0.5460
 5302TIP3    H237322   1.482   2.291   0.461 -0.9212 -2.1340 -0.2139
 5303TIP3   OH237323   3.289   3.262  14.052 -0.1389  0.3250  0.3914
 5303TIP3    H137324   3.219   3.307  14.099 -0.7608  2.3798 -2.3023
 5303TIP3    H237325   3.350   3.332  14.027  0.1502 -0.6378 -1.7823
 5304TIP3   OH237326   0.586   1.401   4.530  0.2858 -0.0846  0.2868
 5304TIP3    H137327   0.576   1.307   4.545  0.4117 -0.7250 -3.1641
 5304TIP3    H237328   0.680   1.413   4.515  0.0806  0.2976 -0.7838
 5305TIP3   OH237329   1.323   1.144  16.000  0.1166  0.0958 -0.0401
 5305TIP3    H137330   1.324   1.200  16.077  0.0039  0.6212 -0.4205
 5305TIP3    H237331   1.289   1.200  15.930 -0.1446 -0.4896 -0.3835
 5306TIP3   OH237332   4.410   3.665   4.614  0.0048 -0.2560 -0.5961
 5306TIP3    H137333   4.401   3.713   4.531  2.1147 -1.2593 -1.4386
 5306TIP3    H237334   4.459   3.725   4.671  0.3370 -0.3763 -0.7570
 5307TIP3   OH237335   0.287   1.851  17.032  0.5740  0.2875 -0.3759
 5307TIP3    H137336   0.285   1.945  17.015 -1.0108  0.5925  1.3974
 5307TIP3    H237337   0.282   1.811  16.946 -0.7994  1.8113 -1.0212
 5308TIP3   OH237338   0.420   2.996  14.490 -0.1394 -0.2744  0.1405
 5308TIP3    H137339   0.473   2.970  14.415  0.7756 -0.6378  0.9049
 5308TIP3    H237340   0.357   3.059  14.454 -0.4624 -1.3161 -1.1399
 5309TIP3   OH237341   2.944   4.097  13.561 -0.7079 -0.3057 -0.0151
 5309TIP3    H137342   2.968   4.016  13.517 -2.0300  0.6239 -2.5683
 5309TIP3    H237343   2.853   4.082  13.590 -0.6351 -0.0576  0.3503
 5310TIP3   OH237344   4.867   4.365  13.186  1.0737 -0.0434 -0.1072
 5310TIP3    H137345   4.852   4.320  13.269  2.6440 -1.0263 -0.3305
 5310TIP3    H237346   4.784   4.359  13.140  1.3377 -3.0413 -0.2617
 5311TIP3   OH237347   1.183   0.371  14.217 -0.1034  0.0577 -0.5519
 5311TIP3    H137348   1.177   0.343  14.308 -0.7661  1.8220 -0.0426
 5311TIP3    H237349   1.268   0.415  14.210 -0.2591  0.3361 -0.6811
 5312TIP3   OH237350   6.642   2.812   3.154 -0.3708 -0.1184  0.0907
 5312TIP3    H137351   6.659   2.902   3.126  0.6369 -0.2573  0.2279
 5312TIP3    H237352   6.717   2.762   3.121 -1.2946 -1.0504 -0.6419
 5313TIP3   OH237353   1.380   5.207  13.329 -0.2329 -0.2116 -0.1515
 5313TIP3    H137354   1.458   5.199  13.275 -0.6015  0.7149 -0.8278
 5313TIP3    H237355   1.408   5.178  13.416  0.7830 -0.1385 -0.4513
 5314TIP3   OH237356   2.112   2.141  15.570 -0.7932 -0.3132  0.6831
 5314TIP3    H137357   2.175   2.206  15.538 -0.2215  0.8163  3.9541
 5314TIP3    H237358   2.046   2.136  15.500  1.1613  0.9070 -1.3250
 5315TIP3   OH237359   1.149   3.806  12.731  0.4472  0.2484  0.3766
 5315TIP3    H137360   1.056   3.830  12.731 -1.0891 -5.0655 -1.2687
 5315TIP3    H237361   1.167   3.777  12.820  0.8636  2.1142  0.9340
 5316TIP3   OH237362   5.152   4.145  13.240  0.0592  0.0453  0.9136
 5316TIP3    H137363   5.152   4.241  13.244  0.1189  0.1461 -1.0167
 5316TIP3    H237364   5.079   4.124  13.181 -0.8779 -1.1768  2.4592
 5317TIP3   OH237365   1.954   5.147  16.715  0.7483 -0.1079 -0.5224
 5317TIP3    H137366   1.914   5.086  16.777 -0.1811  0.7385 -0.2849
 5317TIP3    H237367   2.045   5.154  16.744  0.2019  0.6943  1.0887
 5318TIP3   OH237368   2.325   6.692  13.756  0.1907 -0.4088  0.1863
 5318TIP3    H137369   2.354   6.610  13.715  0.4338 -0.1792 -0.1095
 5318TIP3    H237370   2.248   6.668  13.807 -0.2841 -0.6514 -0.6291
 5319TIP3   OH237371   0.007   4.530  15.620 -0.2139 -0.1367  0.2746
 5319TIP3    H137372  -0.015   4.613  15.663  1.8576  0.4712  0.1907
 5319TIP3    H237373   0.096   4.541  15.589 -0.4640 -1.8457 -1.1575
 5320TIP3   OH237374   1.985   3.715  14.107  0.0710  0.1140  0.0749
 5320TIP3    H137375   1.906   3.764  14.131  1.6449  3.5895 -1.5501
 5320TIP3    H237376   2.049   3.738  14.174  1.1036  1.1004 -1.2229
 5321TIP3   OH237377   0.333   3.729   5.367 -0.0779  0.3593 -0.6112
 5321TIP3    H137378   0.423   3.704   5.347  1.2506  1.7018  3.3392
 5321TIP3    H237379   0.293   3.648   5.400  0.3866  0.3476 -0.0708
 5322TIP3   OH237380   4.604   4.654   0.973 -0.1739  0.4420 -0.0059
 5322TIP3    H137381   4.650   4.593   0.915  3.6052  2.3814  0.7679
 5322TIP3    H237382   4.600   4.610   1.057  2.2664  1.0465  0.4695
 5323TIP3   OH237383   1.322   2.689  13.389 -0.2312  0.7845 -0.1103
 5323TIP3    H137384   1.384   2.707  13.460 -2.0664  0.9759  1.5011
 5323TIP3    H237385   1.291   2.776  13.362 -1.1178  0.6280  0.3520
 5324TIP3   OH237386   4.731   6.363   0.867  0.0512 -0.4723 -0.2150
 5324TIP3    H137387   4.767   6.415   0.795  0.5509 -0.8744 -0.2500
 5324TIP3    H237388   4.690   6.288   0.824 -0.5346 -0.1971 -0.1506
 5325TIP3   OH237389   4.298   1.117   4.811  0.1329  0.2302 -0.8108
 5325TIP3    H137390   4.236   1.138   4.740 -3.1846  1.4276  2.2566
 5325TIP3    H237391   4.362   1.187   4.808  0.3192  0.0047 -2.9171
 5326TIP3   OH237392   0.677   1.995   3.965  0.0901  0.1913 -0.0296
 5326TIP3    H137393   0.604   1.935   3.982 -0.4913  1.1222  0.8174
 5326TIP3    H237394   0.741   1.942   3.918 -0.3488 -1.1510  0.8453
 5327TIP3   OH237395   2.842   4.715   4.025  0.5758  0.4971 -0.1032
 5327TIP3    H137396   2.813   4.645   4.084  0.2464 -1.7987 -2.8467
 5327TIP3    H237397   2.932   4.692   4.004  0.5558  1.0397 -0.7842
 5328TIP3   OH237398   2.081   6.563   5.670 -0.2818 -0.1512  0.1933
 5328TIP3    H137399   2.172   6.539   5.656  0.2169  1.0755  1.2724
 5328TIP3    H237400   2.084   6.648   5.714 -1.9482  0.0782 -0.0780
 5329TIP3   OH237401   3.619   4.064   1.921 -0.2122  0.1915 -0.3735
 5329TIP3    H137402   3.640   4.155   1.900  0.6503  0.5084  1.7095
 5329TIP3    H237403   3.529   4.068   1.955 -0.3662  0.1839 -0.7783
 5330TIP3   OH237404   4.090   6.439  13.110  0.2954  0.1629  0.1805
 5330TIP3    H137405   4.019   6.499  13.133  0.7140  0.2984  1.1119
 5330TIP3    H237406   4.083   6.431  13.014 -0.1512  1.2061  0.1116
 5331TIP3   OH237407   5.724   1.397   1.107 -0.1485 -0.1819  0.7236
 5331TIP3    H137408   5.819   1.393   1.106 -0.1930 -2.2254  1.9261
 5331TIP3    H237409   5.704   1.468   1.169  0.5782  0.5849  0.0928
 5332TIP3   OH237410   1.515   0.429  13.856  0.4437 -0.0700 -0.2068
 5332TIP3    H137411   1.541   0.472  13.937 -0.0379  0.6833 -0.4465
 5332TIP3    H237412   1.484   0.343  13.883  0.6265  0.0441  0.3667
 5333TIP3   OH237413   1.723   4.304  16.451 -0.0358  0.5682 -0.1010
 5333TIP3    H137414   1.709   4.341  16.363 -1.1099  0.2266 -0.0764
 5333TIP3    H237415   1.635   4.285  16.483  0.4285 -0.5264  0.5347
 5334TIP3   OH237416   2.758   6.479   1.636 -0.5121  0.0749 -0.3062
 5334TIP3    H137417   2.823   6.546   1.655 -1.7597  0.1405  4.1146
 5334TIP3    H237418   2.738   6.439   1.720 -2.2070 -3.6995 -2.3612
 5335TIP3   OH237419   5.617   0.823  12.182 -0.4579 -0.2386  0.3186
 5335TIP3    H137420   5.638   0.747  12.236  0.7114  0.4739  0.8898
 5335TIP3    H237421   5.624   0.898  12.241  0.0420  0.4653 -0.6159
 5336TIP3   OH237422   3.738   3.238   1.751  0.2282 -0.4226 -0.5532
 5336TIP3    H137423   3.657   3.231   1.801  1.1407  0.0070  1.0206
 5336TIP3    H237424   3.807   3.232   1.817  1.4861 -1.1252 -1.9118
 5337TIP3   OH237425   2.083   3.862   4.172 -0.2397 -0.0740  0.8765
 5337TIP3    H137426   2.132   3.884   4.093 -0.8149 -0.3386  0.4436
 5337TIP3    H237427   2.004   3.914   4.167 -0.2977 -0.1233  1.2584
 5338TIP3   OH237428   1.375   3.228   3.063 -0.1054 -0.2671  0.4506
 5338TIP3    H137429   1.289   3.265   3.043 -0.3065 -1.4518 -0.9245
 5338TIP3    H237430   1.432   3.258   2.992  0.0048 -1.5818 -0.0324
 5339TIP3   OH237431   3.761   6.174  16.301 -0.3786 -0.0649  0.5611
 5339TIP3    H137432   3.691   6.121  16.339  1.8402 -3.1114  0.6507
 5339TIP3    H237433   3.786   6.127  16.222  1.7161  0.8127  0.6700
 5340TIP3   OH237434   6.127   0.680   2.610  0.3597 -0.0220  0.0895
 5340TIP3    H137435   6.131   0.629   2.530  0.6283  1.7204 -1.0337
 5340TIP3    H237436   6.190   0.639   2.669  1.3732 -0.2996 -1.1863
 5341TIP3   OH237437   4.366   2.233  11.668 -0.0112  0.2459 -0.3820
 5341TIP3    H137438   4.384   2.318  11.626  0.9108  0.8329  1.1559
 5341TIP3    H237439   4.451   2.205  11.702 -0.2667 -1.4317 -1.0706
 5342TIP3   OH237440   1.227   1.454   5.430  0.7750  0.0156  0.1269
 5342TIP3    H137441   1.279   1.443   5.509  0.3578  1.1666  0.5738
 5342TIP3    H237442   1.141   1.419   5.453  0.1500  1.9341  0.7615
 5343TIP3   OH237443   1.874   6.381   4.169  0.2927  1.0423 -0.0002
 5343TIP3    H137444   1.912   6.356   4.253 -1.4436  0.7027  0.7177
 5343TIP3    H237445   1.880   6.476   4.167 -0.1484  1.0901  0.7613
 5344TIP3   OH237446   0.952   3.781   5.359  0.0872 -0.0527 -0.2542
 5344TIP3    H137447   0.886   3.747   5.420  0.2927 -1.3622 -0.7510
 5344TIP3    H237448   1.035   3.768   5.405  0.1842 -0.3872 -0.5317
 5345TIP3   OH237449   0.228   2.367  16.877 -0.0785 -0.3392 -0.0563
 5345TIP3    H137450   0.185   2.435  16.929  0.3791 -0.4287  0.4598
 5345TIP3    H237451   0.212   2.286  16.925  1.9684 -0.1619  1.0190
 5346TIP3   OH237452   2.135   5.380   2.917  0.7008 -0.0790  0.1210
 5346TIP3    H137453   2.074   5.434   2.867  0.2187 -0.4233  0.3394
 5346TIP3    H237454   2.149   5.303   2.863  0.5746 -0.2177  0.2853
 5347TIP3   OH237455   4.792   0.027   5.467  0.2860  0.2625  0.1530
 5347TIP3    H137456   4.720  -0.003   5.523 -0.6065  1.6955 -0.1927
 5347TIP3    H237457   4.750   0.079   5.399  1.7262  1.9973  0.5359
 5348TIP3   OH237458   2.045   1.472   5.536 -0.1262  0.3146  0.2318
 5348TIP3    H137459   2.032   1.393   5.485 -0.6377  0.6309 -0.1383
 5348TIP3    H237460   2.017   1.449   5.625  0.3476 -0.1065  0.2729
 5349TIP3   OH237461   4.815   4.630  17.112  0.1057  0.1695  0.3983
 5349TIP3    H137462   4.800   4.644  17.205  0.4492 -0.2075  0.5115
 5349TIP3    H237463   4.871   4.553  17.108 -1.1962 -0.7666 -0.1877
 5350TIP3   OH237464   3.498   4.687  16.016 -0.1884  0.1710 -0.0444
 5350TIP3    H137465   3.431   4.719  16.075  0.5990  0.4737  0.6861
 5350TIP3    H237466   3.461   4.700  15.928 -1.7274 -1.1210  0.3836
 5351TIP3   OH237467   3.856   0.358   0.608  0.2083 -0.4150  0.0819
 5351TIP3    H137468   3.765   0.385   0.593  0.2037 -1.6299 -2.3580
 5351TIP3    H237469   3.851   0.263   0.622  0.8669 -0.1352  2.4793
 5352TIP3   OH237470   0.611   2.929  15.003  0.0594 -0.0463  0.1420
 5352TIP3    H137471   0.586   2.952  14.914  1.7068 -0.3402 -0.4016
 5352TIP3    H237472   0.690   2.980  15.021  0.3557 -0.7979  1.0376
 5353TIP3   OH237473   1.442   6.167   3.756 -0.3110  0.2485  0.5801
 5353TIP3    H137474   1.388   6.089   3.744  1.6234 -0.8358 -1.3191
 5353TIP3    H237475   1.442   6.209   3.671  2.1151  0.0377  0.4429
 5354TIP3   OH237476   4.768   3.673   4.741 -0.2509 -0.3888  0.3834
 5354TIP3    H137477   4.791   3.630   4.823  1.4975  1.3375  0.8438
 5354TIP3    H237478   4.774   3.604   4.675 -2.9958 -2.1117  1.8685
 5355TIP3   OH237479   1.815   1.114  14.972  0.0501 -0.3553 -0.3889
 5355TIP3    H137480   1.752   1.107  15.044  0.6156 -0.2231  0.1249
 5355TIP3    H237481   1.899   1.093  15.012  0.1642 -1.7488 -1.3451
 5356TIP3   OH237482   1.453   4.897  13.360 -0.0806 -0.8174 -0.3789
 5356TIP3    H137483   1.463   4.914  13.266 -2.5756 -1.9798 -0.8951
 5356TIP3    H237484   1.475   4.804  13.369  1.2374 -0.4427  0.3866
 5357TIP3   OH237485   2.259   4.074   6.215 -0.1871  0.0021 -0.2314
 5357TIP3    H137486   2.320   4.001   6.205 -0.0925  0.0249  0.1823
 5357TIP3    H237487   2.208   4.053   6.293  1.9070  1.8226  1.7149
 5358TIP3   OH237488   4.646   0.998   4.904 -0.0682 -0.0979 -0.3712
 5358TIP3    H137489   4.567   1.042   4.875  1.5553  2.8651 -0.4830
 5358TIP3    H237490   4.636   0.991   4.999 -1.2956 -1.4939 -0.5880
 5359TIP3   OH237491   6.725   5.849  13.100 -0.0315 -0.0787  0.0004
 5359TIP3    H137492   6.777   5.912  13.150  0.2727 -0.2627 -0.0838
 5359TIP3    H237493   6.787   5.780  13.076 -0.2427 -0.1337 -0.3848
 5360TIP3   OH237494   0.339   5.893   2.045  0.5414 -0.1502 -0.6926
 5360TIP3    H137495   0.263   5.948   2.064  0.3119 -1.2355  1.6684
 5360TIP3    H237496   0.413   5.954   2.043 -0.2205  0.7451 -1.8380
 5361TIP3   OH237497   6.623   0.197  12.331  0.0579  0.2221 -0.3408
 5361TIP3    H137498   6.667   0.281  12.338  1.4007 -0.2332 -2.7110
 5361TIP3    H237499   6.688   0.139  12.290 -1.1193 -1.7388  0.4913
 5362TIP3   OH237500   2.892   3.885   3.758  0.0954 -0.2101 -0.1205
 5362TIP3    H137501   2.962   3.919   3.702 -0.6412 -1.4009 -1.8057
 5362TIP3    H237502   2.936   3.857   3.838  1.1694  1.5231 -0.0869
 5363TIP3   OH237503   6.484   5.859   4.037  0.6411 -0.0955  0.2958
 5363TIP3    H137504   6.470   5.777   3.989 -0.8968  1.0269 -1.2109
 5363TIP3    H237505   6.551   5.905   3.987  0.9925 -0.1003  0.7530
 5364TIP3   OH237506   5.426   1.042  13.931 -0.9765  0.0871 -0.0024
 5364TIP3    H137507   5.475   0.962  13.945  0.6622  0.6945 -1.9699
 5364TIP3    H237508   5.479   1.110  13.972 -0.9562  0.5402 -0.7721
 5365TIP3   OH237509   4.157   2.551  11.939  0.9385  0.0231  0.7579
 5365TIP3    H137510   4.071   2.552  11.896  1.0703 -0.6249  0.4614
 5365TIP3    H237511   4.205   2.623  11.899  0.9833 -0.4420 -0.0420
 5366TIP3   OH237512   0.364   5.580  11.206 -0.2574  0.0131  0.2149
 5366TIP3    H137513   0.401   5.520  11.141  0.2119 -0.0268  0.5242
 5366TIP3    H237514   0.394   5.547  11.290  2.0982  2.1333  0.2560
 5367TIP3   OH237515   6.030   3.053  15.402  0.2451  0.3671 -0.2258
 5367TIP3    H137516   6.118   3.017  15.390  0.7456  1.3342  0.4859
 5367TIP3    H237517   5.981   3.022  15.326  0.6151 -1.9171  0.4208
 5368TIP3   OH237518   5.095   5.698   4.918  0.8755  0.3822 -0.2508
 5368TIP3    H137519   5.133   5.613   4.897 -0.4230 -0.0793 -0.8009
 5368TIP3    H237520   5.001   5.681   4.926  0.3836  2.0732 -2.0452
 5369TIP3   OH237521   6.337   4.670   4.138 -0.2513 -0.0026 -0.0588
 5369TIP3    H137522   6.400   4.599   4.125 -1.5768 -1.0689 -0.9308
 5369TIP3    H237523   6.261   4.627   4.177 -1.1268  0.9050 -0.7335
 5370TIP3   OH237524   5.349   6.325  12.341 -0.2934 -0.1937  0.0301
 5370TIP3    H137525   5.317   6.389  12.405 -0.6955 -0.3379 -0.0232
 5370TIP3    H237526   5.294   6.248  12.357  0.3505 -0.6046  0.2588
 5371TIP3   OH237527   5.710   2.738  13.293 -0.4528  0.2815  0.1309
 5371TIP3    H137528   5.804   2.723  13.282 -0.3113 -0.4692  2.0791
 5371TIP3    H237529   5.673   2.726  13.206  1.1488 -0.3284 -0.4826
 5372TIP3   OH237530   4.708   5.299  14.044  0.0757 -0.1038 -0.4555
 5372TIP3    H137531   4.766   5.253  13.984 -0.5923 -0.0734 -1.1364
 5372TIP3    H237532   4.729   5.392  14.031  1.3630 -0.1901  0.8575
 5373TIP3   OH237533   6.368   4.761  15.647  0.6002  0.2571  0.1095
 5373TIP3    H137534   6.342   4.677  15.685 -0.8489  0.5681 -0.1658
 5373TIP3    H237535   6.327   4.826  15.703  0.8968  0.7662 -0.2657
 5374TIP3   OH237536   0.554   0.958  15.306  0.0936 -0.1026 -0.1578
 5374TIP3    H137537   0.552   0.983  15.213  1.1081  1.8920  0.3238
 5374TIP3    H237538   0.465   0.926  15.323  0.5851 -2.8355 -2.3992
 5375TIP3   OH237539   1.995   1.474   3.706 -0.0898 -0.7522 -0.6135
 5375TIP3    H137540   2.056   1.545   3.725 -0.8000  0.1330 -1.5959
 5375TIP3    H237541   1.991   1.471   3.611 -2.0616 -0.3662 -0.5703
 5376TIP3   OH237542   0.860   0.726  13.040  0.0344  0.2964  0.5301
 5376TIP3    H137543   0.936   0.760  12.993 -1.3203 -1.2999 -3.0163
 5376TIP3    H237544   0.786   0.775  13.004 -1.2972 -2.5475 -0.8118
 5377TIP3   OH237545   4.621   1.125   1.980 -0.0841 -0.3929  0.1535
 5377TIP3    H137546   4.563   1.157   1.911 -3.5768 -2.1290  2.1505
 5377TIP3    H237547   4.665   1.050   1.942  0.1265  0.3310 -1.0649
 5378TIP3   OH237548   5.614   4.443   1.737  0.3936  0.4682  0.5422
 5378TIP3    H137549   5.660   4.443   1.820 -0.8106  0.2789  1.2185
 5378TIP3    H237550   5.618   4.352   1.707 -1.1461  0.0469  1.5259
 5379TIP3   OH237551   5.725   1.911   2.777 -0.1123  0.2151  0.6061
 5379TIP3    H137552   5.728   1.866   2.861  0.1078 -0.2548  0.3512
 5379TIP3    H237553   5.635   1.900   2.747 -0.0270 -0.1778  0.4833
 5380TIP3   OH237554   4.180   3.528   0.369 -0.3090 -0.0949 -0.0738
 5380TIP3    H137555   4.167   3.492   0.457 -0.7976 -1.4116 -0.6614
 5380TIP3    H237556   4.242   3.600   0.381  2.4580 -2.5275  0.8705
 5381TIP3   OH237557   0.763   3.750  16.489 -0.6341  0.6935 -0.0386
 5381TIP3    H137558   0.755   3.837  16.527  0.3404  0.5955  0.3923
 5381TIP3    H237559   0.854   3.744  16.460 -0.5654 -0.3527  0.3519
 5382TIP3   OH237560   2.033   4.523   0.441 -0.3575 -0.0095  0.1209
 5382TIP3    H137561   2.006   4.480   0.522 -1.3202 -1.4678 -0.9496
 5382TIP3    H237562   2.022   4.457   0.374 -0.5145  1.4931 -1.3703
 5383TIP3   OH237563   2.119   2.018   0.994 -0.5452  0.2943  0.0843
 5383TIP3    H137564   2.068   1.983   1.066 -0.4409  1.2652  0.6404
 5383TIP3    H237565   2.132   1.944   0.935 -2.5034  0.0178 -0.0163
 5384TIP3   OH237566   3.791   6.104  16.575 -0.2941 -0.2365  0.7054
 5384TIP3    H137567   3.826   6.180  16.529  1.5881 -2.6672 -2.0005
 5384TIP3    H237568   3.696   6.109  16.560 -0.2032  1.5041  0.5545
 5385TIP3   OH237569   5.703   3.908  14.829  0.2395  0.1662  0.7316
 5385TIP3    H137570   5.736   3.997  14.815  0.9626 -0.4006 -1.4634
 5385TIP3    H237571   5.660   3.911  14.915  2.0610  2.0894  1.6187
 5386TIP3   OH237572   0.820   3.619   4.057  0.3259  0.5548  0.4181
 5386TIP3    H137573   0.858   3.590   4.140  2.8456  0.0358 -0.8959
 5386TIP3    H237574   0.803   3.538   4.009 -1.5800  0.8263  0.5726
 5387TIP3   OH237575   3.487   6.286   3.080  0.5361 -0.0678 -0.0869
 5387TIP3    H137576   3.572   6.328   3.068  0.8297 -0.3885  0.8152
 5387TIP3    H237577   3.456   6.318   3.164  0.4884 -1.1835  0.3214
 5388TIP3   OH237578   1.462   6.201  12.665  0.3623  0.1488  0.2583
 5388TIP3    H137579   1.537   6.164  12.711  0.4997  1.0201  0.7556
 5388TIP3    H237580   1.487   6.292  12.648 -0.2056  0.1891 -0.3949
 5389TIP3   OH237581   5.504   4.738  11.442  0.5260  0.9650 -0.4868
 5389TIP3    H137582   5.577   4.687  11.477 -0.9331  0.3428  1.7682
 5389TIP3    H237583   5.534   4.829  11.446  1.0829  0.7351  0.6916
 5390TIP3   OH237584   1.449   2.535   2.159 -0.3429 -0.0857  0.3468
 5390TIP3    H137585   1.457   2.466   2.225 -1.5786 -0.0927  0.5037
 5390TIP3    H237586   1.395   2.602   2.201 -0.2741  0.3742 -0.2899
 5391TIP3   OH237587   2.804   3.170   0.034 -0.1301 -0.0861 -0.2635
 5391TIP3    H137588   2.723   3.161  -0.016 -0.9446 -2.3111  1.3974
 5391TIP3    H237589   2.854   3.092   0.014 -0.3124 -0.8433  2.0749
 5392TIP3   OH237590   3.943   5.922   6.021  0.0532 -0.5235  0.2065
 5392TIP3    H137591   3.961   5.829   6.005 -0.8356 -0.8401  1.0034
 5392TIP3    H237592   3.964   5.934   6.114  2.6753  0.6843 -0.4943
 5393TIP3   OH237593   4.451   4.292  12.828  0.0494 -0.2331  0.7499
 5393TIP3    H137594   4.407   4.344  12.761  0.0799  1.1822  1.8009
 5393TIP3    H237595   4.380   4.258  12.882  0.0994 -0.2953  0.7768
 5394TIP3   OH237596   3.653   2.111   1.044 -0.1064  0.3902 -0.1579
 5394TIP3    H137597   3.718   2.050   1.079  0.3027 -0.2017 -1.8906
 5394TIP3    H237598   3.638   2.081   0.954 -1.7698  1.3383 -0.2199
 5395TIP3   OH237599   2.949   0.847   4.616  0.3136 -0.0923  0.0256
 5395TIP3    H137600   2.935   0.768   4.564  1.3527 -0.5499  0.4090
 5395TIP3    H237601   3.040   0.872   4.597  0.1730  0.6834  0.3415
 5396TIP3   OH237602   4.881   0.787  11.848  0.1018  0.3052 -0.1817
 5396TIP3    H137603   4.807   0.767  11.791  0.4695  1.4403 -1.0673
 5396TIP3    H237604   4.854   0.865  11.896 -0.2801 -0.7464  1.3606
 5397TIP3   OH237605   1.653   3.833   4.274  0.6709  0.2324  0.2180
 5397TIP3    H137606   1.570   3.882   4.271  0.6058  0.1468  0.5956
 5397TIP3    H237607   1.680   3.827   4.183 -1.5250 -2.7750 -0.3018
 5398TIP3   OH237608   4.918   3.053  12.768 -0.1499  0.4915  0.4390
 5398TIP3    H137609   4.970   2.979  12.800 -1.6150 -0.3053  1.0585
 5398TIP3    H237610   4.920   3.044  12.673 -1.6663 -1.3495  0.5398
 5399TIP3   OH237611   6.374   0.342  12.067 -0.6410  0.1110 -0.6789
 5399TIP3    H137612   6.316   0.330  12.142 -0.6287 -0.0302 -0.6914
 5399TIP3    H237613   6.334   0.290  11.997 -2.4500  2.8809 -1.7591
 5400TIP3   OH237614   2.891   6.130  14.440  0.5049 -0.7336 -0.4048
 5400TIP3    H137615   2.955   6.059  14.442 -0.1458 -1.2655  2.5248
 5400TIP3    H237616   2.814   6.091  14.398  0.6265 -1.3555 -0.0637
 5401TIP3   OH237617   4.346   1.906   5.559  0.2632 -0.0214 -0.0912
 5401TIP3    H137618   4.276   1.855   5.518 -0.7634  1.4865 -0.2717
 5401TIP3    H237619   4.340   1.884   5.652  0.3616 -0.8551 -0.2805
 5402TIP3   OH237620   6.547   2.782  15.113 -0.1641  0.0801 -0.0672
 5402TIP3    H137621   6.577   2.756  15.200  0.3033 -1.4834 -0.6763
 5402TIP3    H237622   6.623   2.824  15.073 -0.5562  1.3332  0.4817
 5403TIP3   OH237623   5.888   0.758   6.026 -0.8099  0.2891 -0.5737
 5403TIP3    H137624   5.869   0.816   6.100 -2.5276 -0.5969 -0.2916
 5403TIP3    H237625   5.901   0.818   5.952  2.0821  1.2408  0.6281
 5404TIP3   OH237626   3.701   0.068  12.931  0.7364  0.3339  0.1379
 5404TIP3    H137627   3.793   0.094  12.927  1.0204 -0.8352 -0.9785
 5404TIP3    H237628   3.685   0.023  12.849 -0.1356 -1.7909  1.4300
 5405TIP3   OH237629   2.182   1.832   2.188 -0.2307 -0.0223  0.2595
 5405TIP3    H137630   2.115   1.784   2.140 -0.3804 -1.0022  1.4446
 5405TIP3    H237631   2.188   1.916   2.143 -0.7979 -0.7001 -1.1077
 5406TIP3   OH237632   5.207   0.188   3.973  0.2184  0.2207  0.5089
 5406TIP3    H137633   5.255   0.225   3.899  1.1627 -0.6391  0.6701
 5406TIP3    H237634   5.123   0.233   3.973  0.4963  0.7486 -0.6442
 5407TIP3   OH237635   0.257   4.151  10.624 -0.1549 -0.1791 -0.0855
 5407TIP3    H137636   0.252   4.099  10.544 -0.2485  0.5166 -0.5438
 5407TIP3    H237637   0.349   4.176  10.631 -0.2734  0.3573 -0.3732
 5408TIP3   OH237638   2.190   5.733  12.746 -0.0361  0.1457 -0.6797
 5408TIP3    H137639   2.097   5.722  12.765  0.0356  0.8805  0.1116
 5408TIP3    H237640   2.194   5.745  12.651 -0.5653 -1.7382 -0.9613
 5409TIP3   OH237641   0.441   3.093   0.250 -0.1236 -0.3766  0.6396
 5409TIP3    H137642   0.454   3.185   0.226  0.3938 -0.2199  1.5401
 5409TIP3    H237643   0.361   3.068   0.203 -0.0591  0.4201  0.0933
 5410TIP3   OH237644   3.367   2.048  16.719 -0.0305 -0.6436 -0.0014
 5410TIP3    H137645   3.308   2.096  16.777 -0.0436 -1.3479  0.5673
 5410TIP3    H237646   3.333   2.065  16.631 -1.1471 -1.1174  0.3330
 5411TIP3   OH237647   1.200   5.030  12.869  0.0943  0.2033 -0.3233
 5411TIP3    H137648   1.162   5.068  12.948  1.5843  0.0543  0.4860
 5411TIP3    H237649   1.232   5.105  12.818 -1.4171  0.3409 -1.0899
 5412TIP3   OH237650   4.947   6.448  14.396 -0.2593 -0.4216  0.2331
 5412TIP3    H137651   4.873   6.448  14.457  0.6410  1.3904  1.3787
 5412TIP3    H237652   5.010   6.387  14.435 -0.3468 -0.4961  0.2601
 5413TIP3   OH237653   0.608   5.886   4.301  0.4282  0.2688 -0.0958
 5413TIP3    H137654   0.581   5.799   4.273  0.3323 -0.1372  1.2289
 5413TIP3    H237655   0.649   5.872   4.387  1.9454  1.2911 -0.6291
 5414TIP3   OH237656   0.332   2.595   4.770 -0.2031  0.6964  0.3846
 5414TIP3    H137657   0.266   2.618   4.835 -1.3399 -0.8735 -0.1715
 5414TIP3    H237658   0.382   2.675   4.757 -0.2545  1.1709  2.8264
 5415TIP3   OH237659   2.391   2.449  16.582 -0.4170 -0.2194  0.9934
 5415TIP3    H137660   2.357   2.449  16.672 -0.5850  0.1083  0.9313
 5415TIP3    H237661   2.420   2.359  16.567 -1.2239 -0.4869  1.0600
 5416TIP3   OH237662   5.992   3.835   0.887  0.0780 -0.1318  0.2585
 5416TIP3    H137663   5.982   3.908   0.827 -1.2444 -0.8629 -0.4340
 5416TIP3    H237664   6.001   3.758   0.831  0.8937 -0.5748  0.9806
 5417TIP3   OH237665   0.568   2.458   3.035  0.0591  0.3666 -0.1152
 5417TIP3    H137666   0.656   2.494   3.030 -0.5321  1.4626 -3.8275
 5417TIP3    H237667   0.530   2.500   3.113  1.7533  2.2696 -0.2671
 5418TIP3   OH237668   3.653   3.420  10.753  0.2061 -0.1997 -0.1355
 5418TIP3    H137669   3.571   3.372  10.764 -0.1076  0.4552  0.4123
 5418TIP3    H237670   3.628   3.505  10.718  0.4115  0.8558  2.1773
 5419TIP3   OH237671   1.139   1.787  14.381  0.2681  0.5229  0.0253
 5419TIP3    H137672   1.208   1.834  14.429  1.6004 -0.1645 -1.1590
 5419TIP3    H237673   1.185   1.750  14.305 -1.3772 -0.1553 -0.6469
 5420TIP3   OH237674   5.356   4.670   0.415 -0.8078  0.4410  0.0542
 5420TIP3    H137675   5.363   4.594   0.472 -0.6668  0.6220  0.2804
 5420TIP3    H237676   5.387   4.743   0.468 -0.7279  0.6204 -0.2342
 5421TIP3   OH237677   4.080   5.876   3.628  0.1508  0.3523  0.4992
 5421TIP3    H137678   3.998   5.892   3.581  0.5988  2.0276  0.2523
 5421TIP3    H237679   4.097   5.958   3.675  2.1507  0.3659 -0.1849
 5422TIP3   OH237680   2.618   3.517   4.304  0.5484 -0.0128  0.1977
 5422TIP3    H137681   2.539   3.465   4.317  0.0643  0.3011 -1.3833
 5422TIP3    H237682   2.619   3.537   4.211  2.0428  0.7237  0.3459
 5423TIP3   OH237683   3.781   5.418   2.124  0.3940  0.3012  0.4517
 5423TIP3    H137684   3.758   5.508   2.098  0.3951  0.0435 -0.4545
 5423TIP3    H237685   3.867   5.404   2.084 -0.7889 -1.0591 -1.7173
 5424TIP3   OH237686   3.979   6.100   0.078  0.2134 -0.4454 -0.2127
 5424TIP3    H137687   4.020   6.078   0.161  0.9122 -1.4090 -0.7974
 5424TIP3    H237688   4.051   6.123   0.020 -0.1565 -0.9192 -0.8829
 5425TIP3   OH237689   4.777   0.497  16.089  0.2138 -0.2324 -0.3499
 5425TIP3    H137690   4.730   0.535  16.163  0.2113  0.0793 -0.5124
 5425TIP3    H237691   4.729   0.415  16.071 -1.0805  0.7201 -1.3466
 5426TIP3   OH237692   0.838   0.288  11.605 -0.6103  0.1070 -0.4183
 5426TIP3    H137693   0.864   0.296  11.697 -1.6701  1.5041 -0.2169
 5426TIP3    H237694   0.882   0.361  11.561 -3.5835  2.1953 -0.1648
 5427TIP3   OH237695   5.588   4.772   0.881  0.3030 -0.7190 -0.2860
 5427TIP3    H137696   5.545   4.773   0.966 -0.6494  0.1529 -0.7798
 5427TIP3    H237697   5.562   4.689   0.842 -1.2334 -0.0327 -0.7373
 5428TIP3   OH237698   3.946   5.255   4.788 -0.3742  0.6991 -0.1905
 5428TIP3    H137699   4.032   5.269   4.747  0.7011  1.5917  2.2971
 5428TIP3    H237700   3.914   5.343   4.806 -1.7135  0.3560 -0.8183
 5429TIP3   OH237701   5.029   5.055  13.036 -0.0740  0.0637 -0.1161
 5429TIP3    H137702   5.090   5.019  13.101  0.5790  1.2529 -0.0627
 5429TIP3    H237703   5.083   5.067  12.958  0.0982  2.3762  0.3255
 5430TIP3   OH237704   0.786   3.730  15.326 -0.6969 -0.1447  0.5533
 5430TIP3    H137705   0.726   3.775  15.267  0.8670 -0.1661 -1.1186
 5430TIP3    H237706   0.782   3.638  15.299  1.5256  0.1529 -0.9029
 5431TIP3   OH237707   3.715   5.150  14.928 -0.1982 -0.3301  0.3839
 5431TIP3    H137708   3.681   5.061  14.931 -0.6427 -0.1164  1.8373
 5431TIP3    H237709   3.694   5.181  14.840 -1.3504 -1.1510  0.3707
 5432TIP3   OH237710   0.161   6.020   4.382 -0.3423  0.6187  0.1968
 5432TIP3    H137711   0.234   6.075   4.409  0.2810 -0.0250 -0.1395
 5432TIP3    H237712   0.184   5.932   4.413 -0.4706  0.2126 -0.8365
 5433TIP3   OH237713   3.841   2.539  14.665  0.2433  0.0673 -0.4582
 5433TIP3    H137714   3.869   2.561  14.754  1.2071 -0.2616 -0.6805
 5433TIP3    H237715   3.751   2.507  14.675  0.9577 -1.6037  0.5981
 5434TIP3   OH237716   0.616   1.636  15.598 -0.1545  0.0401  0.0001
 5434TIP3    H137717   0.618   1.576  15.524 -3.3882 -0.4801  0.2450
 5434TIP3    H237718   0.544   1.697  15.578 -0.0152  0.8951  1.9256
 5435TIP3   OH237719   6.341   4.587   2.267  0.2889  0.5408  0.2156
 5435TIP3    H137720   6.261   4.536   2.253  0.0052  1.0386 -0.0389
 5435TIP3    H237721   6.398   4.530   2.318  0.6301 -0.6503 -1.4379
 5436TIP3   OH237722   1.373   5.834   1.132  0.2593  0.2698 -0.1417
 5436TIP3    H137723   1.443   5.788   1.085  2.3358  1.3530  1.8058
 5436TIP3    H237724   1.390   5.815   1.224 -2.6331 -0.2683  0.3324
 5437TIP3   OH237725   5.448   4.920  10.695  0.1299  0.3283 -0.1819
 5437TIP3    H137726   5.404   4.948  10.776  0.9329 -0.2465  0.4679
 5437TIP3    H237727   5.378   4.889  10.638 -0.3539 -0.2424  0.7076
 5438TIP3   OH237728   5.138   3.240  12.409 -0.3775  0.1668 -0.3904
 5438TIP3    H137729   5.181   3.316  12.447  0.3643  0.9646 -2.8080
 5438TIP3    H237730   5.057   3.274  12.371 -0.2903 -0.3395 -1.0414
 5439TIP3   OH237731   4.332   2.921  13.437 -0.3690 -0.4513 -0.0610
 5439TIP3    H137732   4.417   2.899  13.476 -0.2374  0.3371  0.1097
 5439TIP3    H237733   4.272   2.855  13.471  0.0661 -0.6828  0.2617
 5440TIP3   OH237734   2.886   3.851  13.929 -0.1430  0.2423  0.5297
 5440TIP3    H137735   2.904   3.913  13.999  0.9259  0.8899 -0.2932
 5440TIP3    H237736   2.818   3.893  13.876 -1.2516 -0.4324  1.3998
 5441TIP3   OH237737   2.478   4.028   2.376 -0.1659 -0.3352  0.1058
 5441TIP3    H137738   2.465   4.098   2.441 -2.1116  0.5038 -1.1671
 5441TIP3    H237739   2.569   4.039   2.347  0.7865 -0.8105  2.7513
 5442TIP3   OH237740   4.322   6.220  13.815  0.3462  0.8268 -0.1068
 5442TIP3    H137741   4.337   6.125  13.811  0.1727  0.8256 -0.8458
 5442TIP3    H237742   4.239   6.232  13.770  0.1116  1.2771  0.4454
 5443TIP3   OH237743   3.263   5.204  15.914  0.8734  0.0063 -0.0692
 5443TIP3    H137744   3.195   5.251  15.963  2.1774  1.9949 -0.1048
 5443TIP3    H237745   3.310   5.273  15.867  1.7640 -1.5357 -1.4923
 5444TIP3   OH237746   5.727   1.110   3.887  0.4009  0.1486 -0.9039
 5444TIP3    H137747   5.735   1.204   3.870  2.6042  0.1087 -0.2394
 5444TIP3    H237748   5.809   1.073   3.855  0.2317 -1.3333  0.3376
 5445TIP3   OH237749   5.351   1.557   4.805 -0.3151  0.0266  0.2473
 5445TIP3    H137750   5.261   1.553   4.771 -0.7599 -1.1081  1.5313
 5445TIP3    H237751   5.406   1.561   4.727 -1.5345  2.2675 -0.5561
 5446TIP3   OH237752   4.915   6.593   5.616  0.6569 -0.0248  0.1703
 5446TIP3    H137753   4.871   6.658   5.561  2.1821  1.6576  0.9242
 5446TIP3    H237754   4.877   6.606   5.703 -0.2467 -1.2931 -0.0197
 5447TIP3   OH237755   3.670   5.497  14.679 -0.1725 -0.3494  0.0610
 5447TIP3    H137756   3.583   5.530  14.698 -0.0927 -0.1114  0.0134
 5447TIP3    H237757   3.662   5.402  14.685 -1.0271 -0.4740 -2.4098
 5448TIP3   OH237758   1.010   4.507   3.869 -0.5153 -0.2219 -0.1696
 5448TIP3    H137759   1.008   4.575   3.936 -0.4531 -2.0358  1.7179
 5448TIP3    H237760   0.920   4.501   3.837 -0.6123  0.4121 -0.0214
 5449TIP3   OH237761   1.149   6.687   0.177 -0.2547  0.2299  0.8759
 5449TIP3    H137762   1.058   6.661   0.192 -0.5411  1.4789  1.4181
 5449TIP3    H237763   1.143   6.769   0.127  0.5553  0.4704  1.1601
 5450TIP3   OH237764   1.385   5.604   5.086 -0.3218 -0.6076  0.8414
 5450TIP3    H137765   1.355   5.568   5.170 -1.4865 -1.1817  0.1880
 5450TIP3    H237766   1.439   5.536   5.048  0.2262 -0.3379  1.1312
 5451TIP3   OH237767   0.488   3.057  15.517 -0.3070 -0.1795  0.0249
 5451TIP3    H137768   0.508   3.150  15.501 -0.8908 -0.3222 -1.5901
 5451TIP3    H237769   0.392   3.054  15.523 -0.2227 -0.4937  1.3427
 5452TIP3   OH237770   3.334   6.171  16.059 -0.0962  0.2642  0.1479
 5452TIP3    H137771   3.291   6.088  16.038 -0.1803  0.3511 -0.0264
 5452TIP3    H237772   3.397   6.184  15.988 -1.1335  1.0950 -0.6362
 5453TIP3   OH237773   3.593   1.420  12.058 -0.0919  0.3938 -0.2140
 5453TIP3    H137774   3.551   1.496  12.018 -3.3992 -1.0598  0.3193
 5453TIP3    H237775   3.587   1.351  11.992  0.7127 -0.0737  0.1920
 5454TIP3   OH237776   1.833   1.503   3.924 -0.4909  0.2776  0.1835
 5454TIP3    H137777   1.788   1.587   3.919 -1.2639 -0.1797 -0.7426
 5454TIP3    H237778   1.880   1.496   3.840 -0.9957 -0.5209 -0.0414
 5455TIP3   OH237779   3.532   4.154   6.524 -0.1315 -0.6848 -0.3940
 5455TIP3    H137780   3.600   4.197   6.575 -0.7594  0.6842 -0.6856
 5455TIP3    H237781   3.548   4.061   6.536 -0.4176 -0.3967  2.5137
 5456TIP3   OH237782   6.776   5.639   1.729  0.4465  0.3282  0.6444
 5456TIP3    H137783   6.695   5.689   1.731  0.0219 -0.2943 -0.6123
 5456TIP3    H237784   6.830   5.684   1.664  1.1098  0.7318  1.4648
 5457TIP3   OH237785   1.596   0.034   3.044  0.2721  0.2551  0.3645
 5457TIP3    H137786   1.658   0.105   3.058  1.1199 -0.3021 -0.5124
 5457TIP3    H237787   1.510   0.073   3.064  0.9167  0.9493  1.8019
 5458TIP3   OH237788   1.302   6.290  14.396  0.1205 -0.3435  0.0522
 5458TIP3    H137789   1.386   6.254  14.426 -0.8807 -1.6571  1.3294
 5458TIP3    H237790   1.256   6.214  14.358 -0.9492  0.1336  0.3803
 5459TIP3   OH237791   6.146   4.548  14.030  0.2589  0.7005 -0.3231
 5459TIP3    H137792   6.061   4.520  13.996  0.6690 -1.4774  0.3323
 5459TIP3    H237793   6.210   4.505  13.973  0.9268  0.5820  0.5039
 5460TIP3   OH237794   6.099   6.576   0.540  0.0577  0.5349 -0.3710
 5460TIP3    H137795   6.032   6.643   0.549 -1.0068 -0.5632 -0.0324
 5460TIP3    H237796   6.093   6.525   0.621  1.0602  0.2132 -0.4938
 5461TIP3   OH237797   3.542   5.632  12.628  0.1611 -0.1950 -0.0907
 5461TIP3    H137798   3.560   5.682  12.548  0.3209  0.7350  0.5287
 5461TIP3    H237799   3.575   5.544  12.608  1.6269  0.4350 -0.4723
 5462TIP3   OH237800   2.528   4.087  15.577 -0.0474  0.1083 -0.2923
 5462TIP3    H137801   2.611   4.087  15.625  0.4482  0.7491 -1.1368
 5462TIP3    H237802   2.552   4.113  15.488 -1.2023  0.6421 -0.4487
 5463TIP3   OH237803   6.744   2.548  12.280 -0.1054 -0.4989  0.0709
 5463TIP3    H137804   6.733   2.455  12.301 -0.4124 -1.0147 -2.2204
 5463TIP3    H237805   6.660   2.574  12.240  0.6749  0.2021 -1.1593
 5464TIP3   OH237806   0.723   4.459  13.695 -0.3371 -0.6088 -0.8240
 5464TIP3    H137807   0.743   4.508  13.615 -0.9194  2.1040  0.6237
 5464TIP3    H237808   0.807   4.422  13.722  0.3392  0.4753 -1.4063
 5465TIP3   OH237809   4.026   5.226  17.127  0.5466  0.0713 -0.1467
 5465TIP3    H137810   4.118   5.212  17.151  0.6156  0.9059  0.1041
 5465TIP3    H237811   4.028   5.244  17.033  0.5177 -0.9761 -0.3567
 5466TIP3   OH237812   0.015   6.472  14.190 -0.2687  0.1792 -0.3671
 5466TIP3    H137813   0.094   6.455  14.139 -0.7780 -3.1285 -0.2036
 5466TIP3    H237814  -0.043   6.519  14.130  1.5681  2.0952 -0.6740
 5467TIP3   OH237815   3.679   6.327   0.241  0.7078  0.1079 -0.0649
 5467TIP3    H137816   3.701   6.234   0.247  3.0377  0.6642  0.5114
 5467TIP3    H237817   3.754   6.367   0.197 -0.7766  1.5605 -1.3594
 5468TIP3   OH237818   4.123   6.749   5.635 -0.2279 -0.3654  0.8174
 5468TIP3    H137819   4.196   6.698   5.670  0.7827  0.8034  0.4247
 5468TIP3    H237820   4.137   6.751   5.541 -2.7758 -3.2197  0.3017
 5469TIP3   OH237821   2.168   0.137   0.588 -0.0411  0.2805  0.0478
 5469TIP3    H137822   2.082   0.159   0.551 -0.7506 -0.1842  1.3624
 5469TIP3    H237823   2.202   0.220   0.621  0.6058  0.6963 -1.6666
 5470TIP3   OH237824   1.818   5.336   4.559  0.3619  0.1235 -0.2989
 5470TIP3    H137825   1.885   5.334   4.628 -0.4720 -1.5380  0.4798
 5470TIP3    H237826   1.851   5.278   4.491 -0.1278 -0.4584 -0.0473
 5471TIP3   OH237827   6.199   0.994  10.912  0.2237 -0.2839 -0.5654
 5471TIP3    H137828   6.207   0.906  10.876  0.5174  0.4012 -2.2166
 5471TIP3    H237829   6.120   1.030  10.872  0.9867  0.7715 -1.1638
 5472TIP3   OH237830   3.542   0.987   5.314 -0.2361  0.0786 -0.1130
 5472TIP3    H137831   3.580   0.973   5.227  0.0256  0.6877 -0.0985
 5472TIP3    H237832   3.464   1.040   5.298 -0.6357 -0.4837 -0.0558
 5473TIP3   OH237833   4.090   3.936  12.974 -0.6697 -0.2052 -0.1584
 5473TIP3    H137834   4.105   3.875  13.046  0.5864 -0.2555 -0.4523
 5473TIP3    H237835   3.996   3.933  12.959 -1.0582  0.4428  2.0279
 5474TIP3   OH237836   3.833   5.780   2.473 -0.5063  0.4009 -0.7396
 5474TIP3    H137837   3.765   5.741   2.527 -1.1276  2.7890  0.2756
 5474TIP3    H237838   3.902   5.713   2.468 -1.5674 -0.8349  0.8063
 5475TIP3   OH237839   3.483   6.303   5.130 -0.5989  0.5479  0.9252
 5475TIP3    H137840   3.394   6.332   5.111 -0.0460  0.9253 -1.1749
 5475TIP3    H237841   3.522   6.376   5.178 -1.1971  0.6457  1.2762
 5476TIP3   OH237842   2.284   2.146   1.908 -0.4429  0.5147  0.1496
 5476TIP3    H137843   2.239   2.207   1.966  1.2707  0.0253  2.0344
 5476TIP3    H237844   2.231   2.066   1.911 -0.4056  0.5181  0.9910
 5477TIP3   OH237845   3.504   3.948  15.059  0.4389 -0.0245 -0.1783
 5477TIP3    H137846   3.423   3.952  15.008 -0.4354 -0.4314  1.1714
 5477TIP3    H237847   3.573   3.940  14.993 -0.6526 -0.2130 -1.3166
 5478TIP3   OH237848   1.746   4.055   0.309  0.4424 -0.3396  0.5110
 5478TIP3    H137849   1.756   4.050   0.404 -2.5778 -1.3412  0.8075
 5478TIP3    H237850   1.790   3.977   0.276  0.7606 -0.4274  1.1308
 5479TIP3   OH237851   6.412   5.306  11.721  0.2755 -0.3586 -0.3762
 5479TIP3    H137852   6.446   5.219  11.742 -0.1339 -0.0880  1.5375
 5479TIP3    H237853   6.348   5.323  11.790  0.4569  1.5071 -0.6586
 5480TIP3   OH237854   5.213   2.526   1.932  0.1724  0.3871 -0.1611
 5480TIP3    H137855   5.222   2.461   1.862  0.7087 -0.2711  0.5145
 5480TIP3    H237856   5.161   2.481   1.999  1.7976  0.1342  0.9452
 5481TIP3   OH237857   5.869   5.999   4.463 -0.2408  0.5751  0.8492
 5481TIP3    H137858   5.876   5.983   4.369  2.4101 -0.8597  1.2501
 5481TIP3    H237859   5.776   5.988   4.482 -0.5664 -0.6956 -1.3366
 5482TIP3   OH237860   1.082   3.881  14.135 -0.2824  0.1742  0.4946
 5482TIP3    H137861   1.111   3.792  14.157  1.1911  0.0120 -1.9374
 5482TIP3    H237862   1.050   3.917  14.217  1.9286 -1.5340  2.1480
 5483TIP3   OH237863   0.822   5.809   3.736 -0.2318  0.9459  0.1043
 5483TIP3    H137864   0.914   5.803   3.761 -0.4273  3.0625  1.4191
 5483TIP3    H237865   0.788   5.720   3.748  1.3482  0.3963  0.6640
 5484TIP3   OH237866   2.697   4.620  11.564 -1.0994 -0.1156 -0.1729
 5484TIP3    H137867   2.736   4.705  11.542 -0.9920 -0.1401 -0.0794
 5484TIP3    H237868   2.614   4.641  11.605  0.4988  0.0805  3.1825
 5485TIP3   OH237869   0.426   0.913   4.228 -0.0592  0.5981  0.1194
 5485TIP3    H137870   0.464   0.998   4.204  0.7352  0.2108 -0.0149
 5485TIP3    H237871   0.372   0.888   4.153  0.4628  0.5415 -0.2391
 5486TIP3   OH237872   2.201   5.537   2.570  0.4842 -0.1255 -0.3935
 5486TIP3    H137873   2.218   5.454   2.613 -0.2071 -0.0491  0.0251
 5486TIP3    H237874   2.268   5.543   2.502 -0.0810 -1.4832 -1.0747
 5487TIP3   OH237875   5.834   2.372   2.258 -0.1177  0.7075  0.0687
 5487TIP3    H137876   5.867   2.296   2.306  1.2703  1.1328 -0.1902
 5487TIP3    H237877   5.773   2.413   2.317 -0.3866 -0.2484  0.4672
 5488TIP3   OH237878   6.752   3.707   5.416  0.3600 -0.3047  0.7641
 5488TIP3    H137879   6.785   3.786   5.458  2.4655 -1.0723  0.6242
 5488TIP3    H237880   6.786   3.635   5.470 -0.3096 -1.1635  0.0656
 5489TIP3   OH237881   0.959   5.051   0.553 -0.3997  0.5516 -0.1762
 5489TIP3    H137882   0.936   4.998   0.477  2.9228 -0.3008 -0.6661
 5489TIP3    H237883   0.960   5.141   0.520 -0.2552  0.3206 -0.8083
 5490TIP3   OH237884   4.478   5.100  16.775 -0.1691 -0.1329  0.1087
 5490TIP3    H137885   4.485   5.014  16.817 -0.4094 -1.1582 -1.9223
 5490TIP3    H237886   4.481   5.162  16.848 -2.8114 -1.9667  1.8547
 5491TIP3   OH237887   5.411   2.759  14.647  0.5552  0.0279  0.8228
 5491TIP3    H137888   5.377   2.749  14.736 -1.9754 -0.6100 -0.1630
 5491TIP3    H237889   5.394   2.674  14.605  1.0176  0.5774 -0.5099
 5492TIP3   OH237890   3.305   6.478   0.338  0.5418  0.1913  0.5062
 5492TIP3    H137891   3.337   6.390   0.320 -0.3821  0.2291 -1.3715
 5492TIP3    H237892   3.237   6.467   0.404  0.7132 -0.4409  0.5763
 5493TIP3   OH237893   0.205   2.839   3.023 -0.0334  0.3345 -0.0925
 5493TIP3    H137894   0.270   2.772   2.999  0.4791  0.5869  0.5687
 5493TIP3    H237895   0.252   2.897   3.082  0.1611  2.4912 -2.3100
 5494TIP3   OH237896   5.360   5.559   3.154 -0.3269 -0.5418 -0.0618
 5494TIP3    H137897   5.429   5.619   3.182 -0.4035  0.6693 -2.3141
 5494TIP3    H237898   5.346   5.580   3.062 -1.1933 -3.2567 -0.5923
 5495TIP3   OH237899   0.178   3.012   3.768 -0.4748  0.3840 -0.3591
 5495TIP3    H137900   0.255   3.069   3.767  2.1562 -3.0176 -2.2469
 5495TIP3    H237901   0.150   3.008   3.677 -1.2051 -0.6030 -0.0943
 5496TIP3   OH237902   4.739   3.170   5.515  0.3760  0.5448  0.2046
 5496TIP3    H137903   4.789   3.088   5.518 -2.9791 -1.5853  1.2026
 5496TIP3    H237904   4.684   3.162   5.436 -0.6800  1.3645  0.8358
 5497TIP3   OH237905   1.565   4.843  14.771  0.1262 -0.2097  0.1718
 5497TIP3    H137906   1.623   4.919  14.768 -0.7447  0.4108 -1.5756
 5497TIP3    H237907   1.562   4.819  14.864  0.3940  1.8901  0.7496
 5498TIP3   OH237908   2.375   5.030  12.806  0.7587 -0.0100  0.2272
 5498TIP3    H137909   2.402   5.121  12.818 -0.1801  0.4719 -1.2175
 5498TIP3    H237910   2.298   5.035  12.749 -0.1047 -1.6195  1.2258
 5499TIP3   OH237911   3.475   1.296   0.027 -0.0332  0.1393 -0.4962
 5499TIP3    H137912   3.533   1.283  -0.048 -1.1785 -0.5600 -1.2821
 5499TIP3    H237913   3.512   1.371   0.073  1.6038 -0.4268 -0.8636
 5500TIP3   OH237914   4.218   4.840   2.350 -0.3070 -0.2103 -0.2602
 5500TIP3    H137915   4.185   4.924   2.318 -2.9686 -2.0120 -2.4834
 5500TIP3    H237916   4.155   4.776   2.317 -0.1488 -2.7863  4.0807
 5501TIP3   OH237917   4.719   1.302   1.706  0.1519 -0.5938  0.5518
 5501TIP3    H137918   4.803   1.324   1.747 -0.1358  0.7237  0.4630
 5501TIP3    H237919   4.735   1.312   1.612 -0.2500  0.2488  0.5631
 5502TIP3   OH237920   2.457   0.263   2.812 -0.2610  0.3301 -0.3268
 5502TIP3    H137921   2.483   0.317   2.887  0.4128  1.8169 -1.6017
 5502TIP3    H237922   2.532   0.269   2.752 -0.7870 -0.8643 -1.1211
 5503TIP3   OH237923   5.810   4.252   2.465 -0.2051 -0.2680 -0.1274
 5503TIP3    H137924   5.732   4.199   2.480  0.0604 -1.2328 -1.9120
 5503TIP3    H237925   5.839   4.279   2.552 -1.0461 -2.0619  0.7244
 5504TIP3   OH237926   4.356   4.845  12.645  0.3472  0.4538 -0.0031
 5504TIP3    H137927   4.431   4.903  12.661 -0.0417  0.4604  1.9546
 5504TIP3    H237928   4.303   4.890  12.580  1.2719  1.1769 -0.2600
 5505TIP3   OH237929   3.115   1.987  13.797 -0.0374  0.1082 -0.4840
 5505TIP3    H137930   3.097   1.894  13.784  1.6928 -0.2196 -0.6608
 5505TIP3    H237931   3.157   1.992  13.883 -1.0522  0.8579 -0.0243
 5506TIP3   OH237932   5.819   4.876  11.877  0.1711 -0.2363  0.3054
 5506TIP3    H137933   5.811   4.801  11.936  0.6484 -0.3349  0.2468
 5506TIP3    H237934   5.815   4.952  11.934  0.2441 -0.3215  0.4250
 5507TIP3   OH237935   0.675   2.580   2.013 -1.4057  0.6953 -0.3191
 5507TIP3    H137936   0.681   2.674   1.998 -1.5106  0.6745 -0.4999
 5507TIP3    H237937   0.703   2.540   1.931  2.7775  0.4835  1.1201
 5508TIP3   OH237938   3.341   0.295  16.760  0.4294  0.1462  0.1369
 5508TIP3    H137939   3.367   0.358  16.693  0.1701  0.7248  0.5788
 5508TIP3    H237940   3.424   0.257  16.790  0.6547  0.9411  0.5182
 5509TIP3   OH237941   1.321   2.847   3.981 -0.2507 -0.2028 -0.0321
 5509TIP3    H137942   1.312   2.817   4.072  0.0158  0.5268  0.2356
 5509TIP3    H237943   1.415   2.860   3.969 -0.3939  0.8863 -0.0266
 5510TIP3   OH237944   3.527   1.738  12.416 -0.1716 -0.2577  0.0369
 5510TIP3    H137945   3.443   1.694  12.431  0.2375 -1.3268 -0.7082
 5510TIP3    H237946   3.525   1.814  12.474 -1.7134 -0.1906 -0.0778
 5511TIP3   OH237947   4.671   4.590   5.237  0.1127  0.1855 -0.0647
 5511TIP3    H137948   4.624   4.571   5.156  0.4732  1.9701 -0.7158
 5511TIP3    H237949   4.757   4.550   5.225 -0.9338 -2.3915  0.8023
 5512TIP3   OH237950   0.080   1.960   4.693 -0.2182  0.1139  0.6189
 5512TIP3    H137951   0.040   2.039   4.656 -0.1261  0.2376  0.7834
 5512TIP3    H237952   0.172   1.983   4.703 -0.3324  0.2561  1.4000
 5513TIP3   OH237953   4.814   1.304  13.567  0.3678 -0.2687 -0.4027
 5513TIP3    H137954   4.753   1.337  13.633  0.7089  1.8020 -1.0985
 5513TIP3    H237955   4.872   1.245  13.616  0.7548  1.3947  1.2117
 5514TIP3   OH237956   0.333   5.677   2.266  0.5202 -0.1230 -0.5978
 5514TIP3    H137957   0.319   5.661   2.173 -2.0943 -1.2891 -0.0316
 5514TIP3    H237958   0.340   5.590   2.305  0.1954  0.3235  0.4904
 5515TIP3   OH237959   3.899   1.265  13.055  0.1420 -0.2336 -0.5083
 5515TIP3    H137960   3.890   1.179  13.013 -1.4542 -0.0986 -0.4746
 5515TIP3    H237961   3.840   1.261  13.131  1.0707  0.4255  0.2609
 5516TIP3   OH237962   0.267   0.030   1.933 -0.5128  0.0056 -0.5944
 5516TIP3    H137963   0.263   0.050   1.839 -0.1266 -1.0838 -0.8538
 5516TIP3    H237964   0.246  -0.063   1.938  1.1767 -0.3476  0.2318
 5517TIP3   OH237965   5.247   1.481  13.728  0.6764  0.6686 -0.8751
 5517TIP3    H137966   5.181   1.518  13.787 -1.1057 -2.5906 -0.7438
 5517TIP3    H237967   5.306   1.432  13.786 -0.6000 -1.8421 -1.6282
 5518TIP3   OH237968   2.151   1.007  12.890  0.6250 -0.0354  0.1565
 5518TIP3    H137969   2.056   1.014  12.891  0.6385  0.1224  0.4711
 5518TIP3    H237970   2.180   1.058  12.967  0.9000 -1.0620  0.7440
 5519TIP3   OH237971   3.780   2.569   5.033  0.2256  0.5858  0.4237
 5519TIP3    H137972   3.806   2.587   5.124  0.5706  2.0303  0.0602
 5519TIP3    H237973   3.685   2.563   5.036  0.1801  1.4084  0.7620
 5520TIP3   OH237974   3.128   3.767  14.162 -0.4189 -0.4129 -0.3094
 5520TIP3    H137975   3.131   3.763  14.257  0.5172  3.7452 -0.0782
 5520TIP3    H237976   3.043   3.805  14.142  0.7459  1.9564 -0.9205
 5521TIP3   OH237977   2.085   0.936   3.466  0.1213  0.3092  0.6450
 5521TIP3    H137978   2.145   0.863   3.453  0.3131  0.7534 -1.0824
 5521TIP3    H237979   2.139   1.014   3.456 -0.4919  0.6992  0.3002
 5522TIP3   OH237980   0.298   1.095  12.546  0.4006 -0.5553  0.0607
 5522TIP3    H137981   0.224   1.069  12.492  0.4198 -0.0259 -0.2245
 5522TIP3    H237982   0.329   1.177  12.507  2.4521 -1.8402 -1.1088
 5523TIP3   OH237983   2.017   3.589   4.261  0.0271 -0.8489  0.2764
 5523TIP3    H137984   1.996   3.612   4.351 -0.6156 -0.6407  0.0753
 5523TIP3    H237985   2.028   3.673   4.216 -0.5237 -0.9371 -0.0371
 5524TIP3   OH237986   3.152   0.684  12.567 -0.3727 -0.5251  0.0900
 5524TIP3    H137987   3.186   0.687  12.478  1.1916  0.5567  0.6975
 5524TIP3    H237988   3.057   0.693  12.558 -0.1542  0.2825 -1.4182
 5525TIP3   OH237989   5.252   1.907   1.066 -0.4758  0.1681  0.6415
 5525TIP3    H137990   5.276   1.855   0.989  0.0297  1.8950 -0.3957
 5525TIP3    H237991   5.173   1.955   1.039 -1.3453 -0.5887  1.8275
 5526TIP3   OH237992   6.321   4.562   0.237  0.1245 -0.1595  0.3515
 5526TIP3    H137993   6.252   4.506   0.202 -0.8132  1.5862 -0.6466
 5526TIP3    H237994   6.376   4.582   0.161  0.0516  0.8594  0.5697
 5527TIP3   OH237995   2.079   3.828  12.432  0.5032 -0.4173  0.3252
 5527TIP3    H137996   2.037   3.898  12.382 -0.3953 -0.8791  0.4235
 5527TIP3    H237997   2.114   3.871  12.510  1.5398  0.2321 -0.4931
 5528TIP3   OH237998   2.280   3.145  10.138 -0.3352 -0.5245 -0.2785
 5528TIP3    H137999   2.241   3.228  10.111 -0.3168 -0.0814  1.0040
 5528TIP3    H238000   2.274   3.089  10.061 -0.9755  0.4459 -0.9433
 5529TIP3   OH238001   6.399   2.744   3.653  0.3909  0.2626  0.0883
 5529TIP3    H138002   6.465   2.709   3.714  2.4006 -0.0439 -2.1649
 5529TIP3    H238003   6.334   2.787   3.709  2.2715  0.1566  2.4263
 5530TIP3   OH238004   0.444   6.440  14.272 -0.2199  0.0658 -0.1918
 5530TIP3    H138005   0.400   6.378  14.329  0.1962 -0.2710 -0.2319
 5530TIP3    H238006   0.501   6.490  14.330  0.1677 -0.2440 -0.2994
 5531TIP3   OH238007   4.408   0.045   4.650 -0.2666 -0.2675 -0.2923
 5531TIP3    H138008   4.470  -0.001   4.706 -1.1033 -0.1304  0.7678
 5531TIP3    H238009   4.462   0.085   4.581  0.5566 -2.1637 -0.7879
 5532TIP3   OH238010   3.253   5.865   0.933  0.3270  0.1132  0.2220
 5532TIP3    H138011   3.251   5.780   0.977 -0.1480  1.1003  2.1295
 5532TIP3    H238012   3.189   5.918   0.980  1.6121  1.9515 -0.0587
 5533TIP3   OH238013   4.547   4.548   2.859  0.1514  0.7529 -0.8174
 5533TIP3    H138014   4.582   4.531   2.772  0.6628  2.0679 -0.8827
 5533TIP3    H238015   4.518   4.640   2.856  1.3339  1.2074  0.7606
 5534TIP3   OH238016   3.271   6.079   0.547  0.3342  0.3123 -0.2781
 5534TIP3    H138017   3.324   6.115   0.619  0.2750 -0.3835  0.1136
 5534TIP3    H238018   3.217   6.011   0.588  0.8584 -0.6224 -1.1281
 5535TIP3   OH238019   3.144   1.501  14.208 -0.0159  0.0462  0.1854
 5535TIP3    H138020   3.070   1.469  14.260 -0.0555 -1.6520 -0.8646
 5535TIP3    H238021   3.107   1.516  14.121  0.0769  2.7302  0.5695
 5536TIP3   OH238022   0.455   5.849  10.199 -0.4985  0.3438 -0.6687
 5536TIP3    H138023   0.371   5.894  10.213 -0.4448  0.5124 -0.8880
 5536TIP3    H238024   0.521   5.912  10.225 -0.3446  1.1372 -2.8799
 5537TIP3   OH238025   6.574   2.946  16.333 -0.6716 -0.4143  0.3522
 5537TIP3    H138026   6.539   2.857  16.324 -0.1589 -0.5989  0.1219
 5537TIP3    H238027   6.610   2.966  16.246 -2.7661  0.8829 -0.2298
 5538TIP3   OH238028   2.635   5.987   1.551  0.4811 -0.3806  0.2112
 5538TIP3    H138029   2.620   6.040   1.629  1.2005 -0.8200  0.6563
 5538TIP3    H238030   2.570   5.917   1.556 -0.9933  0.8965 -0.7902
 5539TIP3   OH238031   0.394   3.790   4.629  0.4673  0.4911  0.1613
 5539TIP3    H138032   0.394   3.766   4.722  2.2833  0.4354  0.1641
 5539TIP3    H238033   0.454   3.865   4.624 -1.3349  1.9307 -0.6257
 5540TIP3   OH238034   5.042   4.411   1.989 -0.4656 -0.4296  0.4039
 5540TIP3    H138035   4.978   4.352   1.949  0.7377 -1.9584  0.6685
 5540TIP3    H238036   5.110   4.352   2.023  0.5932  1.1031  0.9705
 5541TIP3   OH238037   3.952   0.961  15.717  0.4260  0.7461  0.7837
 5541TIP3    H138038   4.010   1.020  15.764  0.5560  0.7028  0.6771
 5541TIP3    H238039   4.010   0.900  15.672  0.3070  0.8680  0.4594
 5542TIP3   OH238040   4.329   2.238   0.638 -0.2849  0.2172  0.2457
 5542TIP3    H138041   4.303   2.217   0.727  0.8566 -2.2758  0.0473
 5542TIP3    H238042   4.290   2.324   0.620 -1.7298  0.0774  2.6047
 5543TIP3   OH238043   2.211   3.601  11.819  0.0448  0.3144 -0.0031
 5543TIP3    H138044   2.222   3.511  11.789 -2.6225 -0.1519  0.2547
 5543TIP3    H238045   2.174   3.592  11.907  2.8841  1.6858  1.4091
 5544TIP3   OH238046   4.030   4.686   3.641  0.1007 -0.4794  0.1291
 5544TIP3    H138047   4.068   4.725   3.720  1.0171  2.6269 -1.7634
 5544TIP3    H238048   4.000   4.760   3.590  2.3623 -2.1815 -3.9078
 5545TIP3   OH238049   6.481   5.465  14.885  0.0744  0.0859 -0.0545
 5545TIP3    H138050   6.388   5.459  14.868 -0.3543  0.7498  1.8716
 5545TIP3    H238051   6.492   5.550  14.929  1.2944 -0.8248  1.4487
 5546TIP3   OH238052   1.135   4.565   1.634  0.3596 -0.4451  0.1944
 5546TIP3    H138053   1.126   4.477   1.671 -0.7196 -0.4684 -0.0903
 5546TIP3    H238054   1.063   4.572   1.572 -0.5578  1.2174  1.3924
 5547TIP3   OH238055   2.010   5.133  14.125 -1.2620 -0.5292  0.3390
 5547TIP3    H138056   2.030   5.143  14.032 -0.8377 -2.7857  0.1562
 5547TIP3    H238057   2.067   5.062  14.154 -1.8761 -0.2963  2.1675
 5548TIP3   OH238058   6.635   1.478   0.015  0.0782  0.3978 -0.2993
 5548TIP3    H138059   6.714   1.532   0.016  0.1028  0.3568 -0.1210
 5548TIP3    H238060   6.667   1.389   0.005  0.0771  0.3295  0.3448
 5549TIP3   OH238061   2.247   0.105   4.142  0.3452 -0.2558  0.7670
 5549TIP3    H138062   2.250   0.137   4.052 -0.7712 -0.1723  0.7539
 5549TIP3    H238063   2.170   0.048   4.145 -0.9662  1.5062  2.2140
 5550TIP3   OH238064   2.148   5.357  16.572 -0.5207  0.4050  0.1294
 5550TIP3    H138065   2.147   5.428  16.508 -3.2093 -0.5911 -1.0371
 5550TIP3    H238066   2.108   5.395  16.650 -0.7408  0.5574 -0.0550
 5551TIP3   OH238067   1.106   4.590   1.037 -0.3234  0.7010 -0.5407
 5551TIP3    H138068   1.044   4.620   0.970 -0.1330 -0.7700 -1.3987
 5551TIP3    H238069   1.188   4.633   1.014  0.3083 -1.5326 -2.6140
 5552TIP3   OH238070   3.501   3.514   3.413  0.0780 -0.2457 -0.3723
 5552TIP3    H138071   3.533   3.498   3.325 -0.1932 -0.0601 -0.5059
 5552TIP3    H238072   3.575   3.492   3.470  1.0160  1.7874 -0.7576
 5553TIP3   OH238073   2.544   3.448   1.274  0.1995 -0.2088 -0.4466
 5553TIP3    H138074   2.466   3.397   1.296 -0.5674  0.6963 -1.0297
 5553TIP3    H238075   2.575   3.410   1.192  0.4187 -0.6172 -0.1768
 5554TIP3   OH238076   0.503   5.512   4.480  0.4828 -0.3990  0.0454
 5554TIP3    H138077   0.566   5.441   4.495 -0.8794 -1.2317  2.1224
 5554TIP3    H238078   0.423   5.483   4.526 -0.8261  1.4476 -0.9967
 5555TIP3   OH238079   5.526   0.406  12.945 -0.1602  0.0994  0.0999
 5555TIP3    H138080   5.620   0.391  12.944 -0.2555 -0.6735  1.4973
 5555TIP3    H238081   5.499   0.383  13.034 -1.5619  0.9747 -0.0853
 5556TIP3   OH238082   2.346   3.180  14.116  0.1712  0.1776  0.6123
 5556TIP3    H138083   2.340   3.199  14.210 -0.7122  0.9445  0.4087
 5556TIP3    H238084   2.275   3.232  14.076  0.7507  0.1201 -0.5139
 5557TIP3   OH238085   6.684   0.883  15.122  0.2834 -0.0394 -0.7164
 5557TIP3    H138086   6.747   0.853  15.057  0.5399  0.9574 -0.9225
 5557TIP3    H238087   6.622   0.810  15.130  2.0264 -1.4813  0.2705
 5558TIP3   OH238088   0.555   3.329  14.829 -0.1674 -0.1216  0.2558
 5558TIP3    H138089   0.483   3.310  14.770 -0.9921 -1.0220  1.5232
 5558TIP3    H238090   0.551   3.424  14.843 -1.4150 -0.2319  0.6981
 5559TIP3   OH238091   6.540   0.404   4.387  0.1699 -0.4134 -0.1578
 5559TIP3    H138092   6.555   0.449   4.304  1.2740  2.1164  1.3408
 5559TIP3    H238093   6.455   0.363   4.377 -0.2488  0.8658 -2.1266
 5560TIP3   OH238094   2.854   1.716  15.889 -0.2209 -0.3383 -0.3474
 5560TIP3    H138095   2.839   1.650  15.957 -0.5692 -1.7656 -1.8002
 5560TIP3    H238096   2.784   1.781  15.904  0.0059 -0.3798  0.9600
 5561TIP3   OH238097   6.685   5.328   5.109 -0.1581 -0.0416  0.2356
 5561TIP3    H138098   6.764   5.363   5.149 -0.2666  2.2695 -1.4494
 5561TIP3    H238099   6.627   5.308   5.183  0.9707  0.8136  1.3584
 5562TIP3   OH238100   4.410   5.560  13.341 -0.0625 -0.0059  0.0667
 5562TIP3    H138101   4.496   5.582  13.304 -0.7112  1.9720 -0.2901
 5562TIP3    H238102   4.347   5.587  13.274 -1.0820  0.7081  1.3001
 5563TIP3   OH238103   3.722   0.831   3.333  0.0344 -0.2445  0.1281
 5563TIP3    H138104   3.638   0.792   3.311  0.4418 -0.1753 -1.6060
 5563TIP3    H238105   3.778   0.757   3.356 -0.7853 -0.2109  2.3903
 5564TIP3   OH238106   6.112   1.581  13.617  0.0869 -0.1774  0.3446
 5564TIP3    H138107   6.088   1.489  13.628 -0.8335  0.0177  0.0366
 5564TIP3    H238108   6.039   1.629  13.657  1.4014  0.4111  2.1335
 5565TIP3   OH238109   0.078   2.827  16.290  0.3617  0.1238 -0.4839
 5565TIP3    H138110   0.019   2.779  16.233 -0.3673  0.9787 -0.4432
 5565TIP3    H238111   0.057   2.796  16.378  1.5188 -1.2300 -0.6561
 5566TIP3   OH238112   2.090   1.998  17.127  0.8819 -0.5598 -0.3997
 5566TIP3    H138113   2.054   1.913  17.152  0.5959  0.3406  2.4378
 5566TIP3    H238114   2.158   2.016  17.192  1.6610  0.9094 -1.5789
 5567TIP3   OH238115   4.741   1.762  16.383 -0.1675  0.6343 -0.0714
 5567TIP3    H138116   4.670   1.711  16.344  1.9506 -0.8779 -2.0411
 5567TIP3    H238117   4.788   1.799  16.309  1.0991  1.6530  1.2152
 5568TIP3   OH238118   4.850   3.151  16.916  0.0138  0.0315  0.3462
 5568TIP3    H138119   4.884   3.186  16.998 -0.2037 -0.6703  0.7397
 5568TIP3    H238120   4.851   3.225  16.856  0.7284  0.4060  0.8133
 5569TIP3   OH238121   6.100   1.780  17.041 -0.3988  0.0671 -0.2410
 5569TIP3    H138122   6.122   1.873  17.044 -1.3772  0.3385 -1.2646
 5569TIP3    H238123   6.180   1.738  17.009  0.8091  0.2799  2.3975
 5570TIP3   OH238124   4.971   1.380   1.354  0.1341 -0.2364  0.0783
 5570TIP3    H138125   5.001   1.460   1.396  0.2336  0.5996 -1.5596
 5570TIP3    H238126   4.971   1.400   1.261 -1.3313 -1.6340 -0.2495
 5571TIP3   OH238127   6.539   4.763   4.896 -0.3867  0.3885 -0.1744
 5571TIP3    H138128   6.511   4.698   4.832  2.3798  0.8177 -1.8950
 5571TIP3    H238129   6.563   4.711   4.973 -0.1158 -0.4731 -0.8262
 5572TIP3   OH238130   5.916   5.998  16.017  0.7998 -0.0979 -0.0189
 5572TIP3    H138131   5.827   5.967  16.000  0.5341  0.0081  1.1337
 5572TIP3    H238132   5.957   6.005  15.931 -0.2188 -0.4301 -0.5223
 5573TIP3   OH238133   4.705   2.414   3.177 -0.2475 -0.8783  0.3606
 5573TIP3    H138134   4.672   2.503   3.180  0.0462 -0.7600  0.1180
 5573TIP3    H238135   4.632   2.362   3.142 -0.4434 -0.7471  0.5758
 5574TIP3   OH238136   4.894   5.706  14.110 -0.1577 -0.0668  0.2199
 5574TIP3    H138137   4.951   5.687  14.035  0.9584 -1.7849  1.4791
 5574TIP3    H238138   4.918   5.795  14.136  1.1134 -0.3321 -0.0119
 5575TIP3   OH238139   4.111   4.588  14.220 -0.1210 -0.3421  0.7768
 5575TIP3    H138140   4.189   4.571  14.168  1.1253  0.3982  2.3624
 5575TIP3    H238141   4.051   4.517  14.197  0.7385 -0.5422 -0.9565
 5576TIP3   OH238142   3.286   6.134  15.166 -0.3309  0.0999 -0.0872
 5576TIP3    H138143   3.270   6.205  15.227  0.1134 -0.5191  0.7635
 5576TIP3    H238144   3.311   6.060  15.221 -0.5117 -0.6346 -0.9758
 5577TIP3   OH238145   4.349   4.170  15.102  0.3930 -0.1558 -0.5496
 5577TIP3    H138146   4.312   4.163  15.014 -0.0990  0.3581 -0.3873
 5577TIP3    H238147   4.423   4.230  15.092  0.0819  0.2344 -0.5393
 5578TIP3   OH238148   4.063   2.028  16.881 -0.0053  0.0343 -0.3144
 5578TIP3    H138149   4.066   2.100  16.818 -0.3507  1.6613  1.4803
 5578TIP3    H238150   3.973   1.995  16.876 -0.2767  0.7310 -0.0576
 5579TIP3   OH238151   2.063   6.242   1.804 -0.6721 -0.7561 -0.1113
 5579TIP3    H138152   2.005   6.209   1.873  0.5517  0.5539  1.5975
 5579TIP3    H238153   2.004   6.272   1.735 -2.3084  3.4661  2.8708
 5580TIP3   OH238154   4.820   2.163   0.928  0.1679  0.0367  0.8229
 5580TIP3    H138155   4.737   2.118   0.917  0.5904 -0.9000  1.4005
 5580TIP3    H238156   4.878   2.122   0.863 -0.5834  2.6590 -1.6105
 5581TIP3   OH238157   2.841   3.523  12.231  0.2291 -0.1621 -0.7045
 5581TIP3    H138158   2.881   3.561  12.153  0.0781  0.1380 -0.6368
 5581TIP3    H238159   2.909   3.529  12.298 -0.5483  2.0503 -0.0892
 5582TIP3   OH238160   4.957   3.188   2.474 -0.2573  0.1129  0.1751
 5582TIP3    H138161   4.947   3.109   2.422  0.9529 -0.7285  1.1948
 5582TIP3    H238162   4.898   3.252   2.432 -1.5992 -1.4412 -0.3634
 5583TIP3   OH238163   5.960   5.416  14.452 -0.0554 -0.6024 -0.4249
 5583TIP3    H138164   6.000   5.464  14.379 -0.6150  0.1894 -0.2112
 5583TIP3    H238165   5.935   5.483  14.515 -1.1899 -1.1373 -0.2868
 5584TIP3   OH238166   1.987   3.073  11.534  0.3274  0.5072  0.5888
 5584TIP3    H138167   1.937   3.021  11.470 -1.7291 -0.0779  2.5821
 5584TIP3    H238168   2.011   3.152  11.486 -0.9707  0.0032 -0.9813
 5585TIP3   OH238169   4.679   2.590  11.738 -0.5239 -0.3806  0.0956
 5585TIP3    H138170   4.767   2.607  11.772 -1.2373  1.2351  1.2437
 5585TIP3    H238171   4.636   2.676  11.741 -2.4560 -1.3404  0.5117
 5586TIP3   OH238172   0.830   1.949   4.263  0.6388  0.2528 -0.2635
 5586TIP3    H138173   0.811   1.977   4.352 -2.3117 -2.4989  0.0542
 5586TIP3    H238174   0.748   1.962   4.215  1.8880  0.7638 -2.3450
 5587TIP3   OH238175   3.238   5.061   6.074 -0.0332 -0.5898 -0.1811
 5587TIP3    H138176   3.142   5.063   6.077 -0.0825  0.3089 -1.8188
 5587TIP3    H238177   3.264   5.036   6.163 -1.7986 -1.5941  0.0852
 5588TIP3   OH238178   0.175   4.511   3.062 -0.4239  0.5416 -0.0200
 5588TIP3    H138179   0.171   4.528   2.968  0.0719  0.1573 -0.1146
 5588TIP3    H238180   0.090   4.541   3.095 -0.4189  1.1227 -0.5120
 5589TIP3   OH238181   3.100   4.698  16.728 -0.1011 -0.4482 -0.5848
 5589TIP3    H138182   3.061   4.614  16.703  0.0486 -0.3438 -1.1906
 5589TIP3    H238183   3.161   4.677  16.798 -0.1565 -0.8283 -0.6476
 5590TIP3   OH238184   2.003   4.041  14.203  0.1687  0.3173  0.0847
 5590TIP3    H138185   2.060   4.000  14.138 -0.2317  1.2883 -0.9117
 5590TIP3    H238186   2.051   4.118  14.232 -1.6232  2.5323 -2.6036
 5591TIP3   OH238187   4.825   3.638   3.903  0.5657 -0.5427  0.3420
 5591TIP3    H138188   4.766   3.705   3.938  1.6738 -0.4597  2.0773
 5591TIP3    H238189   4.780   3.605   3.825 -1.0222  0.6455  0.7369
 5592TIP3   OH238190   0.655   4.389  14.551  0.3265  0.3436  0.4401
 5592TIP3    H138191   0.686   4.480  14.546 -1.4820  1.0220  1.2398
 5592TIP3    H238192   0.580   4.386  14.492  0.5684 -0.7343  0.1764
 5593TIP3   OH238193   4.774   6.242  16.846 -0.0738 -0.5484  0.1268
 5593TIP3    H138194   4.852   6.189  16.862  0.5194  1.1059  2.9920
 5593TIP3    H238195   4.762   6.292  16.927 -2.8637  0.8147 -1.0706
 5594TIP3   OH238196   3.453   6.080   6.011  0.2314 -0.0896  0.1768
 5594TIP3    H138197   3.418   6.163   6.041  0.7726 -0.0618  0.7368
 5594TIP3    H238198   3.516   6.054   6.078  2.1184  0.4147 -1.3240
 5595TIP3   OH238199   1.971   1.588  14.205 -0.2208 -0.5506  0.1386
 5595TIP3    H138200   1.934   1.664  14.249  0.5783  0.0348 -0.2022
 5595TIP3    H238201   2.047   1.621  14.158  0.8190 -1.7649  0.9297
 5596TIP3   OH238202   1.568   0.595  11.096 -0.1953 -0.6186 -0.2064
 5596TIP3    H138203   1.523   0.663  11.046  0.9467 -0.1586 -0.6229
 5596TIP3    H238204   1.660   0.604  11.071  0.4926  0.0204  2.4057
 5597TIP3   OH238205   5.521   3.495   3.333 -0.0838  0.0833 -0.2111
 5597TIP3    H138206   5.539   3.544   3.253  3.4480 -1.9876 -0.7953
 5597TIP3    H238207   5.485   3.412   3.304  0.5873 -0.4153  0.3693
 5598TIP3   OH238208   4.623   3.178   1.841  0.1757  0.6133  0.8845
 5598TIP3    H138209   4.636   3.174   1.746 -1.3674  0.4598  0.6624
 5598TIP3    H238210   4.711   3.189   1.877  0.6221  2.5954 -0.6774
 5599TIP3   OH238211   0.686   2.869  14.644 -0.1400 -0.0112  0.0428
 5599TIP3    H138212   0.715   2.935  14.581  0.5034 -1.1876 -0.9259
 5599TIP3    H238213   0.640   2.919  14.712  3.1411  1.8303  1.0593
 5600TIP3   OH238214   6.380   0.320   0.934 -0.1212 -0.4717  0.0581
 5600TIP3    H138215   6.439   0.354   0.866 -0.1919  0.5940  0.5125
 5600TIP3    H238216   6.399   0.226   0.938 -0.2065 -0.5749 -1.5177
 5601TIP3   OH238217   4.035   0.161  11.142  0.5160  0.0892 -0.6721
 5601TIP3    H138218   4.022   0.217  11.066 -1.7722 -1.4379 -1.4316
 5601TIP3    H238219   4.013   0.073  11.112  3.3967 -1.1672  0.6791
 5602TIP3   OH238220   0.525   1.679  13.017 -0.0689  0.7026  0.1043
 5602TIP3    H138221   0.515   1.584  13.009 -0.6522  0.6921  0.8637
 5602TIP3    H238222   0.435   1.713  13.012  0.1440  1.2202 -0.2401
 5603TIP3   OH238223   1.830   3.102  13.182 -0.4502  0.2494  0.3242
 5603TIP3    H138224   1.796   3.113  13.093 -2.6347 -0.5592  1.0250
 5603TIP3    H238225   1.837   3.191  13.217 -1.7656  0.4444  0.1089
 5604TIP3   OH238226   0.712   1.208  13.310  0.1846  0.2031  0.1533
 5604TIP3    H138227   0.763   1.275  13.356 -0.3855  0.9405 -0.2879
 5604TIP3    H238228   0.644   1.257  13.264 -0.9479 -0.7867  0.7662
 5605TIP3   OH238229   0.569   2.841   2.009 -0.1889 -0.3969 -0.1362
 5605TIP3    H138230   0.587   2.833   2.102 -2.0436 -0.4589  0.2353
 5605TIP3    H238231   0.486   2.793   1.996  0.7023 -1.5103 -2.0327
 5606TIP3   OH238232   2.302   1.331  15.644  0.4417 -0.4008 -0.5890
 5606TIP3    H138233   2.239   1.333  15.572  2.2046  3.2606 -2.1716
 5606TIP3    H238234   2.379   1.287  15.607  0.9994  0.6280 -0.6747
 5607TIP3   OH238235   1.824   6.368  11.931  0.5576  0.0556  0.2309
 5607TIP3    H138236   1.869   6.399  11.853 -1.5586  1.4958 -0.4556
 5607TIP3    H238237   1.752   6.429  11.944  0.4892 -0.5112  2.9679
 5608TIP3   OH238238   6.734   3.270   5.503 -0.5054  0.1112 -0.2286
 5608TIP3    H138239   6.752   3.346   5.557 -1.7605  0.2288  0.0481
 5608TIP3    H238240   6.671   3.301   5.438 -0.8422 -0.6109 -0.2597
 5609TIP3   OH238241   4.150   1.646   5.801 -0.6742 -0.4034 -0.3145
 5609TIP3    H138242   4.150   1.725   5.856 -2.0955 -0.5158 -0.1407
 5609TIP3    H238243   4.085   1.665   5.733  0.5022 -0.5848 -1.4924
 5610TIP3   OH238244   0.989   4.330   0.970  0.1936 -0.1613 -0.2375
 5610TIP3    H138245   1.070   4.382   0.963  0.0730 -0.2990 -3.7154
 5610TIP3    H238246   1.019   4.239   0.964 -0.0518 -0.2812  0.4010
 5611TIP3   OH238247   6.509   4.852  12.735 -0.3233  0.4327  0.0744
 5611TIP3    H138248   6.428   4.889  12.700 -0.9192  0.7368  1.7303
 5611TIP3    H238249   6.480   4.776  12.786  0.4155  0.7151  0.9151
 5612TIP3   OH238250   6.138   2.068   6.070 -0.2930  0.0168 -0.1697
 5612TIP3    H138251   6.160   2.160   6.085 -0.3027  0.0984 -0.6373
 5612TIP3    H238252   6.215   2.019   6.100  0.0643  0.2306 -0.7290
 5613TIP3   OH238253   1.308   0.306  15.999 -0.8785  0.4034  0.2212
 5613TIP3    H138254   1.351   0.383  15.962  0.9516 -1.5798 -1.9248
 5613TIP3    H238255   1.347   0.298  16.087  2.6188 -0.7985 -1.3273
 5614TIP3   OH238256   6.578   6.472   3.945  0.1268  0.3468  0.4440
 5614TIP3    H138257   6.566   6.462   4.039 -0.4744  1.1646  0.4583
 5614TIP3    H238258   6.660   6.425   3.926 -0.6184 -1.2583  1.0876
 5615TIP3   OH238259   1.104   1.454  14.122  0.1411 -0.0815  0.5304
 5615TIP3    H138260   1.137   1.368  14.095 -0.9706 -1.0053  2.0130
 5615TIP3    H238261   1.096   1.447  14.218  2.6698  2.6089  1.0245
 5616TIP3   OH238262   2.874   5.531   5.276 -0.4331  0.3608  0.0630
 5616TIP3    H138263   2.820   5.609   5.287 -1.7637 -0.2024 -2.0648
 5616TIP3    H238264   2.822   5.474   5.220  0.4850 -2.1017  1.6137
 5617TIP3   OH238265   2.706   1.760  14.116  0.5228 -0.4086  0.5896
 5617TIP3    H138266   2.706   1.856  14.111  1.5562 -0.3765  1.0512
 5617TIP3    H238267   2.775   1.733  14.056  0.9963 -0.8133  1.3037
 5618TIP3   OH238268   5.671   2.669   4.262  0.3985  0.2252  0.2174
 5618TIP3    H138269   5.622   2.726   4.203  0.9623 -0.6725 -1.1560
 5618TIP3    H238270   5.716   2.728   4.322 -0.0783  1.1535 -0.3392
 5619TIP3   OH238271   4.240   0.342  13.960  0.1652  0.5591  0.4733
 5619TIP3    H138272   4.180   0.269  13.972  0.4707 -0.1363 -1.9745
 5619TIP3    H238273   4.221   0.401  14.033 -3.8489  0.5895 -0.4795
 5620TIP3   OH238274   6.063   0.095   2.401 -0.3039 -0.0242 -0.5646
 5620TIP3    H138275   6.138   0.148   2.425  0.2208 -0.7420 -0.5944
 5620TIP3    H238276   6.078   0.071   2.309 -0.2667 -0.6453 -0.4045
 5621TIP3   OH238277   5.084   6.773  16.464 -0.2156  0.0242 -0.2099
 5621TIP3    H138278   5.130   6.814  16.391 -0.8113  0.7781 -0.1622
 5621TIP3    H238279   5.037   6.700  16.424 -0.5913  0.4739 -0.5935
 5622TIP3   OH238280   4.940   6.209  12.849 -0.0290 -0.2503 -0.5670
 5622TIP3    H138281   4.937   6.269  12.775  1.1471  0.2880 -0.1859
 5622TIP3    H238282   4.912   6.261  12.924 -0.9548 -0.7226 -0.5751
 5623TIP3   OH238283   5.539   5.034   3.018  0.7405  0.0695  0.4695
 5623TIP3    H138284   5.457   5.082   3.007  1.6460  1.8195  1.1445
 5623TIP3    H238285   5.512   4.948   3.048 -0.8809  0.4792  0.2609
 5624TIP3   OH238286   0.434   2.858  12.257  0.4821 -0.8664  0.4249
 5624TIP3    H138287   0.459   2.935  12.307 -0.0505  2.4819 -4.0905
 5624TIP3    H238288   0.340   2.849  12.272  0.4535 -0.3019  0.5721
 5625TIP3   OH238289   2.792   1.059   1.193 -0.1111  0.1136 -0.2933
 5625TIP3    H138290   2.803   1.048   1.287 -1.0393 -0.7102 -0.2803
 5625TIP3    H238291   2.699   1.076   1.181 -0.1486 -0.6684 -1.1539
 5626TIP3   OH238292   3.381   1.750   6.447  0.1157 -0.2375  0.1116
 5626TIP3    H138293   3.351   1.822   6.390 -1.4266 -0.2639  0.8677
 5626TIP3    H238294   3.450   1.789   6.500 -0.2107  0.5048  0.0044
 5627TIP3   OH238295   1.836   3.378  13.249  0.5889  0.6198  0.3756
 5627TIP3    H138296   1.817   3.459  13.294 -1.4673  0.6080 -0.4140
 5627TIP3    H238297   1.848   3.404  13.157  3.7253  0.5184  0.7176
 5628TIP3   OH238298   1.181   4.954  13.837 -0.3667 -0.2587 -0.1206
 5628TIP3    H138299   1.119   4.988  13.772 -0.9247 -1.3983 -0.2061
 5628TIP3    H238300   1.199   5.028  13.894  0.0778  0.7554 -1.5350
 5629TIP3   OH238301   3.544   2.449   0.669  0.2228 -0.1445  0.0693
 5629TIP3    H138302   3.473   2.387   0.651 -0.0727  0.4924 -0.9418
 5629TIP3    H238303   3.623   2.404   0.638 -0.0437  0.1537 -1.0592
 5630TIP3   OH238304   6.510   2.221   4.509 -0.1117 -0.1113  0.2365
 5630TIP3    H138305   6.561   2.277   4.450  1.9208  0.4465  2.4106
 5630TIP3    H238306   6.419   2.238   4.487  0.5282  2.5143 -0.5455
 5631TIP3   OH238307   1.605   3.659  15.514 -0.1743 -0.1437  0.0121
 5631TIP3    H138308   1.621   3.582  15.459 -1.3372 -0.2341 -0.2212
 5631TIP3    H238309   1.615   3.733  15.454  1.1030 -0.0979  0.2722
 5632TIP3   OH238310   2.305   3.909   4.931  0.3475  0.3096 -0.0362
 5632TIP3    H138311   2.301   3.976   4.999 -1.6246 -0.8495  1.0161
 5632TIP3    H238312   2.258   3.947   4.856 -0.5287  0.2235  0.4658
 5633TIP3   OH238313   5.240   6.774  11.554 -0.3305 -0.4972 -0.1940
 5633TIP3    H138314   5.301   6.832  11.600  0.0947 -0.6005 -0.6167
 5633TIP3    H238315   5.192   6.832  11.495 -2.7904  0.0895  2.2726
 5634TIP3   OH238316   4.845   0.672  12.800 -0.6834  0.7970 -0.1726
 5634TIP3    H138317   4.773   0.633  12.850  0.0974 -0.9107 -0.3476
 5634TIP3    H238318   4.923   0.624  12.828 -0.1205  0.3091 -2.4824
 5635TIP3   OH238319   4.219   2.619  13.500 -0.2016 -0.1040 -0.1161
 5635TIP3    H138320   4.155   2.672  13.548 -0.1051 -0.4190  0.3645
 5635TIP3    H238321   4.167   2.551  13.458 -0.2740  0.1079 -0.3721
 5636TIP3   OH238322   0.571   1.999  13.254  0.2069  0.0848  0.0626
 5636TIP3    H138323   0.665   2.001  13.275  0.0445  0.7906  0.7294
 5636TIP3    H238324   0.568   1.965  13.165  1.2313  1.7217 -0.6378
 5637TIP3   OH238325   4.665   2.782   0.663 -0.3252  0.3431 -0.1425
 5637TIP3    H138326   4.604   2.851   0.636 -2.1596 -0.8263  0.8947
 5637TIP3    H238327   4.709   2.817   0.740 -1.3641  0.3182  0.4727
 5638TIP3   OH238328   6.597   0.793   0.913  0.3109  0.3189 -0.0428
 5638TIP3    H138329   6.668   0.765   0.855  2.4562  1.8038  1.7689
 5638TIP3    H238330   6.630   0.773   1.001 -1.3781  1.3746  0.8359
 5639TIP3   OH238331   2.639   3.863   3.152 -0.3579 -0.5314  0.3162
 5639TIP3    H138332   2.683   3.920   3.089 -3.3433  2.1853  0.5357
 5639TIP3    H238333   2.631   3.779   3.107  2.3072 -0.2178 -0.8273
 5640TIP3   OH238334   0.238   0.746  15.136  0.3549  0.1250 -0.5458
 5640TIP3    H138335   0.276   0.753  15.048  1.2247 -0.8610 -0.2699
 5640TIP3    H238336   0.243   0.834  15.172  2.7805 -0.0357 -0.3826
 5641TIP3   OH238337   0.201   6.473  16.730  0.6456 -0.5812  0.2789
 5641TIP3    H138338   0.241   6.560  16.726 -0.4059  0.0615  2.6121
 5641TIP3    H238339   0.271   6.415  16.759  0.9502 -0.2273  0.2548
 5642TIP3   OH238340   5.024   6.528   5.242 -0.7064 -0.2123 -0.1726
 5642TIP3    H138341   4.944   6.534   5.294 -0.3756  2.1713  0.1448
 5642TIP3    H238342   5.087   6.484   5.300 -0.9263  0.6281  0.7157
 5643TIP3   OH238343   4.062   2.208   2.174 -0.1544 -0.0710  0.2208
 5643TIP3    H138344   3.993   2.159   2.129 -0.2055 -0.9211  1.2087
 5643TIP3    H238345   4.144   2.175   2.136 -0.1476 -1.5671  1.4882
 5644TIP3   OH238346   6.632   3.734  13.966  1.0258 -0.2296  0.2777
 5644TIP3    H138347   6.700   3.790  13.929  1.4846  0.6488  2.3753
 5644TIP3    H238348   6.558   3.793  13.982  1.1177 -0.4011  1.4412
 5645TIP3   OH238349   4.429   3.155   1.329 -0.0254 -0.0328  0.0143
 5645TIP3    H138350   4.346   3.177   1.371 -0.6003 -1.1829 -0.4923
 5645TIP3    H238351   4.440   3.061   1.347  2.1103  0.5042  1.7033
 5646TIP3   OH238352   5.492   5.083  11.542 -0.4175 -0.2802  0.2274
 5646TIP3    H138353   5.547   5.159  11.562  0.1390 -0.3650 -0.9090
 5646TIP3    H238354   5.403   5.117  11.543 -0.1412  0.5141 -0.7625
 5647TIP3   OH238355   1.269   4.126   6.001  0.0660 -0.0911  0.3481
 5647TIP3    H138356   1.263   4.042   5.955 -0.1654 -0.7338  1.5156
 5647TIP3    H238357   1.322   4.181   5.943  2.0763 -1.7392  0.5166
 5648TIP3   OH238358   2.298   6.317  14.175 -0.2940  0.1394 -0.1359
 5648TIP3    H138359   2.334   6.244  14.225  1.2661 -0.1448 -1.6143
 5648TIP3    H238360   2.241   6.363  14.236 -2.9863 -3.5163  0.2127
 5649TIP3   OH238361   6.663   1.202  13.706  0.0109  0.0217 -0.3673
 5649TIP3    H138362   6.748   1.243  13.727  0.5439 -0.1123 -2.1762
 5649TIP3    H238363   6.646   1.144  13.780  1.2602  0.4311  0.2668
 5650TIP3   OH238364   3.400   2.203   1.002 -0.1250 -0.3830 -0.4308
 5650TIP3    H138365   3.395   2.299   1.006  1.2873 -0.3065 -0.4292
 5650TIP3    H238366   3.493   2.184   1.000 -0.4104 -1.6898 -2.9009
 5651TIP3   OH238367   2.549   1.220  15.520  0.3041 -0.1373  0.1476
 5651TIP3    H138368   2.539   1.124  15.515  1.6429 -0.3906  1.9165
 5651TIP3    H238369   2.524   1.251  15.433  3.0259 -2.3861 -1.4932
 5652TIP3   OH238370   4.803   6.220  13.503  0.3438  0.2518 -0.2002
 5652TIP3    H138371   4.770   6.278  13.434  0.1495  2.5973  1.7997
 5652TIP3    H238372   4.729   6.210  13.563  0.9132 -0.7056  0.3453
 5653TIP3   OH238373   2.926   0.169  14.390  0.0278  0.0654  0.0341
 5653TIP3    H138374   2.869   0.173  14.313 -0.2952  2.3655  0.3629
 5653TIP3    H238375   3.014   0.183  14.355 -0.1528  1.4550  0.0821
 5654TIP3   OH238376   4.136   5.459   1.519  0.4561 -0.3494 -0.8201
 5654TIP3    H138377   4.221   5.502   1.505 -1.2484  2.8337 -1.7896
 5654TIP3    H238378   4.107   5.434   1.432  0.4634 -1.6203 -0.4657
 5655TIP3   OH238379   1.667   4.916  13.133 -0.1549 -0.3201 -0.2858
 5655TIP3    H138380   1.648   4.854  13.062  0.4911 -0.5994 -0.2121
 5655TIP3    H238381   1.595   4.979  13.128 -0.0338 -0.2530 -1.2746
 5656TIP3   OH238382   3.680   5.020  11.137 -0.3919  0.4391 -0.0731
 5656TIP3    H138383   3.590   4.987  11.141 -0.3849  0.3513 -0.6009
 5656TIP3    H238384   3.691   5.050  11.047  0.9563 -1.9854 -0.7476
 5657TIP3   OH238385   1.721   3.447   5.619 -0.1707  0.1813 -0.2175
 5657TIP3    H138386   1.701   3.462   5.526  1.9516  0.3545 -0.6784
 5657TIP3    H238387   1.721   3.534   5.658 -1.4320  0.0735  0.0246
 5658TIP3   OH238388   5.961   6.317  12.387 -0.1733  0.1757  0.0478
 5658TIP3    H138389   5.914   6.359  12.458 -0.3606 -0.3226  0.2226
 5658TIP3    H238390   6.030   6.266  12.430 -1.2467 -1.3578 -0.0170
 5659TIP3   OH238391   2.812   6.241  16.203  0.0166 -0.3074 -0.4501
 5659TIP3    H138392   2.858   6.172  16.250 -2.3936 -1.1154  0.8082
 5659TIP3    H238393   2.847   6.236  16.113  2.5854 -0.6316  0.5269
 5660TIP3   OH238394   2.198   6.233   4.738  0.0975 -0.1506 -0.1403
 5660TIP3    H138395   2.238   6.244   4.825 -3.0329 -0.0495  1.3796
 5660TIP3    H238396   2.202   6.320   4.699  0.6826  0.0211  0.2856
 5661TIP3   OH238397   6.256   4.908  12.708  0.2555 -1.0092 -0.2275
 5661TIP3    H138398   6.192   4.865  12.650  0.1879  1.4035 -2.0468
 5661TIP3    H238399   6.206   4.931  12.786 -0.7207 -0.7141 -0.9158
 5662TIP3   OH238400   1.057   1.134   5.875  0.4499  0.2091 -0.2669
 5662TIP3    H138401   1.034   1.042   5.891  0.7270 -0.5670 -3.7912
 5662TIP3    H238402   0.976   1.174   5.845  0.3127  1.1647  1.3369
 5663TIP3   OH238403   1.927   5.605   2.290  0.1851  0.0298 -0.0101
 5663TIP3    H138404   2.016   5.568   2.291 -0.2343 -1.0424 -1.7071
 5663TIP3    H238405   1.896   5.593   2.380  0.2951 -3.2332 -0.3411
 5664TIP3   OH238406   6.455   6.271   4.655  0.2319 -0.3489 -0.2460
 5664TIP3    H138407   6.360   6.275   4.665  0.1850  4.3837 -1.4150
 5664TIP3    H238408   6.468   6.221   4.574 -1.2216 -1.1139 -0.0251
 5665TIP3   OH238409   3.708   4.073  11.912 -0.0360  0.3561 -0.8356
 5665TIP3    H138410   3.771   4.145  11.903  0.4080  0.3159  1.5739
 5665TIP3    H238411   3.641   4.107  11.971 -0.2599 -0.9135 -0.3427
 5666TIP3   OH238412   3.550   6.358   5.479  0.5217 -0.6490  0.0800
 5666TIP3    H138413   3.552   6.443   5.525 -2.2456 -0.7808  0.5238
 5666TIP3    H238414   3.586   6.377   5.392 -1.2439  1.2776 -0.2602
 5667TIP3   OH238415   1.412   5.000   5.758 -0.3260  0.0299  0.4227
 5667TIP3    H138416   1.476   5.031   5.693 -1.5185 -0.5436 -1.0543
 5667TIP3    H238417   1.465   4.979   5.835  1.4174 -1.3221 -1.0851
 5668TIP3   OH238418   2.530   4.759  14.466 -0.4570  0.0792 -0.4647
 5668TIP3    H138419   2.519   4.842  14.512  1.3748  0.2091 -0.2156
 5668TIP3    H238420   2.445   4.742  14.426 -1.0857  1.6606  0.1602
 5669TIP3   OH238421   1.738   3.177  14.261  0.1041 -0.5360 -0.5619
 5669TIP3    H138422   1.707   3.250  14.315  1.0087 -0.1896 -0.5057
 5669TIP3    H238423   1.816   3.146  14.305  1.0277 -0.0565 -1.8329
 5670TIP3   OH238424   5.685   6.277   3.640 -0.0641  0.5501  0.6918
 5670TIP3    H138425   5.617   6.318   3.694  0.2681  2.0779 -0.0279
 5670TIP3    H238426   5.730   6.218   3.700 -2.1623 -0.6490  1.1132
 5671TIP3   OH238427   1.012   0.592   0.543  0.0580 -0.3049 -0.7527
 5671TIP3    H138428   0.968   0.524   0.593 -1.0274  0.6055 -0.4585
 5671TIP3    H238429   1.086   0.547   0.502  0.0259 -1.4067  0.3635
 5672TIP3   OH238430   3.817   4.339  11.616 -0.6598  0.1797 -0.1759
 5672TIP3    H138431   3.871   4.346  11.537  0.1510  3.3843  0.5638
 5672TIP3    H238432   3.729   4.364  11.588 -0.8221 -0.7260 -0.4812
 5673TIP3   OH238433   3.360   1.865  11.085  0.6684  0.1003 -0.3500
 5673TIP3    H138434   3.445   1.851  11.042  1.0907 -0.2920  0.6014
 5673TIP3    H238435   3.312   1.922  11.024  0.2668 -2.5007 -2.5964
 5674TIP3   OH238436   0.775   4.773   5.531  0.2597 -0.2862  0.5378
 5674TIP3    H138437   0.734   4.843   5.480 -1.8613 -0.6086  1.7312
 5674TIP3    H238438   0.722   4.695   5.512  1.6211 -1.1985  0.4573
 5675TIP3   OH238439   5.916   2.553   6.170 -1.0185 -0.5371  0.3055
 5675TIP3    H138440   5.921   2.603   6.252 -0.7186  0.1717 -0.1366
 5675TIP3    H238441   5.829   2.514   6.170 -1.1725 -0.1905  0.7660
 5676TIP3   OH238442   3.338   5.054  14.347 -0.5687  1.0124  0.8334
 5676TIP3    H138443   3.380   5.125  14.395  1.2684 -1.1740  2.5915
 5676TIP3    H238444   3.320   4.987  14.413 -0.8323 -0.7949 -0.9972
 5677TIP3   OH238445   0.845   3.933   0.474  0.1589  0.1229 -0.5098
 5677TIP3    H138446   0.769   3.927   0.531 -0.3544 -0.9990 -1.2753
 5677TIP3    H238447   0.819   3.995   0.405 -0.1205 -0.3531 -0.8388
 5678TIP3   OH238448   0.965   0.859   0.779  0.3173  0.0657 -0.3630
 5678TIP3    H138449   0.906   0.891   0.711 -0.3726  0.7324  0.5368
 5678TIP3    H238450   0.910   0.802   0.833  0.1779  1.6506  1.1905
 5679TIP3   OH238451   6.578   3.551   5.886  0.6897  0.2627 -0.2887
 5679TIP3    H138452   6.615   3.556   5.974  0.9981  0.0260 -0.4086
 5679TIP3    H238453   6.577   3.642   5.856 -1.0012  0.5817  0.6206
 5680TIP3   OH238454   1.136   5.683   2.986  0.1761 -0.7287 -0.8518
 5680TIP3    H138455   1.177   5.763   2.953 -3.6394  2.0217  0.6565
 5680TIP3    H238456   1.070   5.661   2.921 -0.9587 -0.7665  0.2858
 5681TIP3   OH238457   0.999   0.518  12.789 -0.4119 -0.0710 -0.0844
 5681TIP3    H138458   1.072   0.493  12.846  1.6102  3.0318 -1.1858
 5681TIP3    H238459   1.000   0.613  12.790 -2.6555  0.0190 -2.4360
 5682TIP3   OH238460   6.538   0.536   2.607 -0.3726  0.0485  0.0671
 5682TIP3    H138461   6.525   0.444   2.630 -3.1516  0.3684 -0.0987
 5682TIP3    H238462   6.499   0.584   2.680  0.4332  1.1110 -0.1909
 5683TIP3   OH238463   4.583   6.253  13.304  0.4819 -0.2606 -0.5846
 5683TIP3    H138464   4.596   6.171  13.258 -1.0964 -0.1720 -1.2138
 5683TIP3    H238465   4.537   6.229  13.385 -1.1214  0.1164 -1.3571
 5684TIP3   OH238466   5.032   1.129  11.921 -0.2575 -0.4312  0.4859
 5684TIP3    H138467   5.070   1.123  11.833  0.4641 -2.7852  0.9158
 5684TIP3    H238468   4.964   1.061  11.922 -1.6622  0.9453  1.1028
 5685TIP3   OH238469   5.589   1.400  12.512 -0.2024 -0.4002  0.0189
 5685TIP3    H138470   5.523   1.388  12.580  0.2740  0.0541  0.5693
 5685TIP3    H238471   5.672   1.383  12.556  0.0084 -1.7876 -0.8679
 5686TIP3   OH238472   2.752   4.132  16.818  0.1000  0.3242 -0.5852
 5686TIP3    H138473   2.822   4.186  16.782  0.4318 -0.1324 -0.6186
 5686TIP3    H238474   2.744   4.059  16.757 -0.1845  0.2059 -0.4079
 5687TIP3   OH238475   3.553   5.380  15.854 -0.2050  0.6254 -0.3855
 5687TIP3    H138476   3.541   5.301  15.800  0.9163 -0.0692  0.3420
 5687TIP3    H238477   3.641   5.370  15.891 -0.5509  1.6057  0.7299
 5688TIP3   OH238478   2.039   6.185  14.997 -0.1686 -0.0235  0.5962
 5688TIP3    H138479   2.046   6.096  14.962 -1.2792  0.1976 -0.1899
 5688TIP3    H238480   2.113   6.192  15.057  0.9152 -0.9125 -0.6000
 5689TIP3   OH238481   4.444   6.207  12.996  0.0572 -0.4458  0.0329
 5689TIP3    H138482   4.468   6.170  12.911 -0.4303 -0.2193 -0.2058
 5689TIP3    H238483   4.482   6.295  12.995  0.9858 -0.8273  0.4942
 5690TIP3   OH238484   5.722   4.231   3.313 -0.4695 -0.9466  0.1536
 5690TIP3    H138485   5.760   4.169   3.250 -0.3950 -1.0914  0.3417
 5690TIP3    H238486   5.771   4.312   3.300 -1.1067 -0.6819 -0.6610
 5691TIP3   OH238487   4.797   4.943  15.660 -0.1800  0.3370 -0.0576
 5691TIP3    H138488   4.823   4.877  15.724  2.0816  1.2796  0.0443
 5691TIP3    H238489   4.832   4.911  15.577 -2.4089 -0.4813 -0.6947
 5692TIP3   OH238490   3.023   2.907  16.671  0.1936 -0.2895 -0.4765
 5692TIP3    H138491   2.957   2.900  16.602 -0.5200 -0.7589  0.2501
 5692TIP3    H238492   2.973   2.906  16.753  0.9645  1.1700  0.0322
 5693TIP3   OH238493   2.798   4.699  12.400 -0.0230  0.0979 -0.3405
 5693TIP3    H138494   2.819   4.713  12.307  3.8806 -2.2997  0.0667
 5693TIP3    H238495   2.819   4.607  12.415  0.2469  0.6946  3.1765
 5694TIP3   OH238496   6.449   3.392  13.518 -0.1621 -0.8557 -0.3438
 5694TIP3    H138497   6.407   3.388  13.604 -0.2585 -1.5516 -0.4193
 5694TIP3    H238498   6.404   3.464  13.472  0.7778  0.3741  0.6454
 5695TIP3   OH238499   1.873   0.418  16.786  0.0291  0.2585  0.5466
 5695TIP3    H138500   1.916   0.363  16.720 -0.1417 -0.3507  0.9387
 5695TIP3    H238501   1.784   0.429  16.753 -0.1957 -0.4460  0.9135
 5696TIP3   OH238502   0.835   3.530  16.684  0.1620 -0.1264  0.5649
 5696TIP3    H138503   0.918   3.498  16.650  0.4167  0.7390  0.3650
 5696TIP3    H238504   0.790   3.566  16.608  0.2771  0.8401  0.9457
 5697TIP3   OH238505   6.211   3.784  16.682  0.0134 -0.7692 -0.1857
 5697TIP3    H138506   6.278   3.779  16.614 -0.5834  3.1102 -1.2274
 5697TIP3    H238507   6.140   3.729  16.650  0.5075 -0.4961 -1.8023
 5698TIP3   OH238508   5.236   5.587  14.880  0.4528 -1.0600  0.6063
 5698TIP3    H138509   5.152   5.550  14.854 -0.4181 -0.5037  2.5136
 5698TIP3    H238510   5.302   5.532  14.838 -0.8673 -1.9658 -0.2754
 5699TIP3   OH238511   4.383   0.153  16.287 -0.7259  0.3152 -0.2938
 5699TIP3    H138512   4.377   0.074  16.235  0.7388  0.4596 -0.6957
 5699TIP3    H238513   4.317   0.212  16.249  0.1419  0.3227 -1.7973
 5700TIP3   OH238514   3.787   3.533   1.433 -0.3103  0.0694  0.3067
 5700TIP3    H138515   3.768   3.474   1.360 -0.3831 -2.2038  2.0984
 5700TIP3    H238516   3.844   3.600   1.396  2.1772 -2.7566 -1.1893
 5701TIP3   OH238517   6.607   5.855   2.331  0.0863 -0.2246 -0.2121
 5701TIP3    H138518   6.678   5.792   2.325  0.5709  0.2735  0.2577
 5701TIP3    H238519   6.642   5.935   2.290 -0.2669 -0.0381 -0.1549
 5702TIP3   OH238520   4.172   1.211   1.867  0.2979  0.3187 -0.3981
 5702TIP3    H138521   4.151   1.272   1.797 -2.8092 -0.6914 -0.4263
 5702TIP3    H238522   4.137   1.251   1.947 -0.8977 -0.9045 -0.2718
 5703TIP3   OH238523   4.379   6.381  14.026  0.4709 -0.3989  0.3794
 5703TIP3    H138524   4.337   6.326  13.959 -1.2032  2.3185 -0.8741
 5703TIP3    H238525   4.306   6.418  14.076  1.6355 -0.5716  2.2769
 5704TIP3   OH238526   6.642   3.894  17.141  0.4848  0.3522 -0.6132
 5704TIP3    H138527   6.556   3.929  17.118  0.9937  1.2943 -1.1469
 5704TIP3    H238528   6.702   3.967  17.126  1.3329 -0.1777  0.1162
 5705TIP3   OH238529   4.411   1.676   6.049 -0.1483 -0.2470  0.0134
 5705TIP3    H138530   4.393   1.629   6.131  3.7097 -1.5610  0.2426
 5705TIP3    H238531   4.406   1.768   6.073  0.8572 -0.6062  1.7644
 5706TIP3   OH238532   3.383   1.347   0.884  0.2290 -0.2808  0.0623
 5706TIP3    H138533   3.365   1.272   0.941 -3.3814 -0.6041 -1.3801
 5706TIP3    H238534   3.396   1.309   0.797 -0.4676  0.6325 -0.4562
 5707TIP3   OH238535   0.964   3.875   6.088  0.4498  0.0807  0.8378
 5707TIP3    H138536   0.942   3.946   6.148  0.5615  1.8114 -1.1403
 5707TIP3    H238537   0.921   3.897   6.006  0.6211 -2.0608  0.1343
 5708TIP3   OH238538   3.629   2.721   0.945  0.3255  0.2149 -0.2645
 5708TIP3    H138539   3.660   2.774   1.018  1.8307 -0.6842 -0.2381
 5708TIP3    H238540   3.659   2.632   0.965 -0.2147 -0.2414 -1.4266
 5709TIP3   OH238541   3.794   5.315   6.518  0.4351  0.3182 -0.4599
 5709TIP3    H138542   3.795   5.404   6.551  1.0439  0.3035 -0.4409
 5709TIP3    H238543   3.820   5.261   6.592  2.7026  0.3671 -1.1758
 5710TIP3   OH238544   3.065   2.263  14.774  0.0027 -0.3443 -0.0542
 5710TIP3    H138545   3.010   2.278  14.697  0.0186  1.5801  0.2842
 5710TIP3    H238546   3.060   2.169  14.789 -2.3723 -0.3503 -0.6432
 5711TIP3   OH238547   5.121   0.132   4.394  0.6715 -0.0932 -0.1256
 5711TIP3    H138548   5.191   0.079   4.432 -0.6089 -1.2335  0.6807
 5711TIP3    H238549   5.062   0.069   4.353  1.5617  1.0560 -3.3173
 5712TIP3   OH238550   0.935   4.107  11.404  0.3490  0.5772  0.5110
 5712TIP3    H138551   0.854   4.143  11.441 -0.1919 -1.4045  1.2837
 5712TIP3    H238552   0.905   4.042  11.340  1.3100 -1.2501  1.8776
 5713TIP3   OH238553   2.829   1.619   1.621 -0.2826  0.1018 -0.4243
 5713TIP3    H138554   2.786   1.705   1.623  0.8807  0.7379 -2.0759
 5713TIP3    H238555   2.781   1.567   1.685 -1.3500  1.8239  0.2085
 5714TIP3   OH238556   5.622   2.227   5.256 -0.0704  0.4584 -0.7979
 5714TIP3    H138557   5.540   2.238   5.208 -1.7365  0.4934  1.9147
 5714TIP3    H238558   5.615   2.139   5.294  0.3636  1.0956  0.8130
 5715TIP3   OH238559   1.381   0.808  11.463  0.3916 -0.0164  0.2200
 5715TIP3    H138560   1.456   0.857  11.496  0.9570  0.0218 -1.0978
 5715TIP3    H238561   1.381   0.825  11.368 -0.9876 -0.4062  0.1447
 5716TIP3   OH238562   3.376   0.603   0.767 -0.5097  0.1490 -0.5103
 5716TIP3    H138563   3.318   0.527   0.768 -1.4841  0.8893 -0.1353
 5716TIP3    H238564   3.319   0.676   0.743 -0.0927  1.1766  1.5106
 5717TIP3   OH238565   1.566   1.106   5.761  0.2231  0.2278  0.3854
 5717TIP3    H138566   1.534   1.030   5.810  0.4031 -0.0014  0.1442
 5717TIP3    H238567   1.514   1.179   5.795  1.1969  0.2830  1.8055
 5718TIP3   OH238568   6.218   4.813   0.256 -0.4844  0.0591 -0.0293
 5718TIP3    H138569   6.275   4.737   0.244 -0.4075  0.1385 -0.1787
 5718TIP3    H238570   6.161   4.812   0.180 -0.9792 -0.2726  0.3406
 5719TIP3   OH238571   6.469   5.750  15.528 -0.1437  0.0761  0.4066
 5719TIP3    H138572   6.472   5.801  15.447 -0.7337 -1.2343 -0.4673
 5719TIP3    H238573   6.469   5.815  15.598  3.2951  1.1757 -0.5301
 5720TIP3   OH238574   2.085   3.370  10.565 -0.2534  0.1229 -0.7120
 5720TIP3    H138575   2.090   3.277  10.587  0.2624  0.2153 -0.4270
 5720TIP3    H238576   2.025   3.374  10.491  0.5685 -0.5615 -1.4276
 5721TIP3   OH238577   2.063   1.758   3.298  0.1681  0.4101  0.0871
 5721TIP3    H138578   1.990   1.807   3.260  0.0384  0.2878  0.1772
 5721TIP3    H238579   2.141   1.802   3.265  0.0553  0.3828 -0.2150
 5722TIP3   OH238580   3.174   1.778  12.819  0.6807 -0.7851  0.2230
 5722TIP3    H138581   3.186   1.723  12.896  0.5105  1.2231  1.7320
 5722TIP3    H238582   3.250   1.837  12.820 -0.0335  0.1523 -0.3644
 5723TIP3   OH238583   1.891   0.814  15.734 -0.6412 -0.2874 -0.2562
 5723TIP3    H138584   1.912   0.754  15.662  2.5519  0.3714  0.0595
 5723TIP3    H238585   1.914   0.901  15.701 -0.5998  0.1946  1.0142
 5724TIP3   OH238586   4.305   1.619  16.385  0.2766  0.1093  0.3087
 5724TIP3    H138587   4.279   1.681  16.453 -0.3495 -1.4859  1.5362
 5724TIP3    H238588   4.228   1.610  16.329 -0.7083 -1.9630  1.9553
 5725TIP3   OH238589   5.991   1.604   3.740  0.2062  0.2886  0.4432
 5725TIP3    H138590   6.073   1.649   3.758  0.2464  0.4640 -0.1538
 5725TIP3    H238591   5.930   1.674   3.717  0.2680  0.0473 -0.4783
 5726TIP3   OH238592   2.524   0.598   1.404 -0.6742 -0.8698 -0.2297
 5726TIP3    H138593   2.524   0.530   1.337  1.0633 -0.7644 -0.3618
 5726TIP3    H238594   2.524   0.681   1.355 -0.6027 -0.7813 -0.0813
 5727TIP3   OH238595   3.889   4.504   4.354  0.1343 -0.8759  0.2846
 5727TIP3    H138596   3.902   4.460   4.269  1.6125  0.0576 -0.0003
 5727TIP3    H238597   3.875   4.596   4.331 -0.2660 -0.7551  1.0147
 5728TIP3   OH238598   2.610   3.274   2.330 -0.2352  0.2573  0.7637
 5728TIP3    H138599   2.526   3.231   2.312 -0.7558  1.1899  0.9386
 5728TIP3    H238600   2.673   3.202   2.332 -0.9162 -0.3795 -0.0443
 5729TIP3   OH238601   4.719   4.280   0.037 -0.2168  0.2963 -0.2953
 5729TIP3    H138602   4.794   4.226   0.011  0.3326  0.1862  1.4486
 5729TIP3    H238603   4.757   4.365   0.058 -0.6596  0.4258 -0.0072
 5730TIP3   OH238604   5.687   3.974   4.595  0.3004  0.1411  0.2293
 5730TIP3    H138605   5.669   4.064   4.622  1.4027  0.6325 -0.6299
 5730TIP3    H238606   5.656   3.920   4.668  2.8593  1.3916  2.3084
 5731TIP3   OH238607   0.197   3.654   5.789 -0.1494  0.2081 -0.3945
 5731TIP3    H138608   0.169   3.584   5.847 -1.5647  0.6806 -0.4893
 5731TIP3    H238609   0.280   3.683   5.825  0.0304 -0.9417  0.1408
 5732TIP3   OH238610   5.385   3.727   1.753 -0.4433  0.1086  0.4002
 5732TIP3    H138611   5.332   3.657   1.715 -0.0243 -0.8968  1.6456
 5732TIP3    H238612   5.358   3.731   1.845  2.8723 -1.6950  1.5530
 5733TIP3   OH238613   4.107   4.166  12.385 -0.4169  0.6627  0.0580
 5733TIP3    H138614   4.076   4.227  12.452 -0.1727  0.2307  0.5794
 5733TIP3    H238615   4.037   4.102  12.377  0.7569 -0.9354  2.0336
 5734TIP3   OH238616   1.599   1.912   0.778  0.0762 -0.3821  0.3910
 5734TIP3    H138617   1.558   1.828   0.797  0.0099 -0.2820  0.7038
 5734TIP3    H238618   1.690   1.902   0.805  0.5633 -0.9876 -1.4103
 5735TIP3   OH238619   6.418   4.108   2.809 -0.2429  0.3240  0.4512
 5735TIP3    H138620   6.399   4.043   2.878 -0.2334 -1.3356 -1.0839
 5735TIP3    H238621   6.492   4.158   2.844  0.7040 -1.4355  1.0601
 5736TIP3   OH238622   4.716   4.068   2.467 -0.0977  0.0384 -0.0256
 5736TIP3    H138623   4.803   4.057   2.504 -1.0170 -1.9384  1.6663
 5736TIP3    H238624   4.709   4.161   2.447  2.1684  0.3077  0.3720
 5737TIP3   OH238625   4.353   1.738  10.458  0.3918 -0.2083  0.1780
 5737TIP3    H138626   4.420   1.805  10.470  0.5472 -0.4536  0.6916
 5737TIP3    H238627   4.387   1.661  10.503 -0.2885 -0.3008  0.5406
 5738TIP3   OH238628   3.214   0.288   3.479 -0.2334 -0.4960  0.1726
 5738TIP3    H138629   3.173   0.365   3.440 -0.2644  0.0259  1.2062
 5738TIP3    H238630   3.233   0.231   3.405 -0.0288  0.5929 -0.6334
 5739TIP3   OH238631   6.252   2.715  16.924  0.0246  0.0018 -0.0578
 5739TIP3    H138632   6.266   2.710  17.019 -0.4123  0.3069  0.0238
 5739TIP3    H238633   6.227   2.627  16.899  0.2399 -0.1049  0.0924
 5740TIP3   OH238634   5.979   2.510   2.705 -1.0477 -0.1742  0.4132
 5740TIP3    H138635   6.008   2.557   2.626  0.6447  0.1369  1.1883
 5740TIP3    H238636   5.893   2.546   2.725 -1.1645  0.2737 -0.8724
 5741TIP3   OH238637   0.621   4.929   0.417 -0.4399 -0.3260 -0.3708
 5741TIP3    H138638   0.614   5.015   0.460  0.7119 -1.0846  1.4360
 5741TIP3    H238639   0.714   4.922   0.394 -0.8331 -0.4375 -1.9506
 5742TIP3   OH238640   1.682   2.202   3.297 -0.4695 -0.2927  0.0303
 5742TIP3    H138641   1.719   2.236   3.379  0.7556 -2.7010  0.5004
 5742TIP3    H238642   1.616   2.139   3.325  0.9289 -2.1596 -0.8191
 5743TIP3   OH238643   4.700   1.575   5.546 -0.1703  0.2611  0.2754
 5743TIP3    H138644   4.750   1.646   5.506  0.7894 -1.0518 -0.8947
 5743TIP3    H238645   4.743   1.561   5.631 -0.5010  1.2338  0.5982
 5744TIP3   OH238646   1.753   1.598   5.840  0.3029 -0.2923  0.0220
 5744TIP3    H138647   1.749   1.569   5.749 -0.7626  0.3941 -0.1527
 5744TIP3    H238648   1.836   1.562   5.873  0.9420 -0.1093 -1.3588
 5745TIP3   OH238649   3.683   5.749  15.361  0.2951  0.3042  0.0489
 5745TIP3    H138650   3.726   5.819  15.410  0.0053 -0.2143  1.0627
 5745TIP3    H238651   3.654   5.687  15.428 -1.0828  0.1204 -0.6858
 5746TIP3   OH238652   3.346   2.811  14.900  0.0912  0.3274 -0.3909
 5746TIP3    H138653   3.320   2.856  14.981 -0.1623 -0.5580  0.0310
 5746TIP3    H238654   3.285   2.844  14.834  1.4534  2.4382 -0.6538
 5747TIP3   OH238655   6.111   5.971  10.806  0.1036 -0.3126  0.1194
 5747TIP3    H138656   6.052   6.030  10.760  0.8229  0.5312  0.2697
 5747TIP3    H238657   6.061   5.889  10.815 -1.1779  0.5067  0.5687
 5748TIP3   OH238658   5.646   6.640  12.814  0.1211 -0.2860  0.1931
 5748TIP3    H138659   5.586   6.566  12.808  0.2041 -0.4202  1.0802
 5748TIP3    H238660   5.624   6.694  12.738  0.2421 -1.3486 -0.6089
 5749TIP3   OH238661   0.153   6.686  11.446 -0.5730 -0.0656 -0.8168
 5749TIP3    H138662   0.151   6.782  11.453  0.7327 -0.0724 -0.1734
 5749TIP3    H238663   0.238   6.666  11.408 -0.3921 -1.0208  0.0562
 5750TIP3   OH238664   0.524   1.316   3.208  0.1645 -0.4685  0.1505
 5750TIP3    H138665   0.430   1.299   3.205 -0.5314  2.6329  2.5544
 5750TIP3    H238666   0.537   1.388   3.147  0.7876 -0.0664  0.7624
 5751TIP3   OH238667   1.470   3.135  15.159  0.1682 -0.5967 -0.4258
 5751TIP3    H138668   1.546   3.188  15.132  0.3644 -0.9558 -0.5927
 5751TIP3    H238669   1.506   3.047  15.169 -1.0329 -1.6583 -4.6029
 5752TIP3   OH238670   1.764   3.817   2.060  0.3584  0.2744  0.3114
 5752TIP3    H138671   1.675   3.784   2.074 -0.0598  1.5204  0.6737
 5752TIP3    H238672   1.821   3.743   2.081 -0.5614 -0.2574  0.9737
 5753TIP3   OH238673   2.649   6.441   0.447  0.3667  0.9270  0.0772
 5753TIP3    H138674   2.622   6.410   0.360 -1.3745  0.5342  0.7406
 5753TIP3    H238675   2.709   6.374   0.479 -0.4841  0.1024 -0.0405
 5754TIP3   OH238676   3.191   6.053   6.222  0.2335 -0.1108 -0.5043
 5754TIP3    H138677   3.148   6.028   6.140 -0.0122 -1.2915 -0.0306
 5754TIP3    H238678   3.258   6.116   6.196  0.3619 -0.7014 -1.6516
 5755TIP3   OH238679   3.908   0.903   3.867  0.2558 -0.5010 -0.2670
 5755TIP3    H138680   3.933   0.817   3.900 -0.2906 -1.1348 -1.5036
 5755TIP3    H238681   3.935   0.903   3.775  1.5088  1.1523  0.0645
 5756TIP3   OH238682   5.137   1.291  11.379 -0.2300 -0.1999  0.2034
 5756TIP3    H138683   5.096   1.213  11.416  0.1394 -0.6082 -0.2422
 5756TIP3    H238684   5.154   1.348  11.455  0.8306 -1.1711  0.7095
 5757TIP3   OH238685   5.932   2.095  11.443  0.5090  0.2016 -0.3931
 5757TIP3    H138686   6.018   2.137  11.440  0.9065 -0.6233 -0.7862
 5757TIP3    H238687   5.896   2.121  11.528  1.0923  0.6578 -0.2783
 5758TIP3   OH238688   3.421   1.099   6.292  0.3898 -0.0580  0.2399
 5758TIP3    H138689   3.485   1.129   6.357 -0.3557  0.7006  0.6363
 5758TIP3    H238690   3.340   1.144   6.315  0.2621  0.7202 -1.5959
 5759TIP3   OH238691   1.025   5.627  14.560  0.9560  0.1437 -0.4585
 5759TIP3    H138692   0.930   5.626  14.553  0.7648  0.8339  1.6269
 5759TIP3    H238693   1.045   5.709  14.606  2.5593  0.1102 -1.0699
 5760TIP3   OH238694   5.032   3.081   1.222 -0.3466  0.1658  0.3601
 5760TIP3    H138695   5.094   3.020   1.262 -0.9301 -0.7168 -0.0644
 5760TIP3    H238696   5.055   3.080   1.129  0.2799  1.3483  0.4979
 5761TIP3   OH238697   0.849   1.470  15.141 -0.4987  0.6650 -0.1131
 5761TIP3    H138698   0.912   1.407  15.106 -1.0044 -0.3665  0.8147
 5761TIP3    H238699   0.870   1.552  15.097  2.5995  0.7450  1.4222
 5762TIP3   OH238700   3.179   1.201   3.027  0.0274  0.1660 -0.0659
 5762TIP3    H138701   3.179   1.278   3.084 -1.0867 -0.1954  0.4168
 5762TIP3    H238702   3.093   1.202   2.986 -0.7551 -1.9859  1.4917
 5763TIP3   OH238703   6.738   1.654   1.555  0.2481  0.4714  0.2332
 5763TIP3    H138704   6.684   1.578   1.533  1.9387 -0.5241 -0.5919
 5763TIP3    H238705   6.680   1.729   1.543 -1.2451 -0.6323  0.3793
 5764TIP3   OH238706   5.124   0.543  14.935  0.3827 -0.0612  0.0061
 5764TIP3    H138707   5.212   0.582  14.939  0.0836  0.9054 -2.2937
 5764TIP3    H238708   5.139   0.450  14.951  1.8496  0.0803 -0.4475
 5765TIP3   OH238709   3.410   5.584  12.868 -0.2214 -0.6284  0.4764
 5765TIP3    H138710   3.496   5.552  12.896 -0.7610 -0.9808  1.7709
 5765TIP3    H238711   3.420   5.599  12.774  1.3931 -0.2072  0.6953
 5766TIP3   OH238712   1.412   2.443  13.661 -0.3775  0.2043 -0.4020
 5766TIP3    H138713   1.349   2.469  13.728 -0.6930 -0.5168 -0.4034
 5766TIP3    H238714   1.368   2.371  13.615  0.5124 -0.4105 -0.3039
 5767TIP3   OH238715   6.767   2.706  14.829  0.0839  0.2787  0.2573
 5767TIP3    H138716   6.824   2.630  14.840 -0.3695  0.0267  0.8864
 5767TIP3    H238717   6.785   2.761  14.905 -0.1799  0.4139  0.2233
 5768TIP3   OH238718   3.264   4.851  14.553 -0.3047 -0.4043  0.5070
 5768TIP3    H138719   3.346   4.802  14.548  0.5520  1.1568 -1.6937
 5768TIP3    H238720   3.200   4.797  14.507  0.4959  0.2156 -1.3980
 5769TIP3   OH238721   5.947   4.872   5.470 -0.2021 -0.0965 -0.0386
 5769TIP3    H138722   5.925   4.910   5.386 -2.3189  0.8789  0.9242
 5769TIP3    H238723   6.038   4.841   5.460 -0.6516 -0.6129 -2.8508
 5770TIP3   OH238724   4.083   5.778   1.162  0.1153 -0.2800 -0.1654
 5770TIP3    H138725   4.026   5.722   1.214 -0.2796 -0.4510 -0.7709
 5770TIP3    H238726   4.092   5.858   1.213  1.3050 -1.1795  1.0729
 5771TIP3   OH238727   3.032   1.782  16.323  0.1144 -0.0642 -0.0661
 5771TIP3    H138728   3.076   1.735  16.394  0.2655  0.3742  0.1292
 5771TIP3    H238729   2.939   1.762  16.335  0.0664  0.6016  0.6915
 5772TIP3   OH238730   4.378   1.368   0.958  0.2587 -0.2097  0.1364
 5772TIP3    H138731   4.391   1.287   1.007  1.6426  0.0594  0.2292
 5772TIP3    H238732   4.355   1.433   1.025 -0.2359 -0.3789  0.1346
 5773TIP3   OH238733   4.480   6.583   3.817  0.4879 -0.3668 -0.1788
 5773TIP3    H138734   4.543   6.651   3.840  0.3274 -0.4344  0.4820
 5773TIP3    H238735   4.485   6.521   3.890 -1.1079  0.1603  0.4013
 5774TIP3   OH238736   5.912   3.830  15.059 -0.2536 -0.4080  0.0045
 5774TIP3    H138737   5.992   3.806  15.013  0.3869  0.9735  0.3691
 5774TIP3    H238738   5.868   3.891  15.000  0.5448  1.3316  1.1726
 5775TIP3   OH238739   3.159   0.867   3.111 -0.2805 -0.3133 -0.7534
 5775TIP3    H138740   3.186   0.848   3.021  1.5956 -1.1082 -0.0431
 5775TIP3    H238741   3.240   0.889   3.156 -1.5759  3.0705  0.0525
 5776TIP3   OH238742   5.500   3.243   2.737  0.4772  0.2273  0.4757
 5776TIP3    H138743   5.478   3.219   2.647 -0.9968 -0.5711  1.0330
 5776TIP3    H238744   5.454   3.326   2.751  0.5414  0.2478  0.5643
 5777TIP3   OH238745   5.805   3.747   1.579  0.2075  0.0983 -0.0233
 5777TIP3    H138746   5.789   3.661   1.618 -0.8374  0.5211  0.5022
 5777TIP3    H238747   5.879   3.783   1.628  1.3292 -0.9067 -0.9232
 5778TIP3   OH238748   2.326   2.551   1.753  0.8491  0.8908 -0.1904
 5778TIP3    H138749   2.417   2.535   1.781  0.4871 -2.3572 -0.6132
 5778TIP3    H238750   2.334   2.580   1.662  1.4792  0.7363 -0.1891
 5779TIP3   OH238751   3.085   2.977   4.326  0.3459  0.6378  0.0107
 5779TIP3    H138752   3.164   2.952   4.374 -0.8927 -1.1222  1.2178
 5779TIP3    H238753   3.114   2.987   4.235  1.6790 -1.5643  0.1623
 5780TIP3   OH238754   0.104   3.848  14.352  0.2604 -0.0934 -0.0090
 5780TIP3    H138755   0.172   3.787  14.324 -1.2323 -1.6996 -0.2095
 5780TIP3    H238756   0.021   3.802  14.334 -0.8805  1.7473  0.3737
 5781TIP3   OH238757   5.401   5.192   5.711  0.0638  0.0408 -0.2574
 5781TIP3    H138758   5.442   5.118   5.666 -0.4604 -0.9851  0.9199
 5781TIP3    H238759   5.358   5.153   5.787 -0.1157  1.5779  0.4509
 5782TIP3   OH238760   2.532   3.254   2.692  0.0147 -0.6786 -0.4370
 5782TIP3    H138761   2.465   3.310   2.654 -0.7793 -1.9400 -0.9137
 5782TIP3    H238762   2.533   3.276   2.785  0.9248  1.3569 -0.8971
 5783TIP3   OH238763   1.221   1.108   4.429  0.1481 -0.0084  0.7201
 5783TIP3    H138764   1.252   1.017   4.437 -1.1784 -0.4953  0.3391
 5783TIP3    H238765   1.243   1.147   4.514  0.2549 -0.8260  1.0847
 5784TIP3   OH238766   6.118   0.477   1.127 -0.0931  0.0252  0.0023
 5784TIP3    H138767   6.040   0.522   1.095  0.3024 -0.8471 -2.2574
 5784TIP3    H238768   6.189   0.513   1.074  0.6503 -1.0677  0.2433
 5785TIP3   OH238769   4.776   5.672  16.971 -0.0990 -0.2864  0.1206
 5785TIP3    H138770   4.714   5.684  16.899 -0.4914 -1.5622  0.2323
 5785TIP3    H238771   4.855   5.639  16.929 -0.1108 -0.4012  0.1870
 5786TIP3   OH238772   4.385   1.335  11.273 -0.3371 -0.0823 -0.3638
 5786TIP3    H138773   4.378   1.250  11.315 -0.9806  0.5990  0.9374
 5786TIP3    H238774   4.297   1.354  11.241 -0.2081  0.1230 -0.6018
 5787TIP3   OH238775   3.638   2.105  16.641  0.0919 -0.4727  0.4740
 5787TIP3    H138776   3.564   2.064  16.685  1.0145 -0.0168  2.4963
 5787TIP3    H238777   3.606   2.190  16.612 -1.1861 -1.6843 -1.8074
 5788TIP3   OH238778   0.271   5.698  14.134  0.3286 -0.3428  0.3343
 5788TIP3    H138779   0.347   5.750  14.158 -0.7126  0.8538  1.1051
 5788TIP3    H238780   0.199   5.736  14.184 -1.2210 -0.0287 -2.0392
 5789TIP3   OH238781   4.693   0.775   3.257 -0.6182  0.0039  0.6651
 5789TIP3    H138782   4.741   0.817   3.329 -0.4979 -0.3376  0.7849
 5789TIP3    H238783   4.615   0.738   3.298 -1.6540  1.6692  0.2606
 5790TIP3   OH238784   5.950   5.905   5.277 -0.2268 -0.3442 -0.2883
 5790TIP3    H138785   5.877   5.878   5.220 -0.4766 -1.9350  0.7574
 5790TIP3    H238786   5.948   5.842   5.349  1.0364  0.7395  0.7021
 5791TIP3   OH238787   4.017   2.485   1.889 -0.2230  0.6916  0.0930
 5791TIP3    H138788   4.022   2.431   1.810 -1.5175 -0.1596  0.5694
 5791TIP3    H238789   4.106   2.486   1.923 -0.2295 -1.3975  0.2303
 5792TIP3   OH238790   1.901   5.570  13.400  0.2497 -0.6757  0.2664
 5792TIP3    H138791   1.906   5.646  13.341  1.3053 -2.3931 -1.9226
 5792TIP3    H238792   1.815   5.577  13.441 -0.2423  0.8992 -0.9778
 5793TIP3   OH238793   5.227   2.087  13.733  0.8340 -0.6546  0.1244
 5793TIP3    H138794   5.202   2.158  13.674  1.0544 -0.2088  0.5589
 5793TIP3    H238795   5.210   2.007  13.683 -3.4328 -0.5056  1.1121
 5794TIP3   OH238796   2.140   3.309  10.857 -0.1074 -0.7572  0.3274
 5794TIP3    H138797   2.150   3.214  10.868  0.0829 -0.6445  1.1753
 5794TIP3    H238798   2.070   3.333  10.918  0.7954 -0.1530  1.1480
 5795TIP3   OH238799   2.834   3.593  14.983 -0.2455 -0.2079  0.5134
 5795TIP3    H138800   2.774   3.526  15.018 -1.5281  1.8623  2.4180
 5795TIP3    H238801   2.860   3.559  14.897 -0.2033 -3.5419  1.7486
 5796TIP3   OH238802   2.674   3.532  16.261  0.1328  0.1811  0.3939
 5796TIP3    H138803   2.763   3.498  16.257 -0.0086 -0.3467  1.5089
 5796TIP3    H238804   2.626   3.480  16.196  0.6745  0.6154 -0.3604
 5797TIP3   OH238805   1.927   1.594   6.688 -0.3634  0.1357  0.8926
 5797TIP3    H138806   2.014   1.566   6.659 -0.5613  2.2408 -2.1078
 5797TIP3    H238807   1.944   1.662   6.753  0.3343  1.3285 -0.4841
 5798TIP3   OH238808   0.278   1.746  16.764  0.6924  0.7983  0.5950
 5798TIP3    H138809   0.343   1.765  16.696  1.7054  2.1987  1.9281
 5798TIP3    H238810   0.194   1.757  16.720  1.3374  1.5308 -0.4841
 5799TIP3   OH238811   3.275   2.254  11.987  0.2240  0.5972 -0.0271
 5799TIP3    H138812   3.338   2.268  11.916 -0.4220  1.0334 -0.5243
 5799TIP3    H238813   3.190   2.276  11.948 -0.0288  1.7807  1.1606
 5800TIP3   OH238814   4.550   3.652   3.629  0.0396  0.6169 -0.0875
 5800TIP3    H138815   4.502   3.579   3.590  0.5470  0.4210 -0.3493
 5800TIP3    H238816   4.642   3.625   3.626  0.0029  0.1353  2.2272
 5801TIP3   OH238817   0.845   5.678  12.513 -0.1346 -0.2355  0.9019
 5801TIP3    H138818   0.828   5.772  12.498  0.4743  0.2682  3.1803
 5801TIP3    H238819   0.805   5.635  12.438 -2.7975  1.6625  1.1267
 5802TIP3   OH238820   6.123   4.452  13.240 -0.2073  0.4806  0.2846
 5802TIP3    H138821   6.060   4.510  13.283  1.7514  2.6129  0.3829
 5802TIP3    H238822   6.178   4.419  13.312 -0.4405 -0.4200  0.0583
 5803TIP3   OH238823   2.923   0.994  11.091  0.1077  0.0865  0.0611
 5803TIP3    H138824   2.845   0.938  11.083  0.9581 -1.1082  0.1155
 5803TIP3    H238825   2.898   1.075  11.046 -2.0574  0.6654  2.2076
 5804TIP3   OH238826   4.107   0.598  14.512 -0.1171 -0.2679  0.1059
 5804TIP3    H138827   4.084   0.514  14.474 -2.2502 -0.6510  2.1372
 5804TIP3    H238828   4.076   0.663  14.448  1.3195 -0.9795 -1.3450
 5805TIP3   OH238829   2.260   5.120   5.544 -0.0827  0.0808 -0.4945
 5805TIP3    H138830   2.305   5.189   5.496  1.6620 -0.1427  0.7556
 5805TIP3    H238831   2.326   5.087   5.606 -1.5940 -1.1207  0.5130
 5806TIP3   OH238832   2.835   0.222  13.674  0.3630 -0.4089  1.0011
 5806TIP3    H138833   2.752   0.226  13.722 -0.3017 -0.6679 -0.1333
 5806TIP3    H238834   2.882   0.302  13.701  0.0334 -0.5802  2.1324
 5807TIP3   OH238835   1.162   0.806  14.427  0.1661  0.0172  0.2826
 5807TIP3    H138836   1.176   0.840  14.339 -1.2319 -0.1378 -0.0126
 5807TIP3    H238837   1.247   0.770  14.453 -0.3180 -3.5258 -2.5523
 5808TIP3   OH238838   4.477   0.735  13.596 -0.5624 -0.0730 -0.5462
 5808TIP3    H138839   4.449   0.650  13.631  0.2670 -0.0024  0.2874
 5808TIP3    H238840   4.399   0.790  13.603 -1.5114 -1.1075 -2.2967
 5809TIP3   OH238841   6.146   0.734  16.391 -0.0886  0.0291 -0.0292
 5809TIP3    H138842   6.239   0.713  16.395 -0.1826 -0.6308 -1.1651
 5809TIP3    H238843   6.105   0.671  16.450  0.0925 -0.2495 -0.1971
 5810TIP3   OH238844   6.349   5.006   2.665 -0.1679  0.2510  0.8988
 5810TIP3    H138845   6.299   4.925   2.663  0.6116 -0.1933 -1.7692
 5810TIP3    H238846   6.291   5.068   2.710 -2.3925 -0.7195 -0.5474
 5811TIP3   OH238847   0.443   1.178  16.351 -0.1254 -0.1073 -0.3432
 5811TIP3    H138848   0.499   1.166  16.427 -0.5428  1.7265  0.2643
 5811TIP3    H238849   0.354   1.176  16.386 -0.3871 -1.0448 -1.0363
 5812TIP3   OH238850   3.644   4.382   4.774  0.4619  0.2327 -0.4031
 5812TIP3    H138851   3.674   4.366   4.685 -1.9833 -0.2278 -1.1790
 5812TIP3    H238852   3.604   4.468   4.772 -0.7476 -0.3084 -0.0753
 5813TIP3   OH238853   0.680   6.180  15.514  0.0507  0.0687 -0.1291
 5813TIP3    H138854   0.607   6.124  15.489 -1.5408  0.1496  3.9285
 5813TIP3    H238855   0.647   6.230  15.589  3.9087  0.8297  1.1810
 5814TIP3   OH238856   2.715   1.299  13.601  0.7905 -0.0557  0.1735
 5814TIP3    H138857   2.654   1.366  13.570 -0.4298 -0.9366  0.6398
 5814TIP3    H238858   2.738   1.327  13.690  2.2723  1.0819 -0.5372
 5815TIP3   OH238859   2.823   3.437  14.756 -0.1243 -0.1885  0.3030
 5815TIP3    H138860   2.816   3.468  14.666  1.4522 -0.5504  0.0515
 5815TIP3    H238861   2.916   3.445  14.778 -0.2761 -1.3494  1.4494
 5816TIP3   OH238862   3.319   0.446   4.377 -0.0544 -0.1194  0.0404
 5816TIP3    H138863   3.410   0.471   4.361 -0.3614  1.3786  0.5179
 5816TIP3    H238864   3.287   0.414   4.293  0.5527  0.5361 -0.4442
 5817TIP3   OH238865   3.579   1.489   5.177 -0.2192 -0.2778 -0.1674
 5817TIP3    H138866   3.518   1.544   5.127  3.0010  3.0132 -0.7248
 5817TIP3    H238867   3.565   1.514   5.268  0.0420  0.2167 -0.2609
 5818TIP3   OH238868   3.549   4.618   0.366 -0.7143  0.3735  0.3538
 5818TIP3    H138869   3.561   4.552   0.297  1.9356 -1.0705  2.0746
 5818TIP3    H238870   3.473   4.587   0.415 -0.2805 -0.7257  0.3621
 5819TIP3   OH238871   0.689   1.502  15.811  1.1331 -0.4317  0.0290
 5819TIP3    H138872   0.661   1.590  15.783 -0.1886 -0.8007  0.1316
 5819TIP3    H238873   0.731   1.465  15.734  1.5588  0.2349 -0.0664
 5820TIP3   OH238874   6.052   5.688  12.968 -0.5868 -0.6470  0.2424
 5820TIP3    H138875   6.059   5.783  12.979  0.3391 -0.4982 -1.4932
 5820TIP3    H238876   6.002   5.677  12.888 -0.3113 -1.6327  0.1987
 5821TIP3   OH238877   0.031   6.554   3.191 -0.0561 -0.2910 -0.1706
 5821TIP3    H138878  -0.042   6.508   3.152 -1.7929  1.4229  0.9330
 5821TIP3    H238879   0.068   6.492   3.255 -0.6500 -1.0951 -0.6088
 5822TIP3   OH238880   3.335   3.127  14.667  0.3222  0.0291 -0.2918
 5822TIP3    H138881   3.404   3.095  14.725 -0.7193 -1.4323  0.1603
 5822TIP3    H238882   3.304   3.049  14.621 -3.4434  0.0068  2.0637
 5823TIP3   OH238883   1.294   2.283  11.139 -0.2203 -0.3757  0.6847
 5823TIP3    H138884   1.362   2.256  11.200 -0.9279 -2.2307  0.6594
 5823TIP3    H238885   1.294   2.379  11.144  1.1729 -0.4365  1.9965
 5824TIP3   OH238886   1.221   3.665   2.421 -0.0542  0.0392  0.9266
 5824TIP3    H138887   1.267   3.728   2.477 -2.8580  0.9208  2.3296
 5824TIP3    H238888   1.156   3.717   2.375 -0.4484 -1.3700 -0.1270
 5825TIP3   OH238889   2.487   3.233  12.001 -0.0827  0.1461  0.3985
 5825TIP3    H138890   2.571   3.202  11.965 -0.3783  0.8312 -0.9038
 5825TIP3    H238891   2.505   3.323  12.030 -0.5529  0.5428 -0.5420
 5826TIP3   OH238892   3.287   3.687   5.596 -0.1740 -0.0087  0.4279
 5826TIP3    H138893   3.334   3.761   5.557 -0.0567  0.0701  0.7186
 5826TIP3    H238894   3.307   3.692   5.689 -2.8357  1.5822  0.9825
 5827TIP3   OH238895   6.787   5.329   1.085  0.3999 -0.1818  0.5226
 5827TIP3    H138896   6.714   5.325   1.147  0.6737  1.0392  0.9265
 5827TIP3    H238897   6.748   5.305   1.001 -0.3847  0.1064  0.8011
 5828TIP3   OH238898   5.478   0.908   5.283 -0.5652  0.1899 -0.0011
 5828TIP3    H138899   5.516   0.918   5.370  1.6705  0.6580 -0.9887
 5828TIP3    H238900   5.424   0.829   5.289  2.4538 -1.8885  0.8675
 5829TIP3   OH238901   2.985   5.933  14.178  0.2961 -0.2643  0.1938
 5829TIP3    H138902   2.931   5.867  14.222  0.5375 -0.1869  0.6036
 5829TIP3    H238903   3.052   5.956  14.242  0.7385 -0.2649 -0.2653
 5830TIP3   OH238904   1.127   5.285  13.298 -0.2340  0.0401 -0.0248
 5830TIP3    H138905   1.132   5.329  13.383 -0.3930  0.0604 -0.0266
 5830TIP3    H238906   1.208   5.233  13.294  0.2204  0.7494 -0.2545
 5831TIP3   OH238907   0.460   2.643   3.219 -0.5779  0.8693 -0.4427
 5831TIP3    H138908   0.511   2.619   3.297 -1.2950 -0.6045 -0.4135
 5831TIP3    H238909   0.470   2.738   3.213  0.2239  0.8964  0.9292
 5832TIP3   OH238910   4.860   2.012  12.500  0.0479  0.2115  0.3988
 5832TIP3    H138911   4.852   1.917  12.497  1.0985  0.1080  0.6972
 5832TIP3    H238912   4.857   2.040  12.409  1.7075 -0.2857  0.1818
 5833TIP3   OH238913   2.037   0.738   4.418  0.6323  0.8260  0.1853
 5833TIP3    H138914   2.021   0.775   4.505  0.6707  0.6387  0.2734
 5833TIP3    H238915   1.997   0.800   4.358 -0.6653  0.2361  0.4202
 5834TIP3   OH238916   0.729   4.957  11.863  0.0292 -0.3170  0.4096
 5834TIP3    H138917   0.676   4.994  11.793  1.2276  0.5602 -0.0552
 5834TIP3    H238918   0.771   4.881  11.822  1.2731  0.6020 -0.0449
 5835TIP3   OH238919   3.450   6.333   4.680  0.4752  0.1027 -0.0782
 5835TIP3    H138920   3.511   6.393   4.722 -2.5124  1.1335  3.1034
 5835TIP3    H238921   3.410   6.384   4.609 -0.8562  1.4218  1.5682
 5836TIP3   OH238922   4.668   1.601  13.148 -0.5912  0.1565  0.2500
 5836TIP3    H138923   4.727   1.671  13.176 -2.4594  1.0747  2.0786
 5836TIP3    H238924   4.603   1.646  13.093 -1.3974 -0.2236  0.8732
 5837TIP3   OH238925   5.083   5.407   1.622  0.3162 -0.6525  0.1489
 5837TIP3    H138926   5.091   5.312   1.626  2.9516 -0.4137  1.9636
 5837TIP3    H238927   5.173   5.438   1.618 -0.5346  1.7630 -1.5093
 5838TIP3   OH238928   4.421   5.419  15.605 -0.6880  0.7114  0.2356
 5838TIP3    H138929   4.389   5.381  15.687  0.1822 -1.0415 -0.2271
 5838TIP3    H238930   4.445   5.509  15.629 -2.7107  1.0020  1.3470
 5839TIP3   OH238931   1.686   0.114  12.794  0.1607  0.1535 -0.3077
 5839TIP3    H138932   1.735   0.037  12.764  1.9131  1.1307 -0.0274
 5839TIP3    H238933   1.753   0.171  12.833 -1.2901  1.3102  0.5134
 5840TIP3   OH238934   1.268   2.930  14.341  0.0959 -0.0754 -0.4470
 5840TIP3    H138935   1.310   2.846  14.361  0.6343  0.2959  0.0101
 5840TIP3    H238936   1.338   2.983  14.302  0.3598  0.9268  1.3220
 5841TIP3   OH238937   2.253   5.846   3.790 -0.3951  0.4623  0.2175
 5841TIP3    H138938   2.199   5.909   3.836 -0.1431  0.3924  0.6155
 5841TIP3    H238939   2.191   5.786   3.749 -0.6319  0.9896 -0.1906
 5842TIP3   OH238940   0.550   1.479   2.142  0.1772  0.0570 -0.0558
 5842TIP3    H138941   0.484   1.416   2.171 -0.1414 -0.1647 -1.2548
 5842TIP3    H238942   0.605   1.493   2.219 -0.2808 -1.0088  0.4708
 5843TIP3   OH238943   5.950   5.376   4.214  0.7462 -0.3570 -0.2848
 5843TIP3    H138944   5.882   5.313   4.189  0.6172 -0.4563  0.3059
 5843TIP3    H238945   6.005   5.329   4.276  0.8468  0.0102 -0.0936
 5844TIP3   OH238946   5.505   0.449  14.631  0.3691 -0.0882 -0.1037
 5844TIP3    H138947   5.473   0.492  14.552 -1.3978 -0.6244  0.2983
 5844TIP3    H238948   5.432   0.455  14.693  2.0280  1.0948  1.8049
 5845TIP3   OH238949   1.240   2.273  13.078  0.1005 -0.4184  0.0212
 5845TIP3    H138950   1.239   2.256  13.172  2.7208  0.6995  0.2887
 5845TIP3    H238951   1.200   2.360  13.070 -3.1485 -1.8540 -0.2804
 5846TIP3   OH238952   1.564   3.578   4.047 -0.2647  0.3093 -0.8788
 5846TIP3    H138953   1.631   3.530   3.999  0.3861  0.8285 -0.4940
 5846TIP3    H238954   1.596   3.668   4.051  0.5431 -0.0486  2.0312
 5847TIP3   OH238955   3.567   2.358  15.869  0.0885 -0.1596 -0.1846
 5847TIP3    H138956   3.484   2.332  15.828  0.5228 -1.9338  0.0066
 5847TIP3    H238957   3.607   2.418  15.806 -0.6396 -0.4820 -0.9711
 5848TIP3   OH238958   2.414   3.397  15.070 -0.2602  0.0934 -0.7280
 5848TIP3    H138959   2.448   3.416  14.983  1.4790  1.8667  0.2911
 5848TIP3    H238960   2.450   3.467  15.126  1.0872 -2.6171  1.9682
 5849TIP3   OH238961   6.617   1.301   0.424  0.3603  0.1920  0.2807
 5849TIP3    H138962   6.670   1.253   0.487 -0.9078 -1.8447 -0.1811
 5849TIP3    H238963   6.529   1.264   0.432 -0.7913  2.7660  0.2465
 5850TIP3   OH238964   6.701   4.621  13.022 -0.2075 -0.3082  0.1973
 5850TIP3    H138965   6.605   4.620  13.018 -0.1849  0.0223 -0.4901
 5850TIP3    H238966   6.721   4.599  13.113 -0.9630  0.7595  0.6364
 5851TIP3   OH238967   0.410   4.479  13.929 -0.1938 -0.0102 -0.0895
 5851TIP3    H138968   0.462   4.437  13.998 -1.0896 -0.4573  0.3226
 5851TIP3    H238969   0.378   4.559  13.970 -1.9080 -0.9738  0.5037
 5852TIP3   OH238970   6.442   6.520   5.101 -0.5654 -0.3294  0.2466
 5852TIP3    H138971   6.361   6.553   5.139 -0.2604 -0.6959  1.2380
 5852TIP3    H238972   6.507   6.530   5.171  0.3249  0.2931 -0.6543
 5853TIP3   OH238973   0.809   5.220  11.969  0.0418 -0.1224 -0.6820
 5853TIP3    H138974   0.768   5.135  11.956 -0.3369 -0.0449  0.0108
 5853TIP3    H238975   0.736   5.282  11.974  0.3242  0.2889 -1.4868
 5854TIP3   OH238976   1.063   5.417  14.725 -0.3340  0.1626  0.3486
 5854TIP3    H138977   1.056   5.498  14.673  1.9860 -0.7643 -1.5088
 5854TIP3    H238978   0.977   5.375  14.716 -0.2175  0.3945 -2.1548
 5855TIP3   OH238979   2.287   5.341  10.942 -0.5498  0.7180 -0.4881
 5855TIP3    H138980   2.260   5.433  10.953 -0.9756  0.7399 -1.5959
 5855TIP3    H238981   2.221   5.304  10.884 -0.8721 -0.5397  0.6640
 5856TIP3   OH238982   6.280   1.368   4.074 -0.2156  0.4020 -0.3149
 5856TIP3    H138983   6.370   1.336   4.065 -0.1562  0.1729  0.9103
 5856TIP3    H238984   6.283   1.425   4.151 -1.2467 -0.1107  0.1162
 5857TIP3   OH238985   0.872   0.452   0.719 -0.3798 -0.8015  0.0259
 5857TIP3    H138986   0.854   0.514   0.790  2.1364 -1.8328  1.6396
 5857TIP3    H238987   0.825   0.373   0.743 -0.1580 -0.8991  0.1374
 5858TIP3   OH238988   0.568   2.615   5.053 -0.0183 -0.4191 -0.6744
 5858TIP3    H138989   0.537   2.528   5.079  1.6055 -0.7717  0.2023
 5858TIP3    H238990   0.490   2.670   5.052 -0.9975 -1.7979 -0.8402
 5859TIP3   OH238991   5.133   1.083   2.402 -0.2101  0.1767  0.3041
 5859TIP3    H138992   5.194   1.120   2.338 -2.1682  1.5694 -0.7921
 5859TIP3    H238993   5.059   1.053   2.350 -0.8426 -0.7549  1.7048
 5860TIP3   OH238994   5.300   1.676  13.516  0.2749  0.1488 -0.0879
 5860TIP3    H138995   5.395   1.684  13.524  0.7911 -3.9297 -0.6968
 5860TIP3    H238996   5.279   1.594  13.560 -2.7922  0.3491 -1.0344
 5861TIP3   OH238997   3.104   2.668  17.211 -0.1536  0.2236 -0.7719
 5861TIP3    H138998   3.197   2.659  17.229 -0.3228  1.0378  0.6256
 5861TIP3    H238999   3.096   2.656  17.116  1.2939 -0.3672 -0.8246
 5862TIP3   OH239000   1.660   6.298   5.614 -0.8310  0.3287 -0.1493
 5862TIP3    H139001   1.666   6.387   5.649  1.2764 -0.1825  0.8788
 5862TIP3    H239002   1.609   6.307   5.534 -4.2125  1.8096  2.0635
 5863TIP3   OH239003   5.426   3.090  16.974  0.0016 -0.6490 -0.4535
 5863TIP3    H139004   5.458   3.037  16.902 -1.7213 -1.9674 -0.2919
 5863TIP3    H239005   5.377   3.161  16.932 -0.5095 -1.0879 -0.6076
 5864TIP3   OH239006   4.733   4.022   3.269  1.1368  0.0331 -0.2192
 5864TIP3    H139007   4.694   3.936   3.257  0.6379  0.1277  0.7009
 5864TIP3    H239008   4.672   4.083   3.227 -0.1173  0.2628  1.8999
 5865TIP3   OH239009   0.652   0.823  11.721  0.1353 -0.7898  0.4279
 5865TIP3    H139010   0.733   0.873  11.713 -0.2445 -0.1631  0.4641
 5865TIP3    H239011   0.593   0.863  11.657  0.3246 -2.1843 -0.6396
 5866TIP3   OH239012   0.663   4.980   0.997 -0.2061  0.1273  0.0334
 5866TIP3    H139013   0.606   4.903   1.005 -1.0251  0.7819  0.4499
 5866TIP3    H239014   0.702   4.971   0.910  0.3115 -1.1779  0.3821
 5867TIP3   OH239015   3.014   4.040   6.290 -0.4208  0.1193  0.3721
 5867TIP3    H139016   3.092   4.025   6.344 -0.8031 -2.0515  0.3749
 5867TIP3    H239017   2.943   4.052   6.352 -0.2822  1.0100  0.3622
 5868TIP3   OH239018   5.848   6.278   2.723  0.1469  0.1137  0.0087
 5868TIP3    H139019   5.771   6.251   2.673 -0.1142  0.2982  0.3112
 5868TIP3    H239020   5.892   6.342   2.668 -0.0323  0.1699 -0.0682
 5869TIP3   OH239021   2.303   1.267   0.705 -0.0781  0.8823 -0.3180
 5869TIP3    H139022   2.308   1.204   0.634  0.3739  1.0562 -0.4401
 5869TIP3    H239023   2.228   1.238   0.758  1.8818 -1.4716  1.2616
 5870TIP3   OH239024   2.008   4.888   1.979  0.0412  0.6024 -0.4468
 5870TIP3    H139025   2.008   4.859   2.070 -0.9923  1.5639 -0.1342
 5870TIP3    H239026   1.926   4.855   1.942  1.7880 -2.3259 -1.8779
 5871TIP3   OH239027   1.527   3.254  11.488  0.2708 -0.0012  0.6113
 5871TIP3    H139028   1.464   3.304  11.539  1.5517  0.8143  1.4335
 5871TIP3    H239029   1.595   3.318  11.465  0.5558 -0.7465 -0.6659
 5872TIP3   OH239030   1.152   1.220  16.970  0.1968  0.8441 -0.1662
 5872TIP3    H139031   1.075   1.252  16.922 -0.0048  0.7911  0.1245
 5872TIP3    H239032   1.140   1.252  17.059 -0.5542 -0.9657  0.3953
 5873TIP3   OH239033   5.186   6.467   3.826 -0.3732  0.3484  0.5490
 5873TIP3    H139034   5.180   6.402   3.896 -0.8197  0.9018  1.0339
 5873TIP3    H239035   5.190   6.551   3.872 -0.6008  0.7100 -0.0876
 5874TIP3   OH239036   0.301   1.865  15.236 -0.0348  0.0671 -0.6815
 5874TIP3    H139037   0.354   1.944  15.224 -0.5104  0.4986 -0.0180
 5874TIP3    H239038   0.251   1.882  15.316  1.9733 -2.1022  1.0969
 5875TIP3   OH239039   4.418   1.489  12.662 -0.4741 -0.7027  0.0961
 5875TIP3    H139040   4.411   1.411  12.718  2.3931 -1.6578 -0.7720
 5875TIP3    H239041   4.508   1.519  12.675 -0.8821  1.1662 -1.2876
 5876TIP3   OH239042   5.706   3.610  15.045 -0.0710 -0.4722 -0.3512
 5876TIP3    H139043   5.653   3.633  15.122 -0.3041 -2.1178 -0.0212
 5876TIP3    H239044   5.765   3.685  15.035 -0.8031  0.2829  0.7432
 5877TIP3   OH239045   5.296   4.510  14.177  0.0921 -0.2978 -0.1638
 5877TIP3    H139046   5.321   4.436  14.122 -0.0651 -1.0154  0.7190
 5877TIP3    H239047   5.240   4.564  14.121 -0.0494 -1.0090 -0.7163
 5878TIP3   OH239048   4.644   4.696  15.282 -0.5024 -0.1315  0.1045
 5878TIP3    H139049   4.587   4.671  15.209 -0.4079 -0.0483  0.0021
 5878TIP3    H239050   4.717   4.743  15.241  1.6450 -3.5495 -0.2330
 5879TIP3   OH239051   1.562   0.955   1.774 -0.4267 -0.0226  0.5142
 5879TIP3    H139052   1.566   0.922   1.864 -0.7750 -0.1339  0.4905
 5879TIP3    H239053   1.471   0.983   1.764 -0.5181 -0.4939  0.0241
 5880TIP3   OH239054   5.724   5.880   5.116  0.1899  0.0334 -0.1132
 5880TIP3    H139055   5.697   5.937   5.045 -0.4574 -0.9879 -0.7028
 5880TIP3    H239056   5.643   5.860   5.163 -0.0980 -2.8883 -1.7642
 5881TIP3   OH239057   4.536   1.405   5.870  0.5716  0.0055 -0.2755
 5881TIP3    H139058   4.507   1.327   5.823 -1.2717  0.1367  0.5979
 5881TIP3    H239059   4.630   1.409   5.855  0.2673 -0.9015 -2.5128
 5882TIP3   OH239060   5.035   2.644  15.301 -0.1581 -0.9844  0.6434
 5882TIP3    H139061   5.047   2.729  15.344 -1.8689 -0.4793  0.1571
 5882TIP3    H239062   5.070   2.581  15.364  2.0686  0.1411  0.5911
 5883TIP3   OH239063   6.408   0.869  15.550 -0.7391  0.3652  0.1969
 5883TIP3    H139064   6.348   0.882  15.477  1.4174 -0.7410 -1.8319
 5883TIP3    H239065   6.429   0.957  15.581 -1.5583  0.8457 -0.5943
 5884TIP3   OH239066   3.307   2.870  11.545 -0.0738  0.0025  0.7402
 5884TIP3    H139067   3.297   2.964  11.556 -0.7682  0.1516 -0.9290
 5884TIP3    H239068   3.229   2.843  11.496 -0.0573 -1.5023  1.4926
 5885TIP3   OH239069   1.107   1.675   4.660 -0.1369  0.1675  0.0488
 5885TIP3    H139070   1.103   1.587   4.697 -0.2600 -0.3445 -1.1857
 5885TIP3    H239071   1.018   1.710   4.672  0.0228  0.3010  0.9271
 5886TIP3   OH239072   2.726   4.464   5.266  0.1708  0.4410 -0.3293
 5886TIP3    H139073   2.651   4.469   5.326 -0.0817  0.7677 -0.6742
 5886TIP3    H239074   2.790   4.524   5.304  0.5486 -0.4015  0.3746
 5887TIP3   OH239075   0.424   2.126  11.195 -0.1056  0.3457 -0.2637
 5887TIP3    H139076   0.408   2.218  11.215 -0.7263 -0.0702  1.2028
 5887TIP3    H239077   0.453   2.126  11.104 -2.1069  1.7816 -0.9345
 5888TIP3   OH239078   4.739   5.171   0.165  0.4489  0.3173  0.0664
 5888TIP3    H139079   4.805   5.225   0.209 -0.2835  2.4246 -1.3330
 5888TIP3    H239080   4.786   5.092   0.137  2.1747  1.3959 -0.1406
 5889TIP3   OH239081   0.795   3.120   0.664  0.4121 -0.4796  0.1416
 5889TIP3    H139082   0.858   3.048   0.657  0.3388 -0.5845  0.5156
 5889TIP3    H239083   0.790   3.138   0.758  0.1359 -0.2467  0.0834
 5890TIP3   OH239084   2.714   0.518   0.865  0.5941 -0.6751  0.2543
 5890TIP3    H139085   2.797   0.511   0.912  1.0208 -0.9793 -0.5348
 5890TIP3    H239086   2.720   0.600   0.817 -0.6072  0.5729  2.1787
 5891TIP3   OH239087   2.254   6.549  12.516 -0.0404  0.0389  0.3573
 5891TIP3    H139088   2.195   6.473  12.516  0.1572 -0.1161  0.6319
 5891TIP3    H239089   2.196   6.624  12.531 -0.0881 -0.1778  1.2871
 5892TIP3   OH239090   6.787   6.552  14.826 -0.2507 -0.0624 -0.0653
 5892TIP3    H139091   6.706   6.505  14.847  0.5880 -0.8782  1.3906
 5892TIP3    H239092   6.842   6.487  14.783  0.3910 -0.0487  0.7341
 5893TIP3   OH239093   3.577   4.888  14.133 -0.2972 -0.8123 -0.2991
 5893TIP3    H139094   3.577   4.982  14.146  1.4355 -0.6476 -1.2727
 5893TIP3    H239095   3.485   4.864  14.128 -0.7787  0.6214  1.2737
 5894TIP3   OH239096   4.678   3.867  15.975 -0.0590  0.1742 -0.1471
 5894TIP3    H139097   4.722   3.912  15.902  0.4942 -0.2338 -0.0687
 5894TIP3    H239098   4.615   3.931  16.008 -0.4073  0.3217 -1.0626
 5895TIP3   OH239099   2.591   0.807   2.387 -0.4510  0.1726  0.2367
 5895TIP3    H139100   2.671   0.798   2.437 -1.3999 -1.9996  1.4146
 5895TIP3    H239101   2.619   0.807   2.295  0.9087 -0.0537  0.6489
 5896TIP3   OH239102   6.049   6.379  17.153 -0.8931 -0.4727 -0.1309
 5896TIP3    H139103   6.010   6.317  17.215 -0.5259 -0.5467  0.0216
 5896TIP3    H239104   6.053   6.461  17.201 -2.1697 -0.1124 -0.6087
 5897TIP3   OH239105   6.135   3.775   1.314  0.0271 -0.2172 -0.1516
 5897TIP3    H139106   6.176   3.689   1.302  3.1294  1.2354 -0.3386
 5897TIP3    H239107   6.159   3.800   1.403  0.4749  1.1350 -0.6484
 5898TIP3   OH239108   4.201   5.385  11.787 -0.1727 -0.0668  0.2452
 5898TIP3    H139109   4.235   5.400  11.876  1.3399  1.1095 -0.4979
 5898TIP3    H239110   4.107   5.400  11.795  0.1709  1.8411  1.3170
 5899TIP3   OH239111   4.513   1.940  10.803 -0.7931  0.5746  1.0052
 5899TIP3    H139112   4.533   1.857  10.758  0.5330  1.4228 -0.0240
 5899TIP3    H239113   4.587   1.997  10.782 -0.9488  1.5422  2.9629
 5900TIP3   OH239114   5.876   0.821   2.660  0.2404  0.1548  0.4155
 5900TIP3    H139115   5.920   0.736   2.657  0.1301  0.0827  0.9242
 5900TIP3    H239116   5.826   0.825   2.578 -1.3141 -1.1103  1.2635
 5901TIP3   OH239117   1.640   3.522   2.339 -0.3266  0.3777 -0.1480
 5901TIP3    H139118   1.561   3.491   2.294 -0.1419 -0.8175  0.3415
 5901TIP3    H239119   1.705   3.454   2.321  0.5727  1.3252 -0.4900
 5902TIP3   OH239120   5.393   0.525   1.681 -0.1619  0.5431 -0.3764
 5902TIP3    H139121   5.330   0.492   1.617  1.4269  0.5595 -1.9839
 5902TIP3    H239122   5.474   0.538   1.631  0.8452  1.4602  1.4354
 5903TIP3   OH239123   5.199   4.032   1.197  0.4274  0.9437 -0.0765
 5903TIP3    H139124   5.233   4.045   1.109  2.1497  1.2416  0.6202
 5903TIP3    H239125   5.267   3.981   1.242  0.3040  2.1799  1.5551
 5904TIP3   OH239126   4.368   3.244  12.405  0.0822 -0.8146 -0.0526
 5904TIP3    H139127   4.426   3.175  12.439  0.5447 -0.1861  0.4391
 5904TIP3    H239128   4.423   3.322  12.400 -0.9065 -0.0277  1.0918
 5905TIP3   OH239129   1.764   0.941   2.850  0.5459 -0.6623  0.0394
 5905TIP3    H139130   1.689   0.894   2.814 -0.7993  1.4940 -0.0278
 5905TIP3    H239131   1.840   0.904   2.804 -0.6921 -1.2348 -1.5806
 5906TIP3   OH239132   2.755   4.460   3.414 -0.5740 -0.2057 -0.1346
 5906TIP3    H139133   2.761   4.503   3.499 -3.4814  0.5564 -0.2495
 5906TIP3    H239134   2.746   4.366   3.435 -0.8847 -0.0618  0.3874
 5907TIP3   OH239135   2.549   0.348  15.578  0.2671  0.4355  0.2220
 5907TIP3    H139136   2.499   0.271  15.604 -0.8185  0.6957 -1.0850
 5907TIP3    H239137   2.626   0.346  15.635 -0.7148 -0.5171  1.5574
 5908TIP3   OH239138   1.264   5.830  15.549  0.2690  0.3670 -0.7025
 5908TIP3    H139139   1.312   5.783  15.480 -0.9707  1.4096 -2.3265
 5908TIP3    H239140   1.306   5.916  15.553  0.2368  0.3630 -0.2604
 5909TIP3   OH239141   2.944   2.489   2.931  0.7428 -0.1557 -0.1515
 5909TIP3    H139142   2.899   2.448   3.005  1.7663 -0.6859  0.1835
 5909TIP3    H239143   2.881   2.551   2.896  0.5510  0.7268  1.7170
 5910TIP3   OH239144   0.584   2.036   3.576 -0.1612 -0.3306  0.1268
 5910TIP3    H139145   0.674   2.026   3.606  0.3756  1.7030 -0.6786
 5910TIP3    H239146   0.574   2.131   3.564 -2.8891 -0.3783  1.6747
 5911TIP3   OH239147   1.843   4.925  13.318  0.2592 -0.1290  0.6731
 5911TIP3    H139148   1.793   4.907  13.238  1.0292  0.3605  0.0852
 5911TIP3    H239149   1.907   4.854  13.323  1.1834  0.6581  0.0654
 5912TIP3   OH239150   0.230   0.890   2.985 -0.1607  0.6191  0.1357
 5912TIP3    H139151   0.310   0.941   3.000 -0.1741  1.3605 -2.1147
 5912TIP3    H239152   0.261   0.801   2.968  0.2870  1.0785 -1.5912
 5913TIP3   OH239153   4.024   4.401  10.701 -0.8786 -0.5121  0.1169
 5913TIP3    H139154   4.013   4.424  10.794  0.2367 -0.5630  0.2664
 5913TIP3    H239155   4.085   4.467  10.668 -0.2981 -1.2525 -0.2787
 5914TIP3   OH239156   4.593   3.326  16.921  0.5833 -0.1655 -0.3793
 5914TIP3    H139157   4.593   3.273  16.841  1.7286  0.2989 -0.6952
 5914TIP3    H239158   4.566   3.265  16.990 -2.7613 -0.0156 -1.4542
 5915TIP3   OH239159   5.539   2.004  12.533  0.2513  0.5736  0.3010
 5915TIP3    H139160   5.527   1.947  12.457 -1.4996  1.2930  0.0141
 5915TIP3    H239161   5.523   1.947  12.608 -0.9644  0.5425  0.0321
 5916TIP3   OH239162   0.279   3.558   2.927 -0.1942  0.5486  0.2441
 5916TIP3    H139163   0.357   3.505   2.908  0.3567  2.0524 -1.8368
 5916TIP3    H239164   0.221   3.541   2.853 -0.7445  1.4628  0.4641
 5917TIP3   OH239165   3.813   1.080   1.199  0.2442 -1.0216 -0.4419
 5917TIP3    H139166   3.756   1.154   1.219  1.8330  0.1685 -0.2019
 5917TIP3    H239167   3.824   1.083   1.103 -0.8611 -1.8382 -0.6013
 5918TIP3   OH239168   2.346   0.330  14.570  0.2968 -0.0397  0.0986
 5918TIP3    H139169   2.349   0.253  14.513  0.9368  0.7223 -0.9240
 5918TIP3    H239170   2.300   0.396  14.519 -0.7372  0.0982  1.1875
 5919TIP3   OH239171   2.428   4.238  12.111 -0.2821  0.1512 -0.0462
 5919TIP3    H139172   2.388   4.225  12.197 -1.8533 -0.8701 -0.9027
 5919TIP3    H239173   2.431   4.333  12.100  2.8253  0.4066  2.4383
 5920TIP3   OH239174   2.507   5.826   4.774 -0.5257  0.2328  0.5983
 5920TIP3    H139175   2.583   5.857   4.724 -0.2607 -1.1695  0.1106
 5920TIP3    H239176   2.541   5.751   4.823 -1.9762 -1.3557 -0.7972
 5921TIP3   OH239177   5.387   4.916  16.627 -0.3474  0.8665  0.2284
 5921TIP3    H139178   5.412   4.892  16.538 -1.2548  1.0658 -0.0813
 5921TIP3    H239179   5.294   4.896  16.632 -0.3281  0.9738  1.0942
 5922TIP3   OH239180   1.193   1.445  14.406  0.1644  0.1659  0.6827
 5922TIP3    H139181   1.100   1.468  14.408  0.1249  0.0116  0.6278
 5922TIP3    H239182   1.194   1.350  14.393  0.3301  0.2510  0.0215
 5923TIP3   OH239183   3.606   1.610   5.426  0.4769  0.3150  0.2299
 5923TIP3    H139184   3.607   1.602   5.521 -1.0545  0.6959  0.2934
 5923TIP3    H239185   3.612   1.704   5.409 -0.7354  0.3619  0.0027
 5924TIP3   OH239186   0.783   2.685  11.618  0.2435 -0.4131  0.0156
 5924TIP3    H139187   0.766   2.700  11.711 -1.8267 -1.6547 -0.1195
 5924TIP3    H239188   0.725   2.746  11.572  0.2833 -0.7226 -0.4511
 5925TIP3   OH239189   2.768   3.867   6.675 -0.2276  0.4783 -0.1029
 5925TIP3    H139190   2.765   3.787   6.726  1.6889  1.1195  1.0663
 5925TIP3    H239191   2.687   3.914   6.698 -0.5115 -0.3138  0.5168
 5926TIP3   OH239192   5.238   3.636  16.131  0.0305  0.3063  0.1455
 5926TIP3    H139193   5.328   3.653  16.160 -0.1610  2.1505 -0.2933
 5926TIP3    H239194   5.242   3.639  16.036 -0.2662 -0.8786  0.0896
 5927TIP3   OH239195   3.834   5.308  12.994  0.0084 -0.2831  0.2486
 5927TIP3    H139196   3.879   5.310  12.910  0.7335  0.9117  0.6462
 5927TIP3    H239197   3.791   5.393  13.001 -2.1942 -1.3461 -0.0426
 5928TIP3   OH239198   5.286   4.555   1.124 -0.5307  0.2669 -0.0228
 5928TIP3    H139199   5.280   4.476   1.177 -1.3105 -0.7518 -1.5839
 5928TIP3    H239200   5.299   4.523   1.035 -1.4996  1.8789 -0.7654
 5929TIP3   OH239201   0.084   0.758  16.395 -0.1811 -0.0711  0.2210
 5929TIP3    H139202   0.147   0.754  16.467 -1.0642  1.2059  1.0907
 5929TIP3    H239203  -0.001   0.763  16.439 -0.8998 -1.7880 -0.9353
 5930TIP3   OH239204   3.459   6.410  12.508  0.0496 -0.3435  0.6378
 5930TIP3    H139205   3.508   6.473  12.457  0.1577 -0.0805  1.0631
 5930TIP3    H239206   3.404   6.364  12.444 -0.5890  0.6950  0.4259
 5931TIP3   OH239207   0.898   2.250   5.932 -0.3612 -0.2244 -0.1366
 5931TIP3    H139208   0.927   2.245   5.841 -0.7230 -2.2951 -0.1681
 5931TIP3    H239209   0.847   2.170   5.945  0.3617 -0.3489  2.1279
 5932TIP3   OH239210   6.476   5.055  11.814  0.3048 -0.0946 -0.5854
 5932TIP3    H139211   6.569   5.038  11.805  0.2843 -0.2789 -0.4409
 5932TIP3    H239212   6.463   5.073  11.907  0.2366  0.1695 -0.6430
 5933TIP3   OH239213   3.158   1.251   3.551 -0.3054 -0.1791 -0.0754
 5933TIP3    H139214   3.131   1.324   3.607  2.0722  0.3506  0.4532
 5933TIP3    H239215   3.114   1.175   3.588 -1.1204  0.6601  0.6992
 5934TIP3   OH239216   3.346   2.850   4.825 -0.1100 -0.3423  0.7275
 5934TIP3    H139217   3.293   2.923   4.795  0.7773 -0.0799 -0.2028
 5934TIP3    H239218   3.397   2.886   4.898 -0.4972 -0.3356  0.9951
 5935TIP3   OH239219   2.930   5.766   5.745  0.3959 -0.2868 -0.0647
 5935TIP3    H139220   2.890   5.787   5.829  0.9357 -2.2668  0.7326
 5935TIP3    H239221   2.915   5.843   5.690  0.2469  1.1124  1.9138
 5936TIP3   OH239222   1.669   3.232  13.791 -0.8802 -0.5591  0.2181
 5936TIP3    H139223   1.700   3.144  13.813 -0.7874 -0.6849 -0.4066
 5936TIP3    H239224   1.647   3.227  13.698 -0.8405  0.0917  0.1724
 5937TIP3   OH239225   4.427   4.025  15.430 -0.3537  0.4181  0.4001
 5937TIP3    H139226   4.457   3.968  15.501 -0.7446 -1.1777 -0.6840
 5937TIP3    H239227   4.505   4.040  15.377 -0.1802  1.1702  0.8607
 5938TIP3   OH239228   3.997   5.048  15.755  0.0444 -0.8663  0.3773
 5938TIP3    H139229   4.039   5.084  15.676  1.2806  0.0682  1.4490
 5938TIP3    H239230   3.949   4.971  15.723 -0.6386  0.3109 -1.5317
 5939TIP3   OH239231   0.839   2.781  15.813 -0.1863  0.2324  0.1970
 5939TIP3    H139232   0.812   2.720  15.882 -0.7938  0.2476 -0.0185
 5939TIP3    H239233   0.760   2.791  15.759  0.2038  0.4388 -0.3327
 5940TIP3   OH239234   6.553   3.703  11.868  0.6400 -0.4561 -0.1885
 5940TIP3    H139235   6.642   3.720  11.899  2.5635 -1.6185 -4.6343
 5940TIP3    H239236   6.523   3.786  11.832  0.4664 -0.3982  0.0921
 5941TIP3   OH239237   4.296   2.608  10.380 -1.3062  0.4198  0.9137
 5941TIP3    H139238   4.258   2.522  10.363  0.9287 -0.3330 -0.4735
 5941TIP3    H239239   4.342   2.598  10.464 -2.0831  0.6271  1.3677
 5942TIP3   OH239240   4.463   6.474   4.351 -0.6543  0.2491 -0.3785
 5942TIP3    H139241   4.553   6.502   4.364 -0.4180 -0.0824 -1.2335
 5942TIP3    H239242   4.471   6.391   4.303 -1.3474 -0.9926  1.6146
 5943TIP3   OH239243   3.193   0.569  13.992  0.5165  0.5131  0.6089
 5943TIP3    H139244   3.201   0.630  14.066 -1.1243  2.7435 -0.9756
 5943TIP3    H239245   3.102   0.578  13.963  1.0487 -0.5329 -1.5169
 5944TIP3   OH239246   3.859   3.010  14.187 -0.1096  0.3830 -0.1421
 5944TIP3    H139247   3.774   3.048  14.165 -0.8165 -0.1934  1.5294
 5944TIP3    H239248   3.922   3.059  14.133 -1.6855 -0.5626 -2.9106
 5945TIP3   OH239249   5.869   2.670   4.998  0.0260  0.8720  0.0768
 5945TIP3    H139250   5.943   2.691   5.055 -0.3602  1.1984  0.4594
 5945TIP3    H239251   5.837   2.586   5.031  0.1931  0.7549 -0.0573
 5946TIP3   OH239252   5.934   5.451  11.917 -0.5795  0.7953  0.2136
 5946TIP3    H139253   5.924   5.506  11.839 -1.1504  2.5173  1.4661
 5946TIP3    H239254   5.845   5.440  11.951 -0.2919  0.4676  0.8779
 5947TIP3   OH239255   3.418   0.805  14.555  0.4563 -0.2138  0.1434
 5947TIP3    H139256   3.416   0.900  14.559  2.3160 -0.1481 -0.1888
 5947TIP3    H239257   3.468   0.785  14.476 -0.9688 -1.4772 -0.4700
 5948TIP3   OH239258   4.911   1.674   0.440 -0.0164  0.2090 -0.1218
 5948TIP3    H139259   4.887   1.728   0.364  0.3678  0.4789 -0.0550
 5948TIP3    H239260   4.933   1.589   0.403 -0.0061  0.2857 -0.2949
 5949TIP3   OH239261   6.000   4.816   1.694 -0.4122 -0.3648  0.0864
 5949TIP3    H139262   6.023   4.760   1.769  2.9270 -0.1081 -0.6599
 5949TIP3    H239263   5.999   4.905   1.730 -1.5901 -0.4969  0.3963
 5950TIP3   OH239264   4.868   1.851   1.997  0.1362 -0.1859  0.1213
 5950TIP3    H139265   4.934   1.885   1.937 -1.0995  2.9936  0.4646
 5950TIP3    H239266   4.905   1.863   2.084 -1.1241  2.3497  0.3637
 5951TIP3   OH239267   0.514   2.361  15.564 -0.1279 -0.5466 -0.0816
 5951TIP3    H139268   0.575   2.351  15.637  1.6339 -0.2384 -1.4735
 5951TIP3    H239269   0.454   2.287  15.571  0.0411 -0.5228  1.6603
 5952TIP3   OH239270   5.490   6.592   4.404 -0.0948  0.4420 -0.6529
 5952TIP3    H139271   5.466   6.570   4.494 -0.5700  0.7907 -0.6953
 5952TIP3    H239272   5.570   6.542   4.388 -0.2278  0.0702 -0.1714
 5953TIP3   OH239273   1.131   0.170  10.632 -0.2035  0.1795  0.3093
 5953TIP3    H139274   1.156   0.258  10.603 -0.0658  0.6041  1.6898
 5953TIP3    H239275   1.154   0.113  10.559  1.3043  1.0621  0.0842
 5954TIP3   OH239276   5.890   2.760   1.072  0.4794 -0.1169 -0.2344
 5954TIP3    H139277   5.888   2.709   0.991 -1.2546 -0.9817  0.3308
 5954TIP3    H239278   5.909   2.849   1.044 -1.1398 -0.2101 -1.7111
 5955TIP3   OH239279   1.936   3.748  12.899 -0.2023  0.2208 -0.2616
 5955TIP3    H139280   1.990   3.826  12.888 -1.7639  1.3286 -0.2824
 5955TIP3    H239281   1.920   3.718  12.809  0.8138 -0.4293 -0.2332
 5956TIP3   OH239282   1.897   0.429  12.174 -0.6098 -0.2899  0.3397
 5956TIP3    H139283   1.827   0.365  12.161 -0.0536 -0.5907 -1.2083
 5956TIP3    H239284   1.901   0.441  12.269 -1.6762 -1.4751  0.5419
 5957TIP3   OH239285   0.214   5.767   6.494  0.1062 -0.0794 -0.7131
 5957TIP3    H139286   0.162   5.743   6.571 -0.8101  0.4950 -1.1574
 5957TIP3    H239287   0.292   5.711   6.501 -0.9841 -1.6293 -0.5506
 5958TIP3   OH239288   5.741   3.603  16.024 -0.1569 -0.2912 -0.5049
 5958TIP3    H139289   5.752   3.509  16.028  1.0666 -0.1296  0.0854
 5958TIP3    H239290   5.646   3.616  16.017 -0.3884 -1.5355  0.2641
 5959TIP3   OH239291   6.045   6.475  16.261 -0.2744  0.2433 -0.3744
 5959TIP3    H139292   6.106   6.489  16.333  0.6394 -3.6432 -0.3020
 5959TIP3    H239293   6.068   6.544  16.198  0.1974  2.4912  2.1475
 5960TIP3   OH239294   0.351   0.338  13.970  0.0542  0.1944  0.4079
 5960TIP3    H139295   0.412   0.378  13.908 -1.0352  0.9914 -0.1702
 5960TIP3    H239296   0.358   0.391  14.049 -1.4760  1.6478 -0.3981
 5961TIP3   OH239297   0.919   1.652  15.431  0.1428 -0.4157 -0.4448
 5961TIP3    H139298   0.887   1.571  15.471 -2.0113  0.8804  0.5251
 5961TIP3    H239299   0.850   1.677  15.370  0.8668  0.6209 -0.8437
 5962TIP3   OH239300   3.636   3.338  16.896 -0.2315 -0.1953 -0.0912
 5962TIP3    H139301   3.689   3.280  16.951 -0.0427  0.9293  0.9288
 5962TIP3    H239302   3.560   3.360  16.949  0.3382  1.5279  0.0551
 5963TIP3   OH239303   3.096   0.062   3.276  0.4798  0.2458  0.4376
 5963TIP3    H139304   3.081  -0.012   3.335 -2.2824 -0.9920 -1.6916
 5963TIP3    H239305   3.033   0.128   3.304  1.2168  0.8110  0.7589
 5964TIP3   OH239306   1.896   0.579   1.331  0.5844 -0.0711  0.4831
 5964TIP3    H139307   1.922   0.506   1.276 -0.9028 -1.7604  1.9745
 5964TIP3    H239308   1.977   0.609   1.371  1.5328  0.5578 -1.8197
 5965TIP3   OH239309   4.194   4.742  15.285 -0.0477 -0.0017 -0.3492
 5965TIP3    H139310   4.261   4.691  15.239  0.3470 -0.1214  0.3532
 5965TIP3    H239311   4.173   4.690  15.363 -0.6306  0.2561 -0.3272
 5966TIP3   OH239312   2.485   5.741   4.452  0.0093  0.0567  0.1366
 5966TIP3    H139313   2.508   5.659   4.409 -0.0509 -0.5747  1.3000
 5966TIP3    H239314   2.426   5.716   4.523 -1.6560  1.3122 -0.7556
 5967TIP3   OH239315   4.142   6.123  10.968  0.3516  0.1905  0.0950
 5967TIP3    H139316   4.078   6.115  10.897  0.5616  1.1105 -0.2090
 5967TIP3    H239317   4.226   6.137  10.924  0.3637  1.5702  0.5177
 5968TIP3   OH239318   2.245   5.010   2.405 -0.8050  0.2179  0.4179
 5968TIP3    H139319   2.187   5.050   2.341 -0.6278  0.5425  0.4593
 5968TIP3    H239320   2.294   5.083   2.442 -0.0444 -0.1038  0.0512
 5969TIP3   OH239321   0.491   2.271  13.305 -0.1857 -1.0804 -0.4240
 5969TIP3    H139322   0.577   2.306  13.328 -1.0732  0.1148  1.1622
 5969TIP3    H239323   0.510   2.192  13.255  1.8493  0.2751 -1.8603
 5970TIP3   OH239324   0.869   1.368  15.635 -0.1298  0.2663 -0.0058
 5970TIP3    H139325   0.840   1.336  15.550  0.6591 -0.7676  0.0994
 5970TIP3    H239326   0.905   1.291  15.678  1.0861  1.1446  0.5679
 5971TIP3   OH239327   3.758   4.604   0.555 -0.1838  0.0692 -0.2468
 5971TIP3    H139328   3.722   4.634   0.471 -1.2044  0.5928  0.3647
 5971TIP3    H239329   3.707   4.526   0.576 -1.0941  0.8974  0.6950
 5972TIP3   OH239330   4.677   5.361  11.296 -0.1651  0.1044 -0.0716
 5972TIP3    H139331   4.720   5.276  11.306 -0.4909  0.0112  0.5499
 5972TIP3    H239332   4.584   5.340  11.288 -0.3457  0.4685  1.0995
 5973TIP3   OH239333   4.006   5.981   6.295 -0.6156 -0.3009 -0.0576
 5973TIP3    H139334   4.025   6.072   6.273  0.1970  0.1142  2.1786
 5973TIP3    H239335   3.927   5.986   6.350  0.7719 -0.6790  2.0292
 5974TIP3   OH239336   4.823   4.837   0.340  0.4265 -0.4114  0.1178
 5974TIP3    H139337   4.737   4.814   0.374  0.5829 -0.0271  0.7962
 5974TIP3    H239338   4.810   4.851   0.246 -0.5009  0.8865  0.4341
 5975TIP3   OH239339   4.531   1.242   3.443 -0.0988  0.2079  0.5201
 5975TIP3    H139340   4.614   1.269   3.483  0.0253 -0.3575  0.6469
 5975TIP3    H239341   4.556   1.170   3.384 -0.4160  0.4110  0.1383
 5976TIP3   OH239342   0.509   0.281   2.393  0.3225  0.2890 -0.3862
 5976TIP3    H139343   0.602   0.260   2.396  1.0912  3.4150 -0.4944
 5976TIP3    H239344   0.479   0.268   2.483  0.1997 -3.2614 -0.8686
 5977TIP3   OH239345   3.301   3.838   2.889 -0.6857 -0.0296  0.8997
 5977TIP3    H139346   3.218   3.886   2.889 -0.1333  0.9392  0.1797
 5977TIP3    H239347   3.344   3.864   2.971  0.5193  2.3323 -0.4328
 5978TIP3   OH239348   1.986   1.150  12.528  0.3121 -0.2331  0.5475
 5978TIP3    H139349   1.957   1.221  12.586 -0.1079 -1.3342  1.7262
 5978TIP3    H239350   1.925   1.079  12.546  0.6019 -0.8249 -0.7799
 5979TIP3   OH239351   0.992   3.543   5.975  0.1994  0.9214  0.1695
 5979TIP3    H139352   0.960   3.468   6.025  1.9263  1.5583  2.3122
 5979TIP3    H239353   0.918   3.603   5.970 -0.5480  0.0093  0.3339
 5980TIP3   OH239354   2.818   2.584  12.524  0.2214 -0.0940  0.5306
 5980TIP3    H139355   2.884   2.517  12.542  0.2911 -0.2401 -0.2445
 5980TIP3    H239356   2.766   2.548  12.452 -0.5901  0.1027  1.0066
 5981TIP3   OH239357   2.535   0.712  15.722 -0.2397  0.3432 -0.0425
 5981TIP3    H139358   2.505   0.781  15.663  1.3773  1.1171  0.0200
 5981TIP3    H239359   2.540   0.634  15.668 -0.9320  0.5404 -0.3949
 5982TIP3   OH239360   6.267   1.040  17.214 -0.1313  0.6642  0.3342
 5982TIP3    H139361   6.277   0.962  17.269 -0.6475  1.0777  1.0149
 5982TIP3    H239362   6.193   1.087  17.252  0.8175  2.0112  0.5366
 5983TIP3   OH239363   4.524   0.050  11.384  0.0609 -0.0133 -0.2452
 5983TIP3    H139364   4.463   0.011  11.447  0.4882  2.1322  1.5866
 5983TIP3    H239365   4.609   0.045  11.427  1.0079 -1.7616 -2.2196
 5984TIP3   OH239366   3.455   4.805  11.396  0.0143 -0.3596  0.0782
 5984TIP3    H139367   3.368   4.836  11.419 -1.8867 -2.8665 -3.2883
 5984TIP3    H239368   3.448   4.709  11.399  3.0586 -0.6240  1.0010
 5985TIP3   OH239369   1.778   4.180  14.306  0.0114 -0.5225 -0.7186
 5985TIP3    H139370   1.866   4.154  14.279  0.0773 -1.2665  0.2368
 5985TIP3    H239371   1.784   4.193  14.400 -0.7267  0.1436 -0.7583
 5986TIP3   OH239372   0.383   6.297   5.076  0.6007  0.1443  0.1113
 5986TIP3    H139373   0.288   6.297   5.074  0.5860 -0.8178  0.6955
 5986TIP3    H239374   0.407   6.388   5.056 -0.3498 -0.2531 -3.1830
 5987TIP3   OH239375   3.272   2.679   2.953 -0.2350 -0.3677  0.5909
 5987TIP3    H139376   3.180   2.676   2.930  0.1453  0.2512 -1.0685
 5987TIP3    H239377   3.283   2.760   3.003 -0.3705  0.1362 -0.1999
 5988TIP3   OH239378   6.619   4.577   6.159  0.6035  0.3433  0.1143
 5988TIP3    H139379   6.603   4.649   6.098 -0.4539 -0.2119 -0.2622
 5988TIP3    H239380   6.537   4.528   6.161  1.6593 -1.4740 -0.4331
 5989TIP3   OH239381   2.473   3.539   3.872 -0.2984  0.4277 -0.9168
 5989TIP3    H139382   2.412   3.538   3.798 -1.0874 -1.7594 -0.2753
 5989TIP3    H239383   2.417   3.548   3.949  0.2634 -0.4579 -0.3989
 5990TIP3   OH239384   0.727   1.775   3.134 -0.5428  0.0410 -0.8426
 5990TIP3    H139385   0.651   1.818   3.175  0.0708  0.3498 -0.0126
 5990TIP3    H239386   0.760   1.716   3.202  0.1419  0.1392 -1.0924
 5991TIP3   OH239387   0.262   5.314   1.189  0.4228  0.4758  0.2417
 5991TIP3    H139388   0.318   5.241   1.213 -0.5734  0.2206  1.8538
 5991TIP3    H239389   0.196   5.276   1.130  2.4797  0.9760 -2.4859
 5992TIP3   OH239390   2.214   2.141   3.753 -0.5210  0.2808 -0.2643
 5992TIP3    H139391   2.248   2.052   3.756 -1.1841 -0.0413 -1.8879
 5992TIP3    H239392   2.147   2.143   3.821  0.6427  0.0541  0.9226
 5993TIP3   OH239393   4.034   2.322   0.764  0.0532  0.0295 -0.4484
 5993TIP3    H139394   4.060   2.321   0.672 -2.0445 -0.5048 -1.0700
 5993TIP3    H239395   4.009   2.231   0.783  0.4450  0.1373  0.6487
 5994TIP3   OH239396   0.080   4.846   1.396 -0.2878  0.3729 -0.4412
 5994TIP3    H139397   0.139   4.831   1.470  0.1543 -0.6061 -0.9785
 5994TIP3    H239398   0.011   4.902   1.431 -1.5532 -2.2658  1.4664
 5995TIP3   OH239399   2.332   6.714  11.931 -0.1975 -0.4584  0.1118
 5995TIP3    H139400   2.250   6.705  11.981 -1.1229  0.1886 -1.2545
 5995TIP3    H239401   2.332   6.805  11.901  0.6076 -0.6938 -0.6246
 5996TIP3   OH239402   2.499   4.767   5.437 -0.1767 -0.5382 -0.3340
 5996TIP3    H139403   2.411   4.798   5.413 -0.6118 -0.7535  0.9595
 5996TIP3    H239404   2.487   4.723   5.521  1.2418 -0.2275  0.0460
 5997TIP3   OH239405   4.679   1.924  17.203 -0.6201 -0.2611 -0.1089
 5997TIP3    H139406   4.750   1.879  17.250 -0.5219  0.0297  0.0198
 5997TIP3    H239407   4.709   2.014  17.195 -1.5902  0.1888  1.1938
 5998TIP3   OH239408   3.853   2.089   2.531  0.1870  0.1436  0.3143
 5998TIP3    H139409   3.898   2.059   2.610 -0.9822 -0.4830  0.7522
 5998TIP3    H239410   3.847   2.184   2.542  1.1881  0.2062  0.3552
 5999TIP3   OH239411   6.386   5.303   2.524  0.4660 -0.2182 -0.2153
 5999TIP3    H139412   6.348   5.331   2.441  1.4230 -1.6871 -1.1676
 5999TIP3    H239413   6.428   5.220   2.505  0.2499 -0.8408  1.8779
 6000TIP3   OH239414   2.422   1.185  15.273  0.5821 -0.0680 -0.0501
 6000TIP3    H139415   2.461   1.143  15.196  1.0409 -1.2153  0.7831
 6000TIP3    H239416   2.354   1.124  15.302 -2.5457  2.3449 -2.0342
 6001TIP3   OH239417   3.604   6.304   1.906  0.0334  0.4804  0.3786
 6001TIP3    H139418   3.517   6.343   1.906 -0.2401  0.0128 -2.7963
 6001TIP3    H239419   3.663   6.378   1.893 -0.0451  0.5152  0.2249
 6002TIP3   OH239420   5.330   5.076  13.974 -0.7576  0.5748  0.7839
 6002TIP3    H139421   5.340   5.048  14.065  3.8274  1.2825  0.6038
 6002TIP3    H239422   5.311   4.996  13.926 -0.9003 -0.1657  2.0477
 6003TIP3   OH239423   0.200   2.530   2.859  0.1380  0.2267 -0.1634
 6003TIP3    H139424   0.158   2.578   2.787 -0.8795  0.2440  0.4363
 6003TIP3    H239425   0.285   2.572   2.869 -0.3586  1.2737 -0.2909
 6004TIP3   OH239426   0.766   3.679   5.907 -0.8629  0.0207 -0.0233
 6004TIP3    H139427   0.796   3.761   5.869  0.8396 -0.6910 -0.2802
 6004TIP3    H239428   0.675   3.670   5.879  0.3834 -0.5818 -4.1516
 6005TIP3   OH239429   1.460   2.480   1.170 -0.0961 -0.4496  0.6895
 6005TIP3    H139430   1.555   2.489   1.179  0.0818  0.1679 -1.5621
 6005TIP3    H239431   1.449   2.432   1.088 -1.7360 -0.3959  0.8735
 6006TIP3   OH239432   0.826   4.846  13.006 -0.4607 -0.6397 -0.4039
 6006TIP3    H139433   0.903   4.849  12.949 -0.8654  0.3231 -0.9059
 6006TIP3    H239434   0.765   4.786  12.961 -0.2498 -0.9338 -0.3027
 6007TIP3   OH239435   6.335   4.868   2.286  0.5139 -0.1929  0.1258
 6007TIP3    H139436   6.326   4.774   2.300  0.1389 -0.2797 -0.6323
 6007TIP3    H239437   6.388   4.875   2.207  0.3271  0.2259  0.0333
 6008TIP3   OH239438   3.547   2.467   1.721  0.0946 -0.3994  0.0734
 6008TIP3    H139439   3.602   2.404   1.675  1.5448 -0.1319  1.4003
 6008TIP3    H239440   3.493   2.414   1.779  1.8505 -0.3923  1.7438
 6009TIP3   OH239441   3.673   3.089   4.523 -0.3563  0.0880 -0.6050
 6009TIP3    H139442   3.702   3.033   4.594 -1.9282  0.5709  0.4545
 6009TIP3    H239443   3.632   3.029   4.460  0.0125 -0.2126 -0.5570
 6010TIP3   OH239444   4.629   4.975   0.636 -0.0657  0.0680 -0.3758
 6010TIP3    H139445   4.588   5.001   0.554  1.7820 -3.2366 -2.4823
 6010TIP3    H239446   4.568   4.912   0.674 -0.0570  0.1698 -0.1980
 6011TIP3   OH239447   2.843   5.512   0.017 -0.0917  0.4836 -0.1459
 6011TIP3    H139448   2.928   5.549  -0.007  1.6438 -2.5725  0.9867
 6011TIP3    H239449   2.823   5.551   0.102  0.6524  0.4946  0.0269
 6012TIP3   OH239450   6.200   2.587   0.877  0.5822 -0.2843  0.5131
 6012TIP3    H139451   6.169   2.539   0.954 -1.6167 -0.8017 -0.6373
 6012TIP3    H239452   6.252   2.523   0.828  0.0031 -0.6548  0.3852
 6013TIP3   OH239453   5.227   1.883  11.622 -0.4002  0.6844  0.0810
 6013TIP3    H139454   5.221   1.887  11.718 -0.8054  2.7725 -0.0075
 6013TIP3    H239455   5.320   1.895  11.604 -0.2527 -0.2078  0.2202
 6014TIP3   OH239456   1.235   4.387   5.598  0.2436 -0.0803 -0.3176
 6014TIP3    H139457   1.224   4.422   5.509  0.2431 -0.9281 -0.6510
 6014TIP3    H239458   1.145   4.377   5.630  0.2252 -0.5707 -0.5290
 6015TIP3   OH239459   2.883   3.460  12.988 -0.0826 -0.4613  0.2636
 6015TIP3    H139460   2.846   3.405  12.919  0.3933 -0.9009  0.3529
 6015TIP3    H239461   2.942   3.402  13.035  0.4573  0.1375  0.3346
 6016TIP3   OH239462   1.173   0.043  11.591  0.2454 -0.3295 -0.2051
 6016TIP3    H139463   1.247  -0.016  11.604 -1.0369 -2.1795 -1.1030
 6016TIP3    H239464   1.126   0.043  11.674  2.0152  2.0236  0.8707
 6017TIP3   OH239465   4.763   0.960   4.101  0.7644 -0.0317 -0.2122
 6017TIP3    H139466   4.810   0.976   4.019  0.7945 -0.3035 -0.2458
 6017TIP3    H239467   4.808   0.885   4.140  1.9186  1.2123  0.9162
 6018TIP3   OH239468   0.182   6.053  11.238 -0.4445 -0.2615 -0.1128
 6018TIP3    H139469   0.153   6.090  11.155 -2.5703 -0.7606  0.3843
 6018TIP3    H239470   0.263   6.007  11.217 -1.4289 -1.1276 -2.1052
 6019TIP3   OH239471   6.520   2.738  13.031 -0.2965  0.5079 -0.1646
 6019TIP3    H139472   6.523   2.646  13.058 -3.0480  0.8759  1.6321
 6019TIP3    H239473   6.443   2.743  12.974 -0.2124  1.7110 -0.1835
 6020TIP3   OH239474   0.530   3.601  14.769  0.0058 -0.3891  0.2641
 6020TIP3    H139475   0.595   3.649  14.718  1.6696 -1.1091  1.6533
 6020TIP3    H239476   0.468   3.668  14.798  0.4449  0.4020 -0.5772
 6021TIP3   OH239477   2.086   4.098  17.007  0.3411 -0.8835 -0.1676
 6021TIP3    H139478   2.133   4.019  16.978 -0.2396 -1.4205  0.3390
 6021TIP3    H239479   2.087   4.156  16.930  0.1192 -1.6850 -0.7839
 6022TIP3   OH239480   0.212   1.270  12.947 -0.0505  0.0903 -0.4443
 6022TIP3    H139481   0.217   1.296  13.038 -0.4695 -0.7173 -0.1818
 6022TIP3    H239482   0.152   1.332  12.907 -0.2716  0.1247 -0.0561
 6023TIP3   OH239483   3.074   2.487   3.256 -0.0090 -0.3304  0.1401
 6023TIP3    H139484   3.064   2.421   3.325 -1.3553  0.3335  0.6044
 6023TIP3    H239485   3.122   2.442   3.186 -0.0576 -1.5026  0.8469
 6024TIP3   OH239486   0.599   3.695  12.824 -0.0325 -0.1644 -0.0148
 6024TIP3    H139487   0.677   3.641  12.836  1.2946  1.6396 -0.1736
 6024TIP3    H239488   0.561   3.701  12.912  0.0748 -0.9676  0.0890
 6025TIP3   OH239489   3.552   3.247  13.154  0.6480  0.2814  0.3242
 6025TIP3    H139490   3.556   3.154  13.131  0.4347  1.0483 -3.1729
 6025TIP3    H239491   3.610   3.256  13.229  2.1361 -2.3662 -0.4501
 6026TIP3   OH239492   0.444   2.581  12.811 -0.1926  0.0027  0.3953
 6026TIP3    H139493   0.523   2.549  12.767 -0.2996  1.4961 -0.9373
 6026TIP3    H239494   0.438   2.529  12.891  2.8177  0.6828  1.1125
 6027TIP3   OH239495   1.251   3.811   2.075  0.7594 -0.0571  0.3044
 6027TIP3    H139496   1.158   3.788   2.082  0.9746 -0.9042  0.3958
 6027TIP3    H239497   1.257   3.899   2.112  0.2579 -0.6094  1.7088
 6028TIP3   OH239498   2.007   1.882   1.215 -0.2293 -0.2265 -0.3534
 6028TIP3    H139499   1.989   1.899   1.307  1.4429  1.0563 -0.2375
 6028TIP3    H239500   2.023   1.787   1.210  1.5304 -0.0228  1.0168
 6029TIP3   OH239501   2.019   4.780  16.920 -0.2761 -0.4471 -0.5277
 6029TIP3    H139502   2.009   4.862  16.967  0.1001  0.2866 -1.6937
 6029TIP3    H239503   1.956   4.786  16.848 -0.0511 -1.0599 -0.7766
 6030TIP3   OH239504   3.214   0.871  15.752 -0.4832 -0.0989 -0.8361
 6030TIP3    H139505   3.186   0.855  15.662 -0.5809  1.4275 -1.0940
 6030TIP3    H239506   3.194   0.964  15.767  2.6835  0.5586 -0.3844
 6031TIP3   OH239507   6.414   3.933  10.841 -0.3302 -0.1774  0.5737
 6031TIP3    H139508   6.339   3.888  10.802 -0.2680  0.1258  0.0866
 6031TIP3    H239509   6.435   3.883  10.919 -0.7607 -0.5250  0.4684
 6032TIP3   OH239510   6.762   3.544  14.385  0.2187 -0.0172  0.3415
 6032TIP3    H139511   6.732   3.458  14.414 -0.0915 -0.5063 -1.3402
 6032TIP3    H239512   6.835   3.565  14.443 -0.2432 -1.0434  1.3029
 6033TIP3   OH239513   3.322   2.251   0.131  0.7025  0.3916 -0.6661
 6033TIP3    H139514   3.237   2.272   0.093  1.0166  0.9644 -1.0677
 6033TIP3    H239515   3.344   2.165   0.096 -0.1091 -0.1494  0.1371
 6034TIP3   OH239516   6.550   4.029  13.551  0.2566  0.1645  0.3525
 6034TIP3    H139517   6.570   4.106  13.604 -0.0539  0.0010  0.7147
 6034TIP3    H239518   6.490   4.060  13.484 -2.3166 -0.3405  2.3194
 6035TIP3   OH239519   4.798   1.660   0.074  0.2592 -0.0633  0.3453
 6035TIP3    H139520   4.807   1.677  -0.020 -1.0671 -0.1160  0.2037
 6035TIP3    H239521   4.864   1.715   0.115  0.8795 -0.0780 -0.6230
 6036TIP3   OH239522   4.959   3.276   0.362  0.1935 -0.1424  0.6936
 6036TIP3    H139523   4.936   3.283   0.269 -0.9704  2.1946  1.1297
 6036TIP3    H239524   5.051   3.299   0.366  0.0502  0.5408  0.2085
 6037TIP3   OH239525   6.219   1.756  14.079 -0.2829  0.5759 -0.6038
 6037TIP3    H139526   6.303   1.771  14.035 -0.6639  3.6433 -0.3828
 6037TIP3    H239527   6.236   1.773  14.171 -0.6639 -0.9781 -0.2256
 6038TIP3   OH239528   1.005   0.644  15.466  0.9942 -0.4947  0.2804
 6038TIP3    H139529   1.028   0.712  15.402  1.2200 -1.3300 -0.5280
 6038TIP3    H239530   0.985   0.567  15.414 -3.1832  0.0007  0.9516
 6039TIP3   OH239531   4.940   2.843  12.348 -0.1645  0.5926 -0.4886
 6039TIP3    H139532   4.929   2.756  12.387  2.7420  0.9132  1.2097
 6039TIP3    H239533   4.965   2.826  12.258  0.6847 -0.3645 -0.0846
 6040TIP3   OH239534   2.693   6.589   3.824 -0.5856  0.9149 -0.4477
 6040TIP3    H139535   2.717   6.627   3.909 -0.6773 -3.0603  1.4322
 6040TIP3    H239536   2.777   6.579   3.779 -0.0309 -0.8132  0.8947
 6041TIP3   OH239537   0.084   0.365   1.680 -0.4729  0.7303 -0.7041
 6041TIP3    H139538   0.145   0.291   1.679 -1.1701  0.1485 -1.0358
 6041TIP3    H239539   0.108   0.416   1.602 -0.6422  0.3090 -1.0341
 6042TIP3   OH239540   0.185   3.116  13.633 -0.0287 -0.0925  0.3786
 6042TIP3    H139541   0.152   3.073  13.554 -0.8600  0.4309  0.4377
 6042TIP3    H239542   0.150   3.205  13.629  1.3197  0.4523  0.4791
 6043TIP3   OH239543   0.210   3.279   2.737  0.2521 -0.6597 -0.0806
 6043TIP3    H139544   0.219   3.201   2.682  3.9672 -1.6070  1.6900
 6043TIP3    H239545   0.141   3.258   2.799 -0.5934 -1.4962 -1.2962
 6044TIP3   OH239546   0.438   3.868  14.760  0.0839 -0.2820 -0.1319
 6044TIP3    H139547   0.376   3.853  14.689 -1.2866 -2.8424  1.5164
 6044TIP3    H239548   0.396   3.933  14.816  0.1793  0.0877 -0.4842
 6045TIP3   OH239549   0.937   5.152   3.970  0.2475  0.4778  0.3204
 6045TIP3    H139550   1.023   5.171   4.005  0.0842  0.3345  0.8004
 6045TIP3    H239551   0.937   5.058   3.954  0.0844  0.4313  0.5856
 6046TIP3   OH239552   3.331   6.509  15.595  0.1505 -0.4344 -0.4384
 6046TIP3    H139553   3.248   6.553  15.613 -0.5522 -0.8450 -2.5622
 6046TIP3    H239554   3.358   6.541  15.509  3.1499  1.0830  0.9920
 6047TIP3   OH239555   4.565   6.775  12.598 -0.0745  0.0014  0.0549
 6047TIP3    H139556   4.640   6.790  12.656 -0.4938 -0.9680  0.8696
 6047TIP3    H239557   4.516   6.857  12.599  0.7593  0.5014 -0.1593
 6048TIP3   OH239558   2.386   0.549  13.328  0.0722 -0.3820  0.1727
 6048TIP3    H139559   2.299   0.510  13.338  0.6848 -1.4658  1.2812
 6048TIP3    H239560   2.403   0.592  13.412  0.8656 -0.6863  0.1666
 6049TIP3   OH239561   4.936   2.319   4.395 -0.2440  0.6312 -0.1072
 6049TIP3    H139562   4.933   2.237   4.344  1.2913  1.7402 -2.0798
 6049TIP3    H239563   4.876   2.304   4.468 -1.4357 -1.5599 -1.4686
 6050TIP3   OH239564   6.266   4.359   5.084 -0.2279  0.2398  0.0126
 6050TIP3    H139565   6.214   4.297   5.136 -0.0829  0.6129  0.6000
 6050TIP3    H239566   6.280   4.433   5.142  1.3524 -0.0468  0.0125
 6051TIP3   OH239567   3.811   5.905   0.722  0.2617 -0.1285  0.1864
 6051TIP3    H139568   3.715   5.901   0.730  0.3831 -2.5781  0.7773
 6051TIP3    H239569   3.843   5.845   0.790  2.1412 -1.0740 -1.5075
 6052TIP3   OH239570   3.951   1.105  14.573  0.2846  1.5687 -0.6203
 6052TIP3    H139571   3.895   1.178  14.546 -0.0895  0.8709 -1.7963
 6052TIP3    H239572   4.012   1.144  14.636 -2.3338  2.0666  1.7080
 6053TIP3   OH239573   6.600   3.073   5.121 -0.0920 -0.2385  0.0472
 6053TIP3    H139574   6.669   3.098   5.183 -0.5204  0.0829  0.3896
 6053TIP3    H239575   6.613   3.131   5.046  0.6371 -0.8523 -0.3131
 6054TIP3   OH239576   5.986   4.524  13.770  0.3370 -0.7044 -0.5231
 6054TIP3    H139577   6.039   4.536  13.691  0.3554  0.5112 -0.3233
 6054TIP3    H239578   5.984   4.429  13.783  1.1961 -0.8441 -1.3930
 6055TIP3   OH239579   2.257   2.093  16.183 -0.0081 -0.4222 -0.2425
 6055TIP3    H139580   2.193   2.032  16.219 -0.1716  0.0572  0.2743
 6055TIP3    H239581   2.313   2.038  16.127 -1.8362 -0.5686 -1.9709
 6056TIP3   OH239582   0.029   5.482   5.294  0.0226  0.2134  0.1486
 6056TIP3    H139583   0.044   5.518   5.381 -2.3838 -1.6835  1.4227
 6056TIP3    H239584  -0.029   5.545   5.252  0.9541  0.9886  0.0025
 6057TIP3   OH239585   1.382   3.972   4.486  0.5122 -0.7057 -0.1462
 6057TIP3    H139586   1.375   4.060   4.524  1.3286 -0.7356  0.0759
 6057TIP3    H239587   1.432   3.922   4.550  1.9423 -0.7469 -1.2567
 6058TIP3   OH239588   3.152   1.145  15.809 -0.0013 -0.0148 -0.0367
 6058TIP3    H139589   3.150   1.224  15.755 -0.0166 -0.4722 -0.7219
 6058TIP3    H239590   3.186   1.173  15.893 -1.6920  1.0701  0.2983
 6059TIP3   OH239591   2.500   3.125  10.792  0.4563 -0.5635  0.1178
 6059TIP3    H139592   2.509   3.188  10.864 -0.4465  0.4261 -0.6283
 6059TIP3    H239593   2.569   3.061  10.808  2.1783  1.2606  0.2228
 6060TIP3   OH239594   0.566   1.914   4.582  0.6783  0.5718 -0.0557
 6060TIP3    H139595   0.637   1.869   4.536  0.4511  1.3876 -1.2332
 6060TIP3    H239596   0.554   1.864   4.663 -0.2519 -2.0503 -1.7620
 6061TIP3   OH239597   3.081   4.919   1.659 -0.1950 -0.7397  0.4803
 6061TIP3    H139598   3.077   4.841   1.715 -0.0976 -0.3222  1.0726
 6061TIP3    H239599   3.115   4.988   1.716 -1.3113  0.0131  0.2466
 6062TIP3   OH239600   0.586   4.623  12.606 -0.0653  0.8225  0.0778
 6062TIP3    H139601   0.588   4.686  12.535  1.2650 -0.1556 -0.7755
 6062TIP3    H239602   0.493   4.612  12.626 -0.5405  0.1291 -2.4074
 6063TIP3   OH239603   5.605   6.498   4.040 -0.1150 -0.0134 -0.4453
 6063TIP3    H139604   5.598   6.471   4.132 -1.3674 -2.0438 -1.1023
 6063TIP3    H239605   5.575   6.588   4.039 -0.0090  0.0569  1.1504
 6064TIP3   OH239606   2.723   5.334   3.021  0.3317  0.3718 -0.1072
 6064TIP3    H139607   2.754   5.413   2.977 -0.0722  0.3759 -0.3965
 6064TIP3    H239608   2.746   5.263   2.961 -0.2333  0.3787 -0.3439
 6065TIP3   OH239609   6.477   4.095  11.239  0.1309 -0.0019 -0.4879
 6065TIP3    H139610   6.400   4.151  11.234 -0.3072 -0.7773 -3.3219
 6065TIP3    H239611   6.443   4.006  11.225  1.1460 -0.7280  1.4294
 6066TIP3   OH239612   6.395   4.185  13.760 -0.2077  0.0561 -0.1848
 6066TIP3    H139613   6.388   4.211  13.668  0.1773 -1.1045 -0.5477
 6066TIP3    H239614   6.485   4.209  13.784  0.0572 -0.6677 -0.4400
 6067TIP3   OH239615   0.524   0.187  10.669  0.3338  0.6183 -0.1992
 6067TIP3    H139616   0.611   0.181  10.630 -0.0950  1.6437 -1.3508
 6067TIP3    H239617   0.518   0.277  10.700  0.6050 -0.1411  2.1324
 6068TIP3   OH239618   3.416   4.658  15.757  0.3403  0.4546  0.0378
 6068TIP3    H139619   3.430   4.700  15.673  0.4298 -1.1753 -0.7870
 6068TIP3    H239620   3.374   4.575  15.736  0.0356  0.1799  1.6273
 6069TIP3   OH239621   0.735   6.697  12.446 -0.3306 -0.0602 -0.1695
 6069TIP3    H139622   0.756   6.787  12.422  0.8018  0.1799  1.6605
 6069TIP3    H239623   0.719   6.700  12.540  1.2585 -2.0354  0.1999
 6070TIP3   OH239624   1.177   4.438  13.802 -0.0432 -0.2277  0.3814
 6070TIP3    H139625   1.127   4.466  13.878 -0.8550  2.1652 -0.9865
 6070TIP3    H239626   1.113   4.393  13.746  0.7905 -3.0256  1.5559
 6071TIP3   OH239627   6.289   6.294   0.381 -0.3487 -0.2389  0.1458
 6071TIP3    H139628   6.361   6.230   0.386 -0.9367 -0.8403  1.1682
 6071TIP3    H239629   6.268   6.312   0.473  0.5398  2.2616 -0.1060
 6072TIP3   OH239630   5.465   3.563  16.912  0.3061 -0.2716  0.1481
 6072TIP3    H139631   5.375   3.569  16.945  0.3188 -1.0789  0.3527
 6072TIP3    H239632   5.482   3.469  16.908  0.8499 -0.1378 -0.6838
 6073TIP3   OH239633   2.949   1.657  13.342  0.5860  0.5342  0.6917
 6073TIP3    H139634   2.858   1.630  13.355  0.7638 -1.8841 -2.3465
 6073TIP3    H239635   2.943   1.744  13.302 -0.3602  0.5881  0.9479
 6074TIP3   OH239636   2.112   1.963   6.087 -0.2499 -0.1830 -0.2915
 6074TIP3    H139637   2.203   1.977   6.060 -0.0090 -0.8863  0.1198
 6074TIP3    H239638   2.095   2.030   6.154  0.4534 -0.9846  0.7083
 6075TIP3   OH239639   4.059   1.116  16.780 -0.2048  0.0610 -0.0377
 6075TIP3    H139640   4.055   1.151  16.870  0.5063  1.2072 -0.4388
 6075TIP3    H239641   4.126   1.047  16.784  1.5037  1.6588 -0.1700
 6076TIP3   OH239642   4.429   4.227  15.857  0.4533 -0.0352  0.3535
 6076TIP3    H139643   4.348   4.195  15.816 -0.4526  1.4624  0.9193
 6076TIP3    H239644   4.492   4.231  15.785 -0.0355 -1.0077 -0.1425
 6077TIP3   OH239645   5.587   4.675   4.419  0.2257 -0.5634  0.0089
 6077TIP3    H139646   5.518   4.643   4.477  0.6980 -0.9708  0.3458
 6077TIP3    H239647   5.563   4.766   4.401 -0.4904 -0.7504 -0.0142
 6078TIP3   OH239648   4.094   4.761  16.005 -0.2209  0.6712 -0.3761
 6078TIP3    H139649   4.051   4.705  15.940  0.2971 -0.8964  0.5784
 6078TIP3    H239650   4.162   4.807  15.957  1.1940 -1.6485 -0.7048
 6079TIP3   OH239651   1.788   5.463   5.208  0.8244  0.7452  0.0354
 6079TIP3    H139652   1.817   5.380   5.171  2.9559  0.8047  1.4415
 6079TIP3    H239653   1.868   5.502   5.244 -0.5819  2.1938  1.7026
 6080TIP3   OH239654   1.156   1.852  15.485  0.2691  0.3279 -0.6131
 6080TIP3    H139655   1.104   1.872  15.407  0.3002  0.5543 -0.5771
 6080TIP3    H239656   1.130   1.763  15.508  0.2680  0.2544 -0.8911
 6081TIP3   OH239657   5.672   6.681   2.961  0.3898  0.3770  0.2859
 6081TIP3    H139658   5.609   6.654   3.027  0.0515 -0.7417 -0.4913
 6081TIP3    H239659   5.753   6.697   3.011  0.2781 -0.9195  0.9165
 6082TIP3   OH239660   2.349   2.348   5.986 -0.8176 -0.1513  0.2873
 6082TIP3    H139661   2.423   2.288   5.987 -1.0349 -0.4091  1.4000
 6082TIP3    H239662   2.274   2.294   6.013 -1.0208  0.6019  1.2564
 6083TIP3   OH239663   2.970   4.354   3.208 -0.2015  0.2430  0.5729
 6083TIP3    H139664   2.900   4.343   3.273 -0.8798 -0.4720 -0.2720
 6083TIP3    H239665   3.050   4.328   3.254 -0.6248  0.1405  1.2552
 6084TIP3   OH239666   1.100   2.629   3.058 -0.5545  0.2518  0.4035
 6084TIP3    H139667   1.143   2.595   3.137 -1.0979 -0.0131  0.5926
 6084TIP3    H239668   1.081   2.551   3.006 -1.5046  0.2872  0.6843
 6085TIP3   OH239669   4.361   5.657   1.499 -0.0653 -0.2586  0.3226
 6085TIP3    H139670   4.312   5.735   1.472  0.8536 -0.0811 -0.8630
 6085TIP3    H239671   4.342   5.648   1.593  2.3966  3.2842  1.2777
 6086TIP3   OH239672   2.364   5.449   0.256 -0.0142 -0.3187 -0.7526
 6086TIP3    H139673   2.423   5.525   0.250 -0.7129  0.3185  0.2496
 6086TIP3    H239674   2.368   5.409   0.169 -0.5585  1.5525 -1.6668
 6087TIP3   OH239675   6.295   3.806   5.775 -0.3206  0.4493 -0.1785
 6087TIP3    H139676   6.389   3.824   5.783 -0.5547  1.6189 -0.0820
 6087TIP3    H239677   6.284   3.783   5.683  0.3899 -1.6595  0.2295
 6088TIP3   OH239678   2.869   0.126   2.130  0.2343 -0.0478  0.1563
 6088TIP3    H139679   2.812   0.078   2.070  0.4495  0.4908 -0.4804
 6088TIP3    H239680   2.813   0.192   2.170  0.1524 -0.2396  0.3603
 6089TIP3   OH239681   0.697   4.579   4.481  0.4318  0.6268 -0.0621
 6089TIP3    H139682   0.645   4.597   4.560 -0.1406 -0.8405 -0.0962
 6089TIP3    H239683   0.666   4.644   4.417  0.5102  1.4625  0.7314
 6090TIP3   OH239684   2.145   2.273   2.590 -0.3733 -0.7312  0.2502
 6090TIP3    H139685   2.082   2.266   2.518 -0.4356 -0.8261  0.3143
 6090TIP3    H239686   2.226   2.304   2.548 -1.5403  3.1509  0.7272
 6091TIP3   OH239687   0.652   2.899  16.037 -0.1350 -0.0845  0.5889
 6091TIP3    H139688   0.700   2.962  16.090 -1.1332 -0.8690  2.4849
 6091TIP3    H239689   0.613   2.951  15.967 -0.0415  1.2249  1.4916
 6092TIP3   OH239690   4.748   4.297   2.182  0.4676 -0.4684 -0.2590
 6092TIP3    H139691   4.806   4.371   2.163 -1.3076  1.3104  1.0034
 6092TIP3    H239692   4.697   4.287   2.102  0.5128 -0.1369 -0.3325
 6093TIP3   OH239693   1.887   6.105  12.930  0.3880  0.3199  0.3045
 6093TIP3    H139694   1.910   6.198  12.929 -0.6714  0.6126  2.0274
 6093TIP3    H239695   1.847   6.091  13.015 -1.2185 -1.3042 -0.6890
 6094TIP3   OH239696   2.443   2.939  15.903 -0.1120 -0.1310 -0.6393
 6094TIP3    H139697   2.381   2.938  15.830  0.1886  1.8924 -0.9787
 6094TIP3    H239698   2.460   2.847  15.922 -0.0219 -0.6985 -3.2778
 6095TIP3   OH239699   5.759   5.147  10.549  0.1718 -0.0653  0.4021
 6095TIP3    H139700   5.791   5.089  10.480  0.2028  0.0885  0.2894
 6095TIP3    H239701   5.829   5.212  10.560 -0.7682  1.2027 -0.9179
 6096TIP3   OH239702   3.750   5.819  13.716 -0.5244 -0.2725  0.4189
 6096TIP3    H139703   3.705   5.767  13.783 -0.1073 -0.5980  0.4475
 6096TIP3    H239704   3.792   5.890  13.765 -2.6075  1.1536  0.1807
 6097TIP3   OH239705   3.599   4.696   3.041 -0.4775 -0.3939 -0.5973
 6097TIP3    H139706   3.597   4.637   2.966  1.3190 -1.0751 -0.1386
 6097TIP3    H239707   3.600   4.783   3.003  1.5008 -0.7447 -1.4298
 6098TIP3   OH239708   5.940   6.756  12.961  0.0863 -0.2693 -0.5503
 6098TIP3    H139709   5.903   6.807  13.033  1.2765  0.9547 -0.7926
 6098TIP3    H239710   5.971   6.676  13.001  2.2673  1.1106  0.6115
 6099TIP3   OH239711   5.326   2.506   1.012 -0.1785 -0.5559  0.9526
 6099TIP3    H139712   5.417   2.480   1.024 -0.3239 -0.7874  1.5896
 6099TIP3    H239713   5.328   2.566   0.937  0.5460 -0.2980  1.1708
 6100TIP3   OH239714   5.209   2.325  15.559 -0.1189 -0.3901 -0.1420
 6100TIP3    H139715   5.229   2.418  15.560  0.1179 -0.4544  1.3064
 6100TIP3    H239716   5.214   2.301  15.466  4.2642  0.0698 -0.1264
 6101TIP3   OH239717   2.754   2.020  11.142 -0.2308 -0.1533 -0.0040
 6101TIP3    H139718   2.668   2.060  11.148 -1.2851 -2.1832 -1.0231
 6101TIP3    H239719   2.798   2.067  11.071 -0.5419  0.7573  0.3940
 6102TIP3   OH239720   2.315   2.563   3.678 -0.0664 -0.3412 -0.4577
 6102TIP3    H139721   2.331   2.623   3.750  1.4319  0.3110 -1.3026
 6102TIP3    H239722   2.355   2.480   3.706 -3.6796 -1.5483  1.4659
 6103TIP3   OH239723   6.770   0.078   3.648 -0.0746 -0.0720 -0.4503
 6103TIP3    H139724   6.744   0.135   3.721  1.1324  0.4514 -0.4115
 6103TIP3    H239725   6.698   0.016   3.639 -0.8837  0.7387  0.2715
 6104TIP3   OH239726   4.226   3.966   1.551 -0.4373 -0.1404 -0.0255
 6104TIP3    H139727   4.305   3.978   1.497 -1.5131  1.5820 -1.2527
 6104TIP3    H239728   4.233   4.034   1.618 -0.5215 -0.4443  0.2881
 6105TIP3   OH239729   1.634   4.442   2.172  0.1967  0.0244 -0.1785
 6105TIP3    H139730   1.689   4.376   2.214 -0.0558 -1.7725 -2.6217
 6105TIP3    H239731   1.695   4.513   2.152  1.1219 -0.8609 -0.5411
 6106TIP3   OH239732   0.819   5.222  16.033  0.5838  0.2853  0.0973
 6106TIP3    H139733   0.837   5.128  16.033 -0.2536  0.1177 -1.5456
 6106TIP3    H239734   0.873   5.257  15.962 -1.4837  0.5497 -1.4020
 6107TIP3   OH239735   0.894   5.803  11.138 -0.3345 -0.4110 -0.0842
 6107TIP3    H139736   0.852   5.717  11.148  0.2527 -0.9926 -2.3307
 6107TIP3    H239737   0.983   5.790  11.170  0.5780 -1.4118 -2.8656
 6108TIP3   OH239738   4.401   4.820  16.011 -0.8436 -0.0796 -0.2939
 6108TIP3    H139739   4.387   4.795  15.919 -0.3689  0.9201 -0.6425
 6108TIP3    H239740   4.497   4.821  16.021 -0.8694  1.3014 -0.2013
 6109TIP3   OH239741   1.108   0.063  17.160  0.4741  0.2645  0.3563
 6109TIP3    H139742   1.083  -0.029  17.149  1.1618  0.0957  0.1244
 6109TIP3    H239743   1.127   0.092  17.071 -0.4091  0.8306  0.3544
 6110TIP3   OH239744   5.315   1.650   0.565  0.1204  0.2945  0.4620
 6110TIP3    H139745   5.233   1.602   0.578  0.0589 -0.1822 -1.5311
 6110TIP3    H239746   5.381   1.582   0.550  0.2253  0.7828 -1.3890
 6111TIP3   OH239747   2.846   0.853   0.409  0.3014 -0.2364  0.0706
 6111TIP3    H139748   2.896   0.911   0.466 -0.7224  0.3525  0.3770
 6111TIP3    H239749   2.841   0.899   0.325 -0.5149  0.1157  0.3149
 6112TIP3   OH239750   1.507   1.194  11.303  0.1247  0.6885 -0.0025
 6112TIP3    H139751   1.541   1.208  11.392 -0.2827  0.5575  0.1756
 6112TIP3    H239752   1.563   1.249  11.248 -0.0212  1.2686  0.4106
 6113TIP3   OH239753   3.106   2.016   0.567  0.1493 -0.3032  0.0340
 6113TIP3    H139754   3.075   2.068   0.492 -0.0208 -0.5333 -0.0547
 6113TIP3    H239755   3.190   1.981   0.537 -0.9120 -2.1541 -0.8624
 6114TIP3   OH239756   0.692   2.703   3.948  0.4898 -0.1272 -0.1966
 6114TIP3    H139757   0.667   2.793   3.973  0.1545 -0.5379  0.9889
 6114TIP3    H239758   0.608   2.659   3.934  0.5825 -0.9000  1.5840
 6115TIP3   OH239759   3.352   2.063  16.027  0.2479 -1.0236  0.3291
 6115TIP3    H139760   3.289   2.002  15.988 -0.9517 -0.9564  2.1291
 6115TIP3    H239761   3.300   2.140  16.050  1.0601 -0.8143  1.4930
 6116TIP3   OH239762   0.351   1.380   5.800 -0.5987 -0.3881  0.2242
 6116TIP3    H139763   0.257   1.392   5.787 -0.7233  0.8670  2.1068
 6116TIP3    H239764   0.365   1.402   5.892  1.7725  0.8647 -0.4261
 6117TIP3   OH239765   5.247   0.959  14.280  0.2822  0.2193 -0.4243
 6117TIP3    H139766   5.183   1.002  14.336  0.5408  1.3805 -0.9918
 6117TIP3    H239767   5.327   0.953  14.333  0.2715  0.5357 -0.3732
 6118TIP3   OH239768   0.234   4.013  13.222 -0.0385  0.2158 -0.2936
 6118TIP3    H139769   0.225   3.922  13.249  0.1999  0.5014  0.7721
 6118TIP3    H239770   0.160   4.058  13.264 -0.0726  0.5347 -0.6950
 6119TIP3   OH239771   0.540   6.726  15.346 -0.2801 -0.7699 -0.5246
 6119TIP3    H139772   0.454   6.769  15.343  0.2466  0.3050 -0.3239
 6119TIP3    H239773   0.558   6.703  15.255 -1.8292 -3.1103 -0.2695
 6120TIP3   OH239774   3.528   6.579  16.603 -0.4221  0.3086  0.2877
 6120TIP3    H139775   3.600   6.572  16.541  1.0181 -0.9829  2.0361
 6120TIP3    H239776   3.510   6.673  16.610  3.8199  1.0505  2.8038
 6121TIP3   OH239777   1.062   5.685  16.878  0.2088 -0.1205  0.2117
 6121TIP3    H139778   0.992   5.622  16.894 -0.3561  0.8418  1.5930
 6121TIP3    H239779   1.140   5.631  16.867 -0.1010 -1.0547  2.2750
 6122TIP3   OH239780   5.464   3.428  15.130  0.4403 -0.4455  0.4318
 6122TIP3    H139781   5.464   3.507  15.185 -0.3060 -0.1031 -0.0472
 6122TIP3    H239782   5.416   3.364  15.182  0.4069 -0.3597  0.5079
 6123TIP3   OH239783   3.511   4.948  15.044  0.5393  0.0077  0.4034
 6123TIP3    H139784   3.561   4.901  14.977 -0.3562 -1.2371  0.5834
 6123TIP3    H239785   3.490   4.881  15.109  1.0924  1.1200  1.7629
 6124TIP3   OH239786   5.130   0.272  14.967  0.1286  0.2740 -0.4817
 6124TIP3    H139787   5.074   0.245  14.894  0.3190 -0.1481 -0.4734
 6124TIP3    H239788   5.115   0.205  15.034  0.8630 -0.0043 -0.5880
 6125TIP3   OH239789   2.978   5.496   6.699 -0.0747 -0.2540 -0.1588
 6125TIP3    H139790   3.039   5.542   6.640  1.1123 -0.9350  0.5088
 6125TIP3    H239791   3.027   5.419   6.728  0.0859  1.0620  3.2382
 6126TIP3   OH239792   4.591   2.162   2.991 -0.2006  0.0331 -0.8805
 6126TIP3    H139793   4.559   2.097   2.929 -2.4677 -0.0482  0.3225
 6126TIP3    H239794   4.564   2.130   3.076 -0.2189  1.9013 -0.1542
 6127TIP3   OH239795   0.348   6.783   2.462 -0.5165  0.1835  0.0925
 6127TIP3    H139796   0.341   6.854   2.527  0.5220 -1.1680  1.7221
 6127TIP3    H239797   0.257   6.766   2.436 -0.9464  0.8608  1.0831
 6128TIP3   OH239798   2.460   0.106  15.676 -0.6079  0.6370  0.1192
 6128TIP3    H139799   2.452   0.141  15.765 -0.5684 -1.7235  1.0897
 6128TIP3    H239800   2.537   0.049  15.679  0.7549  2.2723 -2.0510
 6129TIP3   OH239801   0.919   0.126   0.170 -0.3481 -0.1927  0.2135
 6129TIP3    H139802   0.951   0.169   0.249 -0.0592  0.4055 -0.2196
 6129TIP3    H239803   0.998   0.111   0.117 -0.4474 -1.2455  0.3490
 6130TIP3   OH239804   5.230   6.722   3.153  0.3649  0.0126  0.4826
 6130TIP3    H139805   5.250   6.675   3.233  0.6032 -0.5580  0.0871
 6130TIP3    H239806   5.166   6.668   3.108 -0.2989  0.6745  0.6161
 6131TIP3   OH239807   0.452   6.164   4.289 -0.8000  0.1081  0.1270
 6131TIP3    H139808   0.500   6.082   4.285 -1.0548  0.0234 -1.5416
 6131TIP3    H239809   0.450   6.186   4.382 -0.6844 -1.7376  0.5858
 6132TIP3   OH239810   6.500   3.474   1.103  0.1104  0.4412 -0.3122
 6132TIP3    H139811   6.538   3.541   1.046  1.5166 -0.6799 -0.7302
 6132TIP3    H239812   6.573   3.446   1.158  0.0298 -2.0476 -1.3938
 6133TIP3   OH239813   3.410   6.384   1.603  0.4138 -0.3920  0.1446
 6133TIP3    H139814   3.464   6.334   1.542 -0.7246 -0.4864 -0.7979
 6133TIP3    H239815   3.328   6.334   1.609 -0.3968  0.8952 -0.1210
 6134TIP3   OH239816   0.737   5.727   2.567  0.1393  0.2532 -0.2782
 6134TIP3    H139817   0.739   5.787   2.642  0.6596  0.6767 -0.6337
 6134TIP3    H239818   0.816   5.748   2.517 -0.1358 -0.1259 -0.8708
 6135TIP3   OH239819   1.134   3.198   5.139  0.2767 -0.2063  0.1842
 6135TIP3    H139820   1.158   3.125   5.082 -0.0436  0.5236 -0.9112
 6135TIP3    H239821   1.085   3.158   5.210  1.7516 -1.2892  0.6243
 6136TIP3   OH239822   5.350   4.253  16.333  0.6418  0.4681  0.4269
 6136TIP3    H139823   5.344   4.216  16.244  2.4824 -0.9760  0.8892
 6136TIP3    H239824   5.303   4.191  16.388  0.5204  0.7591  0.6532
 6137TIP3   OH239825   0.874   4.843   0.340  0.4626 -0.4708 -0.5816
 6137TIP3    H139826   0.944   4.783   0.313 -0.5871 -1.3000 -1.5485
 6137TIP3    H239827   0.869   4.907   0.269 -0.5758 -1.1449 -1.1307
 6138TIP3   OH239828   3.444   0.750   0.194 -0.1049 -0.0853  0.1103
 6138TIP3    H139829   3.380   0.712   0.133  1.8337 -0.0660 -1.9907
 6138TIP3    H239830   3.424   0.844   0.195  0.5931  0.1026 -1.4679
 6139TIP3   OH239831   5.304   5.436   5.773  0.5259  0.3584  0.1625
 6139TIP3    H139832   5.349   5.353   5.757  1.2140  0.9859 -1.2993
 6139TIP3    H239833   5.346   5.472   5.851  0.3081 -0.6120  0.7219
 6140TIP3   OH239834   4.422   3.040  14.449 -0.0916 -0.2815 -0.7757
 6140TIP3    H139835   4.461   3.051  14.536 -0.7489  1.4236 -0.6822
 6140TIP3    H239836   4.493   3.003  14.396  0.1433 -1.9284  0.6129
 6141TIP3   OH239837   1.115   0.089  10.910 -0.2553  1.0201 -0.7130
 6141TIP3    H139838   1.115   0.134  10.825  1.8807  2.5788  0.0535
 6141TIP3    H239839   1.184   0.023  10.903 -1.0782  0.1451 -0.6779
 6142TIP3   OH239840   3.037   4.517  12.745 -0.2203  0.5704 -0.3753
 6142TIP3    H139841   2.975   4.589  12.758 -1.1142 -0.1814 -0.4283
 6142TIP3    H239842   2.988   4.438  12.769  1.1850  0.1024  1.0517
 6143TIP3   OH239843   3.829   5.109   2.151 -0.9497 -0.4229  0.7986
 6143TIP3    H139844   3.768   5.180   2.129 -0.7107 -0.3993  0.1888
 6143TIP3    H239845   3.869   5.136   2.233 -0.3223  0.5136  0.1961
 6144TIP3   OH239846   0.252   4.011  15.595 -0.1932 -0.2484  0.4391
 6144TIP3    H139847   0.255   3.933  15.651  1.4944 -0.9422 -0.5524
 6144TIP3    H239848   0.314   3.991  15.525 -0.1268  1.7994 -0.0989
 6145TIP3   OH239849   1.551   5.766  10.835  0.2296 -0.3923 -0.2850
 6145TIP3    H139850   1.520   5.856  10.838  1.8627  0.1369  0.7689
 6145TIP3    H239851   1.598   5.753  10.917  0.6438 -1.9710 -0.7493
 6146TIP3   OH239852   3.744   2.675   2.164 -0.4433 -0.3244 -0.1515
 6146TIP3    H139853   3.739   2.750   2.105  0.4773 -0.0045  0.1563
 6146TIP3    H239854   3.733   2.598   2.107  0.3684 -0.0141 -0.7371
 6147TIP3   OH239855   0.532   3.741   2.171  0.1389 -0.2653 -0.0821
 6147TIP3    H139856   0.438   3.754   2.174  0.3596  1.2625  0.4102
 6147TIP3    H239857   0.564   3.775   2.255  1.1223 -0.8515 -0.2049
 6148TIP3   OH239858   1.129   0.144   6.480 -0.2711  0.0805  0.8165
 6148TIP3    H139859   1.213   0.131   6.525 -0.2781  0.7896  1.0458
 6148TIP3    H239860   1.070   0.082   6.522  0.8954 -2.6776 -1.4877
 6149TIP3   OH239861   4.071   0.831  16.799 -0.7476 -0.3665 -0.0848
 6149TIP3    H139862   4.055   0.773  16.873  1.7315 -0.3175  0.5367
 6149TIP3    H239863   4.038   0.782  16.723  0.5070 -2.2310  0.5369
 6150TIP3   OH239864   0.751   5.121   1.219  0.3803  0.1814  0.0345
 6150TIP3    H139865   0.726   5.082   1.136  1.4108  1.1033 -0.7170
 6150TIP3    H239866   0.713   5.209   1.217  0.8275  0.3860  0.3171
 6151TIP3   OH239867   3.106   5.536  12.117  0.3158  0.4101  0.7351
 6151TIP3    H139868   3.156   5.604  12.071 -0.1387  1.0356  1.1552
 6151TIP3    H239869   3.126   5.456  12.069 -0.0306  1.0245 -0.4771
 6152TIP3   OH239870   4.191   4.960  16.541  0.1846 -0.1773 -0.0508
 6152TIP3    H139871   4.185   5.024  16.612 -0.0112  0.0624 -0.2837
 6152TIP3    H239872   4.148   5.002  16.467  1.4953  0.0675 -0.6669
 6153TIP3   OH239873   0.401   5.594  12.677  0.3101  0.4657  0.0902
 6153TIP3    H139874   0.494   5.579  12.665  0.0983 -0.2602 -0.6427
 6153TIP3    H239875   0.381   5.553  12.762  0.5328  0.0873 -0.0394
 6154TIP3   OH239876   3.545   5.672  15.800 -0.0223 -0.7679 -0.4715
 6154TIP3    H139877   3.634   5.671  15.763  0.5677 -1.2416  0.9347
 6154TIP3    H239878   3.522   5.579  15.809 -1.3522 -0.6623 -2.4202
 6155TIP3   OH239879   1.542   6.745   6.024  0.5452  0.1511  0.3432
 6155TIP3    H139880   1.465   6.735   6.079  1.4993 -2.2610  1.3248
 6155TIP3    H239881   1.509   6.736   5.935 -0.5534  0.8345  0.6787
 6156TIP3   OH239882   1.035   4.096  13.837  0.1630  0.5948  0.5439
 6156TIP3    H139883   1.048   4.092  13.743 -1.3506  0.6473  0.3202
 6156TIP3    H239884   1.114   4.057  13.874 -0.2640 -1.6424 -0.8058
 6157TIP3   OH239885   4.614   3.773   2.681 -0.1776  0.7953 -0.0916
 6157TIP3    H139886   4.594   3.789   2.773  0.5301  2.1339 -0.1645
 6157TIP3    H239887   4.577   3.849   2.635  1.1858  1.1137 -0.6929
 6158TIP3   OH239888   2.552   3.595  15.204 -0.1005  0.0337 -0.5994
 6158TIP3    H139889   2.597   3.571  15.286 -1.2420 -1.3728 -0.3766
 6158TIP3    H239890   2.481   3.652  15.232 -0.7110 -0.7352 -0.5550
 6159TIP3   OH239891   4.921   0.342  11.394  0.3466  0.4925 -0.1344
 6159TIP3    H139892   4.941   0.402  11.466  1.0304  1.2879 -0.9738
 6159TIP3    H239893   4.886   0.399  11.325 -2.3286 -0.5201  0.3141
 6160TIP3   OH239894   2.344   3.857  12.253 -0.3749  0.4898  0.2518
 6160TIP3    H139895   2.296   3.931  12.291 -1.3671  0.5839 -1.1568
 6160TIP3    H239896   2.280   3.787  12.246  0.0886  0.1044 -0.1638
 6161TIP3   OH239897   3.587   4.434   0.703 -0.5589 -0.4093  0.2292
 6161TIP3    H139898   3.620   4.346   0.684  0.2407  0.1101 -0.8735
 6161TIP3    H239899   3.637   4.462   0.780 -0.0893 -0.5338 -0.0278
 6162TIP3   OH239900   6.302   0.728   5.311  0.1349  0.2299 -0.4881
 6162TIP3    H139901   6.316   0.779   5.232  1.1597  0.8486  0.0855
 6162TIP3    H239902   6.355   0.650   5.300 -1.8729 -1.0222 -1.6172
 6163TIP3   OH239903   5.024   1.789  13.832  0.0783  0.6564  0.4369
 6163TIP3    H139904   4.965   1.716  13.818  2.3832 -0.7588 -2.4362
 6163TIP3    H239905   4.975   1.866  13.803 -1.4346 -0.0397  1.0838
 6164TIP3   OH239906   1.629   4.584   1.130  0.0272 -0.1659  0.2518
 6164TIP3    H139907   1.576   4.505   1.134 -0.1081 -0.0615  0.5821
 6164TIP3    H239908   1.693   4.567   1.061  1.7370 -1.6447  2.1295
 6165TIP3   OH239909   5.999   1.030   5.348 -0.0374  0.0616 -0.1821
 6165TIP3    H139910   6.090   1.005   5.361 -0.8550 -3.8879 -1.4642
 6165TIP3    H239911   5.948   0.954   5.374 -2.8483  1.2317 -1.9461
 6166TIP3   OH239912   1.410   5.779  13.332  0.0383  0.7942  0.2552
 6166TIP3    H139913   1.414   5.856  13.276  1.3031 -0.2585 -1.1474
 6166TIP3    H239914   1.377   5.709  13.275 -2.0012  0.4712  1.7447
 6167TIP3   OH239915   6.289   1.642  13.348  0.5426 -1.3437 -0.1261
 6167TIP3    H139916   6.218   1.662  13.409 -0.1702 -0.5616 -1.1885
 6167TIP3    H239917   6.246   1.599  13.274  1.1704 -0.8599 -0.7775
 6168TIP3   OH239918   5.967   0.756   3.186  0.2368  0.0634 -0.1659
 6168TIP3    H139919   5.873   0.774   3.181  0.2225  0.1961  0.6251
 6168TIP3    H239920   5.977   0.673   3.139 -0.3453 -0.1934  0.1551
 6169TIP3   OH239921   2.660   0.479  15.101  0.0103 -1.1407 -0.1706
 6169TIP3    H139922   2.721   0.548  15.128 -0.4894 -0.9430  0.4627
 6169TIP3    H239923   2.704   0.398  15.126  0.1944 -1.0132 -0.0748
 6170TIP3   OH239924   0.633   3.464   2.208  0.0630  0.1870  0.0862
 6170TIP3    H139925   0.687   3.392   2.177  0.2544  0.8220 -1.1134
 6170TIP3    H239926   0.637   3.529   2.137 -2.5612  0.0985 -0.1954
 6171TIP3   OH239927   1.148   3.449  11.473 -0.7124  0.3371  0.4308
 6171TIP3    H139928   1.081   3.414  11.532 -4.3499  0.2796 -3.5103
 6171TIP3    H239929   1.154   3.384  11.403 -0.0313  2.6855 -1.7539
 6172TIP3   OH239930   6.093   6.052   2.312  0.0903  0.1732 -0.4933
 6172TIP3    H139931   6.184   6.052   2.281  0.0632 -0.0050 -0.5714
 6172TIP3    H239932   6.044   6.010   2.242  0.5016 -3.1721  1.1086
 6173TIP3   OH239933   3.174   0.344  16.374 -0.3519  0.2570 -0.1027
 6173TIP3    H139934   3.080   0.350  16.357 -0.1529  0.2348 -1.2292
 6173TIP3    H239935   3.215   0.382  16.296  0.5583  0.8329  0.6484
 6174TIP3   OH239936   0.732   0.825  15.536 -0.1442  0.1769  0.5578
 6174TIP3    H139937   0.684   0.872  15.468 -0.0738  0.2767  0.5763
 6174TIP3    H239938   0.732   0.885  15.611  2.1905  1.2322 -0.2561
 6175TIP3   OH239939   3.262   0.035   1.353  0.0949 -0.5030 -0.8761
 6175TIP3    H139940   3.182  -0.010   1.327  1.1088 -2.1318 -1.2280
 6175TIP3    H239941   3.289  -0.008   1.434 -0.5394  1.4911  0.4452
 6176TIP3   OH239942   1.544   1.268  13.996  0.8078 -0.0380 -0.1274
 6176TIP3    H139943   1.485   1.339  13.971 -0.0069 -0.9642 -0.8984
 6176TIP3    H239944   1.620   1.312  14.034  0.3000  1.2416 -0.5593
 6177TIP3   OH239945   5.624   4.538   2.393  0.0658  0.6736 -0.0096
 6177TIP3    H139946   5.549   4.525   2.335  1.0933 -0.0900 -1.1959
 6177TIP3    H239947   5.605   4.483   2.469 -0.7268  0.7394 -0.1530
 6178TIP3   OH239948   2.484   4.988  14.175 -0.2836  0.3996 -0.4160
 6178TIP3    H139949   2.576   5.010  14.192 -0.7921  1.7913  0.6395
 6178TIP3    H239950   2.482   4.892  14.177  1.0222  0.3687  0.2815
 6179TIP3   OH239951   2.335   5.726  14.758  0.4495  0.1679 -0.2900
 6179TIP3    H139952   2.300   5.815  14.758  0.3420  0.1473  1.0560
 6179TIP3    H239953   2.374   5.715  14.672  1.1378  1.7940 -0.1991
 6180TIP3   OH239954   4.532   0.872  16.973  1.1844 -0.6174 -0.0101
 6180TIP3    H139955   4.450   0.914  16.947 -0.3770 -3.2342  0.4297
 6180TIP3    H239956   4.566   0.927  17.043  0.2094  0.9403 -0.7305
 6181TIP3   OH239957   4.742   1.215  15.834 -0.3213  0.1952 -0.7004
 6181TIP3    H139958   4.763   1.227  15.927 -0.1665 -1.5506 -0.4882
 6181TIP3    H239959   4.696   1.295  15.810 -0.8211  0.4617  1.0241
 6182TIP3   OH239960   3.114   6.410   1.864  0.4431  0.1731  0.6334
 6182TIP3    H139961   3.144   6.324   1.832  2.3927  1.7501 -1.9985
 6182TIP3    H239962   3.055   6.441   1.795 -0.0551  1.0800  1.4635
 6183TIP3   OH239963   4.164   6.653   4.671  0.6467 -0.2797  0.6446
 6183TIP3    H139964   4.238   6.714   4.677  0.2722  0.1862  0.5620
 6183TIP3    H239965   4.125   6.671   4.585 -0.7771  0.8915  1.4962
 6184TIP3   OH239966   0.164   0.089  16.584 -0.0672 -0.8056  0.3598
 6184TIP3    H139967   0.171   0.011  16.529  0.6821 -1.1774  0.9910
 6184TIP3    H239968   0.194   0.161  16.527  3.0843 -1.5276  1.0630
 6185TIP3   OH239969   4.910   1.232   2.999 -0.1839 -0.0225  0.0018
 6185TIP3    H139970   4.895   1.319   2.962 -2.9514 -0.2805  0.3505
 6185TIP3    H239971   4.829   1.184   2.980  1.0651 -2.3258  0.3555
 6186TIP3   OH239972   4.565   1.285  15.264 -0.8745 -0.1567 -0.5629
 6186TIP3    H139973   4.470   1.277  15.253 -0.7394  0.2330 -2.1994
 6186TIP3    H239974   4.602   1.243  15.186  0.2734  0.1922 -0.2189
 6187TIP3   OH239975   4.985   5.331   0.940  0.2291  0.4967 -0.7394
 6187TIP3    H139976   4.915   5.390   0.910 -0.1322  0.4906  0.0937
 6187TIP3    H239977   4.958   5.244   0.911  0.1959  0.5789 -0.9563
 6188TIP3   OH239978   6.023   1.623  11.823 -0.2096  0.1588 -0.8491
 6188TIP3    H139979   5.981   1.609  11.908  2.4173 -0.0457  0.4576
 6188TIP3    H239980   6.007   1.541  11.776 -0.3880 -0.3061  0.0010
 6189TIP3   OH239981   0.601   5.605   3.198 -0.1860 -0.7011 -0.2952
 6189TIP3    H139982   0.659   5.559   3.259  0.4667  0.9330  0.3552
 6189TIP3    H239983   0.525   5.549   3.190  0.7493 -2.0730  0.1847
 6190TIP3   OH239984   5.882   2.609  14.765  0.2023 -0.4341 -0.6856
 6190TIP3    H139985   5.960   2.654  14.799 -0.0044 -0.6250  0.0369
 6190TIP3    H239986   5.826   2.680  14.733 -1.0537  0.0322  2.3406
 6191TIP3   OH239987   5.935   5.330   0.911  0.0339 -0.4327 -0.3508
 6191TIP3    H139988   6.005   5.266   0.905  0.9072  0.3943  0.8173
 6191TIP3    H239989   5.974   5.405   0.957 -1.4267  0.2794 -0.2315
 6192TIP3   OH239990   4.873   5.579   5.034  0.1345 -0.3643  0.2358
 6192TIP3    H139991   4.811   5.518   4.993  0.8237 -0.6881 -0.3311
 6192TIP3    H239992   4.864   5.562   5.128 -0.5798 -0.4613  0.1561
 6193TIP3   OH239993   5.480   5.037   1.774  0.2491  0.2104 -0.5168
 6193TIP3    H139994   5.449   5.088   1.699 -0.6135  1.1231  0.4520
 6193TIP3    H239995   5.411   5.046   1.839  1.5251  0.4115  0.8326
 6194TIP3   OH239996   1.652   2.743   0.508 -0.4497  0.1698  0.0236
 6194TIP3    H139997   1.611   2.827   0.530  1.9426  1.7866 -1.4290
 6194TIP3    H239998   1.730   2.767   0.458  1.0350 -2.8846  0.7602
 6195TIP3   OH239999   5.414   5.691  11.947  0.9415 -0.8616  0.1527
 6195TIP3    H140000   5.343   5.629  11.963  0.6615 -0.4794  0.3917
 6195TIP3    H240001   5.477   5.673  12.017 -0.0790  0.5005  1.4358
 6196TIP3   OH240002   5.294   0.519   1.119  0.0801  0.1553  0.0433
 6196TIP3    H140003   5.239   0.590   1.153 -0.8844  0.3571 -1.8388
 6196TIP3    H240004   5.359   0.564   1.065  0.5619 -0.2654  0.2757
 6197TIP3   OH240005   3.040   6.554   2.984 -0.3151 -0.0775  0.3246
 6197TIP3    H140006   3.121   6.598   3.010  0.6837 -1.1781 -0.8262
 6197TIP3    H240007   2.984   6.624   2.952  2.2371  0.1866 -3.9936
 6198TIP3   OH240008   5.504   6.745  16.177  0.0790  0.3064  0.2194
 6198TIP3    H140009   5.552   6.817  16.216  0.4691 -0.1667  0.6170
 6198TIP3    H240010   5.571   6.694  16.131 -0.2058  0.2303 -0.1181
 6199TIP3   OH240011   2.076   3.209  12.652  0.3426 -0.1207  0.3946
 6199TIP3    H140012   2.092   3.238  12.742  1.1469  0.4909  0.0695
 6199TIP3    H240013   2.063   3.291  12.603  0.4399 -0.4196 -0.1335
 6200TIP3   OH240014   6.524   0.164  15.057  0.6815  0.0268 -0.0221
 6200TIP3    H140015   6.539   0.123  14.972 -0.8029 -2.7564  0.9757
 6200TIP3    H240016   6.548   0.096  15.120 -3.6288 -0.0803  1.6915
 6201TIP3   OH240017   5.612   6.359  12.330  0.1654  0.1361  0.2180
 6201TIP3    H140018   5.526   6.325  12.352  0.6520 -0.7531  0.7814
 6201TIP3    H240019   5.629   6.326  12.242 -0.5092  1.2001 -0.3235
 6202TIP3   OH240020   5.548   4.072   2.267 -0.2492  0.5889  0.2923
 6202TIP3    H140021   5.486   4.068   2.340 -1.5031  0.6175 -0.7587
 6202TIP3    H240022   5.634   4.060   2.308 -1.0392 -0.6789  1.6106
 6203TIP3   OH240023   2.520   1.727   0.110 -0.0187  0.1648 -0.5876
 6203TIP3    H140024   2.456   1.706   0.179 -1.5688  0.5419 -1.8862
 6203TIP3    H240025   2.508   1.658   0.045  2.6370 -1.1678  0.2730
 6204TIP3   OH240026   0.043   4.827   4.857  0.1658  0.4506 -0.0716
 6204TIP3    H140027  -0.042   4.783   4.851  0.2917  0.2522 -0.4327
 6204TIP3    H240028   0.054   4.847   4.950 -0.5519  1.0194 -0.1035
 6205TIP3   OH240029   4.059   3.651   3.732 -0.4260  0.0715 -0.1511
 6205TIP3    H140030   4.117   3.585   3.770  1.1734  2.0051  0.8360
 6205TIP3    H240031   4.090   3.660   3.642  1.9032  2.2058  0.7946
 6206TIP3   OH240032   0.088   4.236   3.519 -0.1243 -0.7291 -0.1415
 6206TIP3    H140033   0.047   4.313   3.480 -0.2422 -0.0176  1.3738
 6206TIP3    H240034   0.176   4.265   3.544 -0.0900 -1.1430  0.2391
 6207TIP3   OH240035   0.392   6.696   0.307 -0.0812  0.6870 -0.0847
 6207TIP3    H140036   0.457   6.765   0.295 -0.1126  0.5166 -1.2697
 6207TIP3    H240037   0.441   6.614   0.302 -0.2387  0.5847  0.0251
 6208TIP3   OH240038   4.162   1.273   4.546  0.2592  0.1366  0.1767
 6208TIP3    H140039   4.158   1.362   4.512  0.6469 -0.1313 -0.5655
 6208TIP3    H240040   4.192   1.220   4.473  0.3879 -0.5517  0.7215
 6209TIP3   OH240041   2.843   4.697  13.943  0.2870  0.4131  0.6787
 6209TIP3    H140042   2.845   4.647  14.024 -0.0521 -0.4670  0.1541
 6209TIP3    H240043   2.929   4.681  13.903 -0.1047 -0.3550  0.1475
 6210TIP3   OH240044   2.710   3.515   5.763  0.4988  0.1758  0.4000
 6210TIP3    H140045   2.775   3.474   5.819 -0.5980  1.3803  2.6079
 6210TIP3    H240046   2.647   3.555   5.823 -0.5164  1.8317 -1.6719
 6211TIP3   OH240047   1.236   6.227   0.612  0.3982  0.1138  0.1489
 6211TIP3    H140048   1.301   6.159   0.593 -0.6483 -0.7702 -0.3279
 6211TIP3    H240049   1.245   6.242   0.706  0.9875 -0.3258  0.1693
 6212TIP3   OH240050   2.924   6.471  14.231  0.5523 -0.1506 -0.2090
 6212TIP3    H140051   2.915   6.382  14.197  0.8819  0.2661 -1.4371
 6212TIP3    H240052   2.929   6.461  14.326 -0.3809 -1.3609 -0.2795
 6213TIP3   OH240053   3.064   3.041  14.078 -0.4360  0.1054  0.2695
 6213TIP3    H140054   3.019   2.957  14.081  0.7447 -0.6237 -1.4662
 6213TIP3    H240055   3.151   3.021  14.043  0.3133  1.8618  1.0589
 6214TIP3   OH240056   2.840   6.111   5.749 -0.2938  0.1002 -0.4006
 6214TIP3    H140057   2.929   6.076   5.750  0.5684  2.0530 -3.0932
 6214TIP3    H240058   2.802   6.077   5.667 -1.2980  0.9502 -0.3036
 6215TIP3   OH240059   1.253   5.052  15.941 -0.4801 -0.4973  0.2217
 6215TIP3    H140060   1.226   4.986  15.876 -1.2203 -1.4592  1.4752
 6215TIP3    H240061   1.330   5.013  15.984 -0.8562 -0.5065  0.8963
 6216TIP3   OH240062   6.772   5.288   3.353  0.1353 -0.3095 -0.2630
 6216TIP3    H140063   6.736   5.376   3.340 -0.2005 -0.2257  1.0923
 6216TIP3    H240064   6.724   5.233   3.291  1.0900  0.6364 -1.8565
 6217TIP3   OH240065   6.131   3.768   3.247 -0.3308 -0.0892 -0.0612
 6217TIP3    H140066   6.186   3.693   3.266  0.1935  0.1877 -0.4935
 6217TIP3    H240067   6.192   3.839   3.228 -0.8269  0.3279 -0.1253
 6218TIP3   OH240068   5.834   2.249   6.059  0.1057 -0.2636 -0.1285
 6218TIP3    H140069   5.776   2.299   6.116 -1.6357 -1.1423 -1.0910
 6218TIP3    H240070   5.800   2.264   5.970  0.8578 -1.4099 -0.6284
 6219TIP3   OH240071   1.976   3.447  10.222 -0.5218 -0.4385  0.0925
 6219TIP3    H140072   2.065   3.420  10.199 -0.7731 -0.2556 -1.1337
 6219TIP3    H240073   1.974   3.541  10.202 -1.0348 -0.4748 -0.0251
 6220TIP3   OH240074   4.474   4.233  12.494  0.4728 -0.4015  0.6593
 6220TIP3    H140075   4.538   4.299  12.467  0.6182 -1.6157 -2.0880
 6220TIP3    H240076   4.472   4.170  12.422 -1.1715 -2.3201  2.3217
 6221TIP3   OH240077   3.705   2.356  12.509 -0.6102  0.1471 -0.4629
 6221TIP3    H140078   3.674   2.378  12.597 -1.2239  1.0596 -0.9031
 6221TIP3    H240079   3.625   2.344  12.458 -0.2568  1.2536 -1.2948
 6222TIP3   OH240080   5.139   2.441   0.742  0.5969 -0.2110 -0.8867
 6222TIP3    H140081   5.077   2.498   0.698  0.7246  1.5682  1.1808
 6222TIP3    H240082   5.225   2.475   0.718  0.6729  0.5445  0.4292
 6223TIP3   OH240083   4.077   3.106   1.068 -0.1907 -0.3265 -0.5202
 6223TIP3    H140084   4.016   3.067   1.005 -0.7598 -0.0608 -0.1402
 6223TIP3    H240085   4.031   3.101   1.152  0.7373 -1.0765 -0.0505
 6224TIP3   OH240086   0.028   1.828  16.610 -0.4715 -0.2837 -0.3181
 6224TIP3    H140087   0.004   1.910  16.653  1.3445 -0.7947  1.7216
 6224TIP3    H240088  -0.047   1.807  16.555 -1.0758  2.6146 -0.6913
 6225TIP3   OH240089   2.607   4.826   1.292  0.0933  0.3536 -0.4722
 6225TIP3    H140090   2.615   4.804   1.199 -0.5599  0.9134 -0.6685
 6225TIP3    H240091   2.666   4.900   1.305  1.7395 -1.0059  0.0272
 6226TIP3   OH240092   6.709   1.981  12.384 -0.3876 -0.5052 -0.2145
 6226TIP3    H140093   6.729   1.900  12.338 -0.7854 -1.5511  1.3920
 6226TIP3    H240094   6.783   2.038  12.365  0.5450 -1.7177 -0.2975
 6227TIP3   OH240095   6.457   4.157   5.435  0.2310  0.1664  0.3951
 6227TIP3    H140096   6.368   4.183   5.412  0.4682  1.2366  0.6187
 6227TIP3    H240097   6.451   4.064   5.457 -0.8253  0.2368  0.4138
 6228TIP3   OH240098   3.227   6.063  11.063  0.2113 -0.4138 -0.3581
 6228TIP3    H140099   3.204   6.134  11.123  1.6402 -0.8213  0.7107
 6228TIP3    H240100   3.156   5.999  11.073  0.7601 -0.7869  1.4292
 6229TIP3   OH240101   1.753   4.882   1.882 -0.5663  0.4093  0.2130
 6229TIP3    H140102   1.700   4.921   1.951 -0.4403  0.0121  0.5341
 6229TIP3    H240103   1.694   4.821   1.838 -0.0948 -0.7620  1.1973
 6230TIP3   OH240104   4.516   5.245   5.626  0.1905  0.0662  0.0383
 6230TIP3    H140105   4.465   5.164   5.616 -0.2452  0.0356  2.1574
 6230TIP3    H240106   4.459   5.314   5.592 -0.2202 -0.2948 -0.0061
 6231TIP3   OH240107   5.623   0.547  10.907 -0.0648 -0.3442  0.1284
 6231TIP3    H140108   5.660   0.596  10.833 -0.0667 -1.1184 -0.3899
 6231TIP3    H240109   5.699   0.507  10.950 -0.2713 -1.8020 -0.8411
 6232TIP3   OH240110   6.160   5.066   6.224  0.3022 -0.2609 -0.2086
 6232TIP3    H140111   6.095   5.115   6.174  1.8718  1.5182 -0.5655
 6232TIP3    H240112   6.126   5.064   6.313  0.3331  1.7016 -0.1469
 6233TIP3   OH240113   5.666   2.179  16.774  0.1111 -0.0717 -1.0561
 6233TIP3    H140114   5.730   2.116  16.808  1.8929  2.0163 -0.4164
 6233TIP3    H240115   5.716   2.233  16.712 -1.3547  0.7824 -1.5147
 6234TIP3   OH240116   2.877   6.296  16.892  0.1193  0.0308 -0.3737
 6234TIP3    H140117   2.814   6.280  16.963  1.8884 -0.8977  1.0181
 6234TIP3    H240118   2.854   6.383  16.858 -0.0158  0.9797  2.0949
 6235TIP3   OH240119   3.297   4.145   1.231 -0.0145 -0.1487 -0.2331
 6235TIP3    H140120   3.279   4.062   1.186 -0.6729  0.1880 -0.5931
 6235TIP3    H240121   3.338   4.119   1.314 -0.4839 -0.8464 -0.2195
 6236TIP3   OH240122   3.501   0.451   5.222 -0.4565  0.2102 -0.2022
 6236TIP3    H140123   3.581   0.477   5.175 -1.0283  0.2717 -1.1519
 6236TIP3    H240124   3.477   0.529   5.272 -0.6908  0.6478 -0.9878
 6237TIP3   OH240125   2.549   2.117  11.736 -0.4381 -0.1262  0.3926
 6237TIP3    H140126   2.639   2.150  11.740  0.2001 -1.5195 -1.4560
 6237TIP3    H240127   2.558   2.027  11.706 -2.4896 -0.0714 -0.4702
 6238TIP3   OH240128   3.874   4.819  13.636 -0.3554  0.0221 -0.0578
 6238TIP3    H140129   3.935   4.754  13.601 -1.3432 -0.1082 -1.5669
 6238TIP3    H240130   3.865   4.884  13.566 -1.1787  0.5560  0.5314
 6239TIP3   OH240131   1.815   2.208   2.959 -0.2465 -0.8969  0.1220
 6239TIP3    H140132   1.831   2.275   3.025  0.1712 -1.4228  0.5629
 6239TIP3    H240133   1.899   2.198   2.914 -0.0978 -1.6562  0.5598
 6240TIP3   OH240134   3.188   1.997  11.594  0.0759 -0.6705  0.6204
 6240TIP3    H140135   3.230   1.974  11.512 -1.0287  2.9226 -1.0637
 6240TIP3    H240136   3.249   2.057  11.637 -1.5247  1.4376  0.0143
 6241TIP3   OH240137   6.738   4.084  13.277 -0.0076  0.1636 -0.6523
 6241TIP3    H140138   6.704   4.013  13.222 -2.5007  0.8456 -0.0499
 6241TIP3    H240139   6.738   4.161  13.220  1.3674  0.0189 -0.8827
 6242TIP3   OH240140   4.624   0.301  17.071  0.3517 -0.0138 -0.7461
 6242TIP3    H140141   4.580   0.345  17.143  1.2175  0.6283 -0.5949
 6242TIP3    H240142   4.554   0.257  17.023 -0.4574  1.0661 -0.5647
 6243TIP3   OH240143   5.432   4.503   0.633  0.0681 -0.1321 -0.6299
 6243TIP3    H140144   5.375   4.507   0.710  0.4622  0.4341 -0.3630
 6243TIP3    H240145   5.434   4.411   0.609  0.5770 -0.4339  0.5257
 6244TIP3   OH240146   3.495   2.883   0.049 -0.1321 -1.1151  0.2965
 6244TIP3    H140147   3.402   2.902   0.044  0.2193  0.6570  0.1410
 6244TIP3    H240148   3.521   2.912   0.136  0.5783 -0.1265 -0.2301
 6245TIP3   OH240149   5.546   5.443  14.577  0.5313  0.4207 -0.1645
 6245TIP3    H140150   5.572   5.518  14.631  1.9690 -0.2379  0.0895
 6245TIP3    H240151   5.558   5.474  14.487  1.4085  0.4101 -0.0559
 6246TIP3   OH240152   4.791   3.172  12.251  0.3509 -0.0346  0.0783
 6246TIP3    H140153   4.794   3.135  12.339  1.4481  0.9104  0.4567
 6246TIP3    H240154   4.710   3.139  12.214 -0.7702  0.5810  1.9144
 6247TIP3   OH240155   2.826   1.177   1.932  0.1036  0.3421 -0.1522
 6247TIP3    H140156   2.848   1.136   1.848  1.3468  0.9363 -0.1249
 6247TIP3    H240157   2.865   1.120   1.998  3.1836  2.3182 -0.1681
 6248TIP3   OH240158   1.198   2.082   3.573  0.1608 -0.4234  0.6842
 6248TIP3    H140159   1.271   2.038   3.617 -0.1432 -0.8949  0.7219
 6248TIP3    H240160   1.223   2.083   3.480  0.2438 -0.5261  0.7054
 6249TIP3   OH240161   3.458   1.137   4.797  0.2998 -0.2327 -0.1166
 6249TIP3    H140162   3.489   1.195   4.866 -1.9136 -2.1937  2.6417
 6249TIP3    H240163   3.375   1.176   4.769  1.7737  1.2350 -2.6308
 6250TIP3   OH240164   0.381   5.321  12.586  0.6032  0.1346 -0.3019
 6250TIP3    H140165   0.363   5.342  12.495  0.3502  1.0467 -0.0500
 6250TIP3    H240166   0.350   5.397  12.635  0.6597 -0.3796  0.5517
 6251TIP3   OH240167   2.389   0.546   3.563 -0.1684 -0.5007 -0.1944
 6251TIP3    H140168   2.442   0.618   3.596  0.9626 -1.2242 -0.3903
 6251TIP3    H240169   2.453   0.481   3.532 -1.0470 -3.0481  3.0319
 6252TIP3   OH240170   6.710   2.906   6.038 -0.3089 -0.5659  0.6405
 6252TIP3    H140171   6.723   2.984   6.091 -1.3227 -0.0344  0.1173
 6252TIP3    H240172   6.790   2.855   6.050  1.6336  1.8842 -1.3181
 6253TIP3   OH240173   4.458   0.919   1.160 -0.1098 -0.3072  0.3529
 6253TIP3    H140174   4.440   0.895   1.069 -2.0593 -1.5443  1.0203
 6253TIP3    H240175   4.551   0.898   1.172  0.4068  0.7181 -1.5768
 6254TIP3   OH240176   6.043   5.090   3.899 -0.4093  0.0372 -0.1998
 6254TIP3    H140177   6.060   5.045   3.982  1.3167  0.5488 -0.2493
 6254TIP3    H240178   5.973   5.040   3.858 -0.2293 -1.1249  0.8779
 6255TIP3   OH240179   6.588   2.334   3.285 -0.8923 -0.4863 -0.1561
 6255TIP3    H140180   6.668   2.330   3.232 -0.4384  0.5183  0.4302
 6255TIP3    H240181   6.551   2.421   3.266 -0.7443 -0.1266  1.1176
 6256TIP3   OH240182   0.900   1.885  15.667 -0.0585  0.2762  0.1340
 6256TIP3    H140183   0.970   1.885  15.602 -0.1257 -0.6206  0.0490
 6256TIP3    H240184   0.835   1.824  15.631 -0.9735  1.2553  0.1108
 6257TIP3   OH240185   4.944   0.275   2.721 -0.2501 -0.3642 -0.3193
 6257TIP3    H140186   4.975   0.201   2.773 -0.9166  0.5823  1.4616
 6257TIP3    H240187   5.022   0.328   2.705  0.0085 -0.8110 -0.5666
 6258TIP3   OH240188   5.254   3.992   4.277 -0.0079  0.4810  0.2265
 6258TIP3    H140189   5.305   3.966   4.354  0.2056  0.5720  0.1146
 6258TIP3    H240190   5.286   3.936   4.207  2.3199  2.8377 -0.6528
 6259TIP3   OH240191   3.903   3.027   0.856  0.1217  1.0892 -0.2070
 6259TIP3    H140192   3.933   3.027   0.765  1.2776 -0.0554  0.1725
 6259TIP3    H240193   3.809   3.043   0.849  0.3981  2.2852 -1.5296
 6260TIP3   OH240194   1.579   5.061  11.372 -0.3288 -0.4379  0.0540
 6260TIP3    H140195   1.657   5.060  11.318 -0.7104  2.1545 -0.5916
 6260TIP3    H240196   1.610   5.080  11.460 -0.1102 -0.8941  0.0785
 6261TIP3   OH240197   5.040   1.949  13.164  0.0359  0.4542  0.3390
 6261TIP3    H140198   5.017   1.861  13.195 -0.8950  0.9061  0.9522
 6261TIP3    H240199   5.072   1.994  13.243 -0.4719  0.9842  0.2458
 6262TIP3   OH240200   3.541   1.692  16.449 -0.5100 -0.3826 -0.1548
 6262TIP3    H140201   3.567   1.681  16.357 -0.0209 -0.6253  0.0102
 6262TIP3    H240202   3.569   1.612  16.492  0.0052  0.0752  0.3788
 6263TIP3   OH240203   3.753   0.777  11.734  0.2374 -0.3661 -0.1160
 6263TIP3    H140204   3.760   0.773  11.830 -0.5858 -0.0924 -0.0484
 6263TIP3    H240205   3.714   0.693  11.709  0.0526 -0.2622 -0.1768
 6264TIP3   OH240206   0.454   1.049   0.941 -0.0471  0.5532 -0.1930
 6264TIP3    H140207   0.473   1.081   0.852  0.7041 -0.1230 -0.2828
 6264TIP3    H240208   0.385   1.107   0.973 -0.4444  0.6933 -1.2826
 6265TIP3   OH240209   4.955   1.710  15.519 -0.1588 -0.5021  0.1173
 6265TIP3    H140210   4.959   1.730  15.426  2.2403 -1.0232  0.0772
 6265TIP3    H240211   5.003   1.781  15.561  1.7525 -2.0711  0.6450
 6266TIP3   OH240212   3.641   6.691   2.120  0.3989  0.3368  0.5395
 6266TIP3    H140213   3.590   6.656   2.046  0.6389  1.1729 -0.0212
 6266TIP3    H240214   3.621   6.631   2.192  0.1327 -0.4669 -0.1880
 6267TIP3   OH240215   6.094   2.221   2.678  0.4492 -0.0191 -0.1579
 6267TIP3    H140216   6.093   2.316   2.680  1.6811 -0.0160  0.6352
 6267TIP3    H240217   6.006   2.197   2.647  0.0676  1.3540 -0.1795
 6268TIP3   OH240218   0.675   2.792   3.445 -0.1835  0.2021  0.0908
 6268TIP3    H140219   0.696   2.867   3.502 -3.0179  2.9192 -2.2060
 6268TIP3    H240220   0.735   2.800   3.372  0.9535 -1.0809  0.8706
 6269TIP3   OH240221   2.415   3.657   5.023 -0.3082 -0.4968 -0.2330
 6269TIP3    H140222   2.325   3.623   5.024 -1.0771  1.4458  2.6305
 6269TIP3    H240223   2.406   3.749   4.999  0.7536  0.0633  1.4392
 6270TIP3   OH240224   2.690   4.031   1.043  0.4556  0.5303  0.8288
 6270TIP3    H140225   2.745   3.961   1.078  2.2403  1.3952 -0.1593
 6270TIP3    H240226   2.601   3.996   1.045  1.2270 -1.4314  1.1278
 6271TIP3   OH240227   1.747   1.786  15.317  0.1288  0.8472  0.3681
 6271TIP3    H140228   1.841   1.782  15.299  0.5382  1.2076  2.3069
 6271TIP3    H240229   1.724   1.878  15.302  0.9461  1.6571  3.8204
 6272TIP3   OH240230   1.528   3.091   2.091  0.0603 -0.5026 -0.5167
 6272TIP3    H140231   1.589   3.101   2.018  2.0803  1.2594  1.3211
 6272TIP3    H240232   1.570   3.026   2.148  0.1711  0.6117  0.6878
 6273TIP3   OH240233   1.322   1.482   6.386  0.2132 -0.0735  0.0801
 6273TIP3    H140234   1.354   1.402   6.427 -1.6210 -0.6097  0.5047
 6273TIP3    H240235   1.307   1.542   6.458 -2.0401 -0.6664  0.1345
 6274TIP3   OH240236   1.132   5.946   2.263 -0.1863 -0.5205  0.0270
 6274TIP3    H140237   1.157   5.895   2.186 -0.5643 -2.3645  1.1101
 6274TIP3    H240238   1.052   5.992   2.237  0.5340  0.0801 -1.1828
 6275TIP3   OH240239   3.855   2.799   3.189 -0.1147 -0.0427 -0.2211
 6275TIP3    H140240   3.920   2.823   3.254 -2.4184  0.0550  2.1187
 6275TIP3    H240241   3.827   2.882   3.151  0.5628 -0.0232 -0.6824
 6276TIP3   OH240242   1.491   3.157   5.260 -0.0071 -0.0090 -0.1768
 6276TIP3    H140243   1.427   3.087   5.272 -0.1894  0.0910 -0.5525
 6276TIP3    H240244   1.478   3.215   5.336  0.1366 -0.3754  0.1266
 6277TIP3   OH240245   3.659   6.532   2.820 -0.1358  0.0156 -0.5296
 6277TIP3    H140246   3.640   6.563   2.732  0.9688  0.2183 -0.6962
 6277TIP3    H240247   3.575   6.537   2.866 -0.7135 -0.1217 -1.5714
 6278TIP3   OH240248   3.537   4.531   4.297  0.5754  0.0121 -0.3026
 6278TIP3    H140249   3.464   4.511   4.356  0.9877 -0.2892  0.1107
 6278TIP3    H240250   3.570   4.445   4.270  1.4841  0.1364  0.3944
 6279TIP3   OH240251   3.063   5.645   0.755 -0.5490 -0.2548  0.0981
 6279TIP3    H140252   3.035   5.673   0.843 -2.3180 -1.0014 -0.2045
 6279TIP3    H240253   3.136   5.586   0.771  0.4235  1.1479  0.9622
 6280TIP3   OH240254   1.373   0.910  15.204  0.5287  0.8069  0.2227
 6280TIP3    H140255   1.441   0.844  15.189 -1.0583 -0.9029  0.3730
 6280TIP3    H240256   1.382   0.932  15.296 -1.2906 -1.9783  1.1364
 6281TIP3   OH240257   6.746   5.312   4.613  0.2539 -0.2592  0.3020
 6281TIP3    H140258   6.673   5.351   4.564  1.4985  2.0447  0.1959
 6281TIP3    H240259   6.705   5.275   4.691 -1.0247  1.2805  0.3974
 6282TIP3   OH240260   5.196   4.811  11.239 -0.2911 -0.0556  0.4622
 6282TIP3    H140261   5.194   4.716  11.252 -0.1528  0.1144  1.7378
 6282TIP3    H240262   5.281   4.828  11.198  0.1880 -0.3472  1.3243
 6283TIP3   OH240263   5.699   5.942  12.247 -0.2334  0.2643  0.2856
 6283TIP3    H140264   5.748   5.877  12.197 -0.9365 -1.5489  1.8763
 6283TIP3    H240265   5.646   5.989  12.181 -1.7523 -2.6011 -0.6169
 6284TIP3   OH240266   2.185   0.918   5.294 -0.3699 -0.4454  0.4980
 6284TIP3    H140267   2.258   0.969   5.260  0.0026  0.3602  2.4447
 6284TIP3    H240268   2.223   0.863   5.362 -1.1852 -1.6923 -0.0303
 6285TIP3   OH240269   2.645   2.240  12.909 -0.1231  0.0936  0.3971
 6285TIP3    H140270   2.637   2.326  12.951  1.7803 -0.3135  1.6118
 6285TIP3    H240271   2.691   2.257  12.827  1.1347  0.1163  1.0953
 6286TIP3   OH240272   1.840   0.429  13.672  0.1720  0.3478  0.2703
 6286TIP3    H140273   1.787   0.363  13.626 -0.9260 -1.0735  3.4590
 6286TIP3    H240274   1.849   0.501  13.609  0.7417 -2.4764 -3.0250
 6287TIP3   OH240275   5.978   2.702   0.761  0.5169  0.3990  0.7849
 6287TIP3    H140276   6.049   2.659   0.809  0.8603  0.3568  0.2320
 6287TIP3    H240277   6.020   2.775   0.716  0.3835 -0.2193 -0.3454
 6288TIP3   OH240278   3.999   0.192  14.008 -0.3165 -0.3579 -0.2274
 6288TIP3    H140279   3.938   0.259  13.975  1.1410  1.0314 -0.1676
 6288TIP3    H240280   3.968   0.110  13.969 -2.6643  0.1948  0.4108
 6289TIP3   OH240281   2.785   4.472   3.853  0.3951  0.1889  0.3868
 6289TIP3    H140282   2.755   4.411   3.786  0.3068 -0.2950  0.8673
 6289TIP3    H240283   2.755   4.558   3.822 -0.1791 -0.1082  0.1190
 6290TIP3   OH240284   3.289   1.282  13.882  0.0605 -0.0398  0.5356
 6290TIP3    H140285   3.281   1.373  13.856  2.5507 -0.2000 -0.9026
 6290TIP3    H240286   3.222   1.237  13.831  0.4008  0.6465 -0.5295
 6291TIP3   OH240287   4.061   5.996  14.752  0.1675  0.4006  0.0429
 6291TIP3    H140288   4.025   6.066  14.698  2.6945  1.7532  0.0405
 6291TIP3    H240289   4.092   6.040  14.831 -1.5944 -1.2668  1.7269
 6292TIP3   OH240290   2.527   0.416  16.335  0.3973 -0.4707  0.1217
 6292TIP3    H140291   2.522   0.327  16.370  0.7859 -1.0732 -1.2761
 6292TIP3    H240292   2.466   0.415  16.261 -1.1381  1.0428  1.3429
 6293TIP3   OH240293   6.224   6.604   5.242  0.0222 -0.2720  0.5174
 6293TIP3    H140294   6.182   6.525   5.209 -1.9829  1.0135 -0.1638
 6293TIP3    H240295   6.199   6.608   5.334  0.4007 -0.6135  0.6326
 6294TIP3   OH240296   1.868   5.890   2.249 -0.3833 -0.4282  0.3413
 6294TIP3    H140297   1.802   5.932   2.305  2.4530  1.3876  2.4845
 6294TIP3    H240298   1.892   5.811   2.296 -1.7255 -1.6265 -0.9506
 6295TIP3   OH240299   4.166   2.724   0.401  0.1853 -0.2963  0.1812
 6295TIP3    H140300   4.165   2.782   0.325 -1.0521  1.3025  1.3881
 6295TIP3    H240301   4.094   2.754   0.456 -1.2311 -3.7193  0.3204
 6296TIP3   OH240302   2.106   4.748  15.072 -0.4016 -0.0163  0.1067
 6296TIP3    H140303   2.099   4.836  15.109  0.9895 -1.0115  2.8921
 6296TIP3    H240304   2.189   4.749  15.024  0.2007 -0.1082  1.1172
 6297TIP3   OH240305   3.270   4.878  16.575  0.1669 -0.2156 -0.1234
 6297TIP3    H140306   3.199   4.853  16.634 -0.0793  0.4208 -0.1477
 6297TIP3    H240307   3.263   4.816  16.502 -1.5552  1.0069 -1.0420
 6298TIP3   OH240308   1.787   4.535   6.192 -0.0133 -0.4073  0.6761
 6298TIP3    H140309   1.801   4.629   6.205 -1.1015 -0.0843 -0.3063
 6298TIP3    H240310   1.692   4.527   6.183  0.2422 -1.2384 -1.7207
 6299TIP3   OH240311   3.622   2.025   0.480  0.5184  0.5546  0.1731
 6299TIP3    H140312   3.643   2.106   0.433  1.1733 -1.8213 -3.9183
 6299TIP3    H240313   3.708   1.991   0.506  0.3381  0.4810  0.6694
 6300TIP3   OH240314   0.663   1.213  14.420  1.0150  0.1195  0.0484
 6300TIP3    H140315   0.660   1.294  14.368 -0.6269  1.0152  1.4868
 6300TIP3    H240316   0.675   1.244  14.510  2.5034 -1.3490  0.3735
 6301TIP3   OH240317   1.363   6.567   4.591 -0.4339  0.0398 -0.5426
 6301TIP3    H140318   1.446   6.548   4.548  0.2843  1.5863  0.1150
 6301TIP3    H240319   1.296   6.541   4.528  0.5399 -1.3839 -1.0096
 6302TIP3   OH240320   1.831   2.078   1.082 -0.3685 -0.5591 -0.1055
 6302TIP3    H140321   1.797   2.006   1.029  2.0261 -2.0217  0.2469
 6302TIP3    H240322   1.897   2.037   1.138  0.2618  1.7346  0.8920
 6303TIP3   OH240323   4.726   2.908   2.317  0.0442 -0.7411  0.1393
 6303TIP3    H140324   4.798   2.900   2.380  1.2423 -0.0984 -1.1094
 6303TIP3    H240325   4.754   2.978   2.258 -1.3580 -0.8769 -0.7040
 6304TIP3   OH240326   1.087   2.465   0.515  0.3131 -0.4326 -0.0611
 6304TIP3    H140327   1.028   2.464   0.440 -1.0185  1.1143  0.9330
 6304TIP3    H240328   1.072   2.550   0.556  1.0352 -1.2527  1.9478
 6305TIP3   OH240329   0.877   0.138  15.491 -0.4323 -0.1871  0.4990
 6305TIP3    H140330   0.881   0.191  15.570  1.0031  2.1568 -1.1169
 6305TIP3    H240331   0.917   0.055  15.516 -0.3896  0.3690  2.3328
 6306TIP3   OH240332   2.244   3.434  10.186 -0.3461  0.1138 -0.7371
 6306TIP3    H140333   2.300   3.412  10.260 -1.0043 -0.0458 -0.2871
 6306TIP3    H240334   2.261   3.527  10.170 -0.1897  0.1404 -0.4073
 6307TIP3   OH240335   5.498   5.694  10.410  0.1569 -0.0644 -0.1472
 6307TIP3    H140336   5.490   5.634  10.484 -1.8882  1.4145  0.8728
 6307TIP3    H240337   5.584   5.734  10.421  0.9505 -1.7360 -0.0510
 6308TIP3   OH240338   5.178   6.759  12.634 -0.2009  0.2409  0.6847
 6308TIP3    H140339   5.258   6.808  12.654 -0.9825  1.0892  1.8351
 6308TIP3    H240340   5.151   6.790  12.548  0.5036  0.2324  0.4595
 6309TIP3   OH240341   2.407   2.318   1.294  0.1593  0.3506  0.1112
 6309TIP3    H140342   2.408   2.343   1.202 -0.6224  0.7086  0.1928
 6309TIP3    H240343   2.499   2.312   1.318  0.4784 -3.4688 -1.6674
 6310TIP3   OH240344   1.875   4.090   2.815 -0.9819 -0.0624 -0.7010
 6310TIP3    H140345   1.849   4.180   2.794 -1.1535  0.3157  1.0940
 6310TIP3    H240346   1.959   4.098   2.859 -2.0820 -0.5574  1.5901
 6311TIP3   OH240347   6.417   4.130   2.542 -0.5637  0.0350  0.2132
 6311TIP3    H140348   6.428   4.127   2.637 -1.5944 -2.1376  0.3003
 6311TIP3    H240349   6.489   4.077   2.508 -0.7675 -0.0099 -0.1565
 6312TIP3   OH240350   2.926   1.056   1.701  0.4326  0.3287  0.0964
 6312TIP3    H140351   2.902   0.965   1.684  0.6245  0.4879 -1.0904
 6312TIP3    H240352   3.021   1.057   1.695  0.3656  0.8071 -0.9351
 6313TIP3   OH240353   2.700   1.597   6.241  0.3215 -0.3271 -0.6046
 6313TIP3    H140354   2.775   1.538   6.226  0.6578 -0.2286  0.5877
 6313TIP3    H240355   2.626   1.538   6.253  0.6453 -0.5209  0.5207
 6314TIP3   OH240356   2.646   0.595  14.005  0.3048  0.1999 -0.0153
 6314TIP3    H140357   2.621   0.530  13.940  0.1803  1.7743 -1.6040
 6314TIP3    H240358   2.564   0.618  14.049  0.3992 -0.9185  0.7534
 6315TIP3   OH240359   2.473   3.102  13.308 -0.3568 -0.3393 -0.4496
 6315TIP3    H140360   2.460   3.110  13.402  2.0520 -0.1584 -0.1012
 6315TIP3    H240361   2.412   3.034  13.281  1.0168 -2.5112  1.7426
 6316TIP3   OH240362   5.084   2.993   6.382 -0.0571  0.4264 -0.7847
 6316TIP3    H140363   5.147   3.017   6.449  0.1003  0.1845 -0.8450
 6316TIP3    H240364   5.016   3.060   6.388 -0.0130  0.4396 -0.4257
 6317TIP3   OH240365   6.009   3.421   4.596  0.5251  0.2600 -0.8921
 6317TIP3    H140366   6.030   3.440   4.688  0.8778 -1.8857 -0.5223
 6317TIP3    H240367   6.091   3.436   4.549  0.3882  1.1967 -0.8419
 6318TIP3   OH240368   3.303   3.541  15.570  0.1180  0.3129 -0.8969
 6318TIP3    H140369   3.303   3.606  15.640 -0.6482 -1.3586  0.7125
 6318TIP3    H240370   3.392   3.508  15.567  0.2416  0.6554 -0.9572
 6319TIP3   OH240371   3.562   0.880  13.236  0.2266  0.3026  0.6561
 6319TIP3    H140372   3.499   0.908  13.169  2.5479  3.4130 -0.3300
 6319TIP3    H240373   3.543   0.936  13.311  1.4772  0.9783  0.4904
 6320TIP3   OH240374   2.378   4.204   1.305 -0.3657 -0.3201 -0.0685
 6320TIP3    H140375   2.358   4.234   1.216 -0.8031 -0.2550  0.0512
 6320TIP3    H240376   2.452   4.144   1.294  1.2513  1.6655 -0.1664
 6321TIP3   OH240377   5.303   3.157   4.949  0.4839  0.1130  0.7035
 6321TIP3    H140378   5.342   3.071   4.929  1.4423  1.1641 -2.0781
 6321TIP3    H240379   5.272   3.148   5.040  1.7383 -2.7415  0.9070
 6322TIP3   OH240380   1.919   1.394  11.584  0.4402 -0.2025 -0.1397
 6322TIP3    H140381   1.943   1.485  11.600 -0.7299  0.4531 -1.9046
 6322TIP3    H240382   1.940   1.380  11.491  1.0372 -1.8727  0.2238
 6323TIP3   OH240383   1.777   6.463   2.515  0.2051 -0.1415  0.1099
 6323TIP3    H140384   1.711   6.527   2.543 -0.3209 -0.1126 -1.1697
 6323TIP3    H240385   1.842   6.464   2.586 -0.9315  0.1600  1.1727
 6324TIP3   OH240386   2.108   3.318   3.042  0.2326  0.5167  0.0153
 6324TIP3    H140387   2.088   3.344   2.952 -0.9600 -1.7335 -0.4211
 6324TIP3    H240388   2.027   3.335   3.091  0.2667  0.0159  0.2533
 6325TIP3   OH240389   1.354   2.247  13.481  0.2958  0.3827  0.2480
 6325TIP3    H140390   1.322   2.299  13.407 -0.8809 -1.6463 -0.7253
 6325TIP3    H240391   1.297   2.170  13.482  0.9526 -0.1116  2.6598
 6326TIP3   OH240392   5.874   0.580   1.062  0.1351  0.0026 -0.2821
 6326TIP3    H140393   5.807   0.549   1.123 -0.1442 -0.5323 -0.8518
 6326TIP3    H240394   5.838   0.662   1.027  1.1274  1.2933  1.6473
 6327TIP3   OH240395   3.329   4.764  14.866 -0.3333  0.5116 -0.3566
 6327TIP3    H140396   3.416   4.801  14.881 -0.3389  0.9134 -1.2893
 6327TIP3    H240397   3.327   4.685  14.920  0.6331  0.4614 -0.3865
 6328TIP3   OH240398   1.098   4.326  14.355  0.1718  0.1809 -0.1764
 6328TIP3    H140399   1.129   4.312  14.444  0.5570 -1.1282 -0.4995
 6328TIP3    H240400   1.170   4.295  14.300 -0.7133 -0.5340 -0.9394
 6329TIP3   OH240401   4.987   3.169  15.688 -0.2573 -0.0170  0.4699
 6329TIP3    H140402   5.071   3.213  15.675 -0.7010  0.5888 -0.3678
 6329TIP3    H240403   4.933   3.234  15.732 -0.1288 -0.5859  1.4814
 6330TIP3   OH240404   2.646   2.608   4.464 -0.3488  0.1474  0.2270
 6330TIP3    H140405   2.691   2.660   4.397 -1.2534  0.6071 -0.0288
 6330TIP3    H240406   2.682   2.640   4.547  0.6325 -0.2850 -0.0204
 6331TIP3   OH240407   4.555   3.315  17.209 -0.3177  0.0088 -0.5344
 6331TIP3    H140408   4.551   3.307  17.304 -1.7971 -0.5709 -0.6397
 6331TIP3    H240409   4.607   3.241  17.180 -1.0978 -0.6403 -0.2843
 6332TIP3   OH240410   3.068   6.190   5.395 -0.3619  0.1825  0.4431
 6332TIP3    H140411   3.155   6.151   5.398 -1.0891 -1.5255  0.0804
 6332TIP3    H240412   3.018   6.133   5.336 -0.9124  2.7965 -1.7492
 6333TIP3   OH240413   6.337   3.241  15.831  0.3603  0.0522  0.2940
 6333TIP3    H140414   6.346   3.298  15.755  1.0914  1.0527  1.1109
 6333TIP3    H240415   6.388   3.163  15.810 -0.4271 -0.1914 -0.7288
 6334TIP3   OH240416   1.001   3.512   1.629  0.4218  0.2055  0.5240
 6334TIP3    H140417   0.996   3.459   1.708  1.8277  0.1016  0.5529
 6334TIP3    H240418   1.094   3.511   1.605  0.3698  2.0881  0.1525
 6335TIP3   OH240419   0.101   3.559  17.021  0.7770  0.2912 -0.1219
 6335TIP3    H140420   0.150   3.526  16.946  0.4790  0.8608 -0.5619
 6335TIP3    H240421   0.026   3.604  16.984 -0.8271 -1.7267  0.5916
 6336TIP3   OH240422   2.076   5.951  13.081 -0.6428 -0.0218 -0.2603
 6336TIP3    H140423   2.064   6.028  13.137  0.1560 -0.5764  0.7050
 6336TIP3    H240424   2.031   5.973  13.000 -0.8878  1.2451  0.2002
 6337TIP3   OH240425   1.294   2.705   4.758  0.6559 -0.2092 -0.1900
 6337TIP3    H140426   1.380   2.746   4.746  1.4219 -1.4020  1.0772
 6337TIP3    H240427   1.294   2.631   4.697  1.5668 -1.7417  1.6144
 6338TIP3   OH240428   5.411   3.000  14.523  0.1212 -0.0004 -0.3994
 6338TIP3    H140429   5.415   2.922  14.579 -0.3606  0.8617  0.8582
 6338TIP3    H240430   5.322   3.000  14.488 -0.0268  0.2477 -0.0216
 6339TIP3   OH240431   0.039   1.844  14.042 -0.1536  0.1893  0.5248
 6339TIP3    H140432   0.007   1.934  14.033 -2.2617 -0.5802 -0.0222
 6339TIP3    H240433   0.019   1.820  14.132 -1.7635 -0.5350 -0.0256
 6340TIP3   OH240434   2.548   3.157   1.266  0.3096 -0.0479 -0.3158
 6340TIP3    H140435   2.550   3.148   1.171  0.2049  0.3322 -0.3546
 6340TIP3    H240436   2.464   3.198   1.285  0.3900  0.0055 -0.0698
 6341TIP3   OH240437   2.724   5.558  11.465 -0.2975 -0.2293  0.3838
 6341TIP3    H140438   2.808   5.514  11.447 -0.1496  0.1763  0.0905
 6341TIP3    H240439   2.742   5.614  11.540  0.3695  1.8012 -1.2666
 6342TIP3   OH240440   6.251   4.594   1.308  0.0006 -0.7629 -0.1650
 6342TIP3    H140441   6.324   4.602   1.369  0.6518 -0.2587 -1.0008
 6342TIP3    H240442   6.185   4.656   1.341 -0.0784 -1.2604  0.6200
 6343TIP3   OH240443   6.362   1.305   1.129  0.1103  0.8890  0.2669
 6343TIP3    H140444   6.373   1.236   1.195  0.4530 -0.4665 -1.1886
 6343TIP3    H240445   6.394   1.385   1.173  0.4343 -0.0063  1.7024
 6344TIP3   OH240446   4.173   0.503  15.330 -0.1328  0.4039 -0.3993
 6344TIP3    H140447   4.190   0.414  15.298  0.3786  0.5878 -0.6595
 6344TIP3    H240448   4.259   0.534  15.359  0.1958  1.7495 -2.6969
 6345TIP3   OH240449   2.475   2.677  15.175 -0.4296  0.2274 -0.1402
 6345TIP3    H140450   2.532   2.752  15.159  1.0007 -1.1899 -1.7900
 6345TIP3    H240451   2.404   2.687  15.112 -0.4851  0.4094 -0.0509
 6346TIP3   OH240452   6.142   2.378   0.633 -0.7425  0.4723 -0.0606
 6346TIP3    H140453   6.148   2.301   0.577  0.6987 -0.6272  1.5861
 6346TIP3    H240454   6.230   2.414   0.635 -0.7451  0.4301  1.5944
 6347TIP3   OH240455   4.823   1.389  13.260  0.0315  0.5502  0.1264
 6347TIP3    H140456   4.833   1.376  13.354 -2.3954 -1.8546  0.1292
 6347TIP3    H240457   4.785   1.476  13.251 -1.0512  0.2226  1.4616
 6348TIP3   OH240458   1.777   1.147  13.221 -0.2033 -0.3062  0.0499
 6348TIP3    H140459   1.732   1.200  13.155 -0.9318 -1.6953 -0.5926
 6348TIP3    H240460   1.805   1.210  13.287 -3.1549  0.6179  0.5103
 6349TIP3   OH240461   4.273   5.294   4.718 -0.5149 -0.0168  0.9291
 6349TIP3    H140462   4.364   5.316   4.700 -1.2909  1.7200 -1.1471
 6349TIP3    H240463   4.239   5.369   4.766 -0.5751 -1.1796  2.7679
 6350TIP3   OH240464   4.829   5.067  12.290  0.1263  0.6198  0.0943
 6350TIP3    H140465   4.834   5.052  12.196  0.5056  1.3185 -0.0039
 6350TIP3    H240466   4.834   4.980  12.329  0.1173  0.3417 -0.5287
 6351TIP3   OH240467   4.232   0.678  11.859 -0.3779  0.2339  0.4859
 6351TIP3    H140468   4.268   0.736  11.792 -0.0296  0.3466  0.7713
 6351TIP3    H240469   4.155   0.638  11.817 -1.6080  2.1631  0.8790
 6352TIP3   OH240470   2.405   1.944  13.974 -0.2108  0.6360 -0.1615
 6352TIP3    H140471   2.382   1.927  14.066  1.7457 -1.4907 -0.0147
 6352TIP3    H240472   2.359   1.876  13.925  1.6640 -0.4951 -0.3707
 6353TIP3   OH240473   4.867   5.474  14.276  0.3256  0.9492  0.5494
 6353TIP3    H140474   4.776   5.463  14.304  0.5555 -0.3724  0.7927
 6353TIP3    H240475   4.864   5.548  14.215 -1.2527 -0.3824 -1.0489
 6354TIP3   OH240476   4.697   6.320  15.220  0.5864  0.4921 -0.4038
 6354TIP3    H140477   4.723   6.240  15.265  2.7483  0.2899 -1.9185
 6354TIP3    H240478   4.678   6.293  15.131 -1.4815  1.2300 -0.2003
 6355TIP3   OH240479   2.756   0.765  11.161  0.2509  0.1187  0.9785
 6355TIP3    H140480   2.827   0.747  11.223  2.5283  3.3453 -0.5618
 6355TIP3    H240481   2.775   0.710  11.086 -0.4593 -1.0620  1.6471
 6356TIP3   OH240482   5.537   0.430  12.096 -0.3243  0.3080  0.0816
 6356TIP3    H140483   5.606   0.463  12.153 -0.3032 -1.6859  1.2479
 6356TIP3    H240484   5.585   0.386  12.025 -0.3767 -0.1328  0.3173
 6357TIP3   OH240485   5.233   6.035   5.351  0.2792  0.5678  0.1969
 6357TIP3    H140486   5.324   6.040   5.380  0.2317 -1.3554  0.7164
 6357TIP3    H240487   5.196   5.963   5.401 -1.4956  1.2323 -0.1419
 6358TIP3   OH240488   5.808   3.866   6.371 -0.2577 -0.2365  0.3020
 6358TIP3    H140489   5.732   3.881   6.314  0.8354  2.0624 -0.6010
 6358TIP3    H240490   5.807   3.940   6.432  2.5054  1.0401 -1.1337
 6359TIP3   OH240491   5.079   0.207  11.857  0.0618  0.2001 -0.2797
 6359TIP3    H140492   5.152   0.151  11.881 -0.0183  0.8625  1.5938
 6359TIP3    H240493   5.018   0.149  11.811 -0.1288 -1.2900  1.8134
 6360TIP3   OH240494   1.026   6.148   3.541 -0.4107 -0.2472  0.3544
 6360TIP3    H140495   0.993   6.238   3.538 -1.7449 -0.7798 -1.9361
 6360TIP3    H240496   0.980   6.109   3.616  1.8271  1.5540  2.7299
 6361TIP3   OH240497   5.782   3.326   6.269 -0.4782  0.2063 -0.2170
 6361TIP3    H140498   5.878   3.334   6.274 -0.4762 -0.1192  0.2484
 6361TIP3    H240499   5.758   3.383   6.196  0.0865  0.1825 -0.4317
 6362TIP3   OH240500   0.630   4.085  14.111 -0.3286 -0.1796 -0.4571
 6362TIP3    H140501   0.580   4.046  14.183  0.3735  0.1784  0.2280
 6362TIP3    H240502   0.695   4.018  14.088 -0.6144 -0.3327 -0.8227
 6363TIP3   OH240503   1.018   6.300   0.425 -0.5439  0.6906 -0.1523
 6363TIP3    H140504   1.002   6.217   0.380 -1.3120  1.6389 -1.6843
 6363TIP3    H240505   1.089   6.281   0.487 -1.2339 -1.2802  0.0606
 6364TIP3   OH240506   3.166   1.839  16.070  0.3556  0.8782  0.5582
 6364TIP3    H140507   3.121   1.823  16.153 -0.0356  2.2596  0.6154
 6364TIP3    H240508   3.097   1.833  16.003  0.3170  1.6678  0.5211
 6365TIP3   OH240509   6.705   4.236  14.182 -0.2364 -0.1188 -0.2772
 6365TIP3    H140510   6.762   4.241  14.105  2.6868 -0.1527  1.7839
 6365TIP3    H240511   6.720   4.318  14.229  1.3946 -1.8787  2.4363
 6366TIP3   OH240512   1.523   0.393  13.577 -0.3973  0.0857  0.6131
 6366TIP3    H140513   1.454   0.331  13.552  0.3838 -0.8513  0.7752
 6366TIP3    H240514   1.511   0.405  13.671  1.6555 -2.5958  1.2816
 6367TIP3   OH240515   2.972   0.041   5.483 -0.3810  0.0104 -0.1557
 6367TIP3    H140516   2.905  -0.016   5.519  0.4264 -0.8870 -0.0596
 6367TIP3    H240517   2.924   0.111   5.439 -1.3638 -0.7341 -0.2554
 6368TIP3   OH240518   4.389   3.301  16.577 -0.3542  0.0043  0.3276
 6368TIP3    H140519   4.378   3.358  16.502  0.5814 -1.4381 -0.9226
 6368TIP3    H240520   4.317   3.325  16.636 -3.1642 -1.1963 -2.5165
 6369TIP3   OH240521   2.401   3.739   5.503  0.2774 -1.0155 -0.1364
 6369TIP3    H140522   2.435   3.818   5.545 -0.6730  0.4765 -2.0758
 6369TIP3    H240523   2.307   3.743   5.517  0.2110 -1.7307 -0.3808
 6370TIP3   OH240524   0.278   4.710   6.330  0.0969 -0.7758  0.1085
 6370TIP3    H140525   0.296   4.632   6.383  0.4123 -0.4071  0.5492
 6370TIP3    H240526   0.320   4.782   6.378 -0.7325 -0.2365  0.0422
 6371TIP3   OH240527   5.797   3.629  11.709 -0.1475 -0.0258 -0.6371
 6371TIP3    H140528   5.800   3.541  11.672 -4.1776 -0.7894  0.5821
 6371TIP3    H240529   5.743   3.679  11.647 -1.1412  0.5227  0.6395
 6372TIP3   OH240530   1.222   0.293   0.073 -0.2739 -0.6805  0.4629
 6372TIP3    H140531   1.182   0.222   0.021 -0.9391  0.7021 -0.9685
 6372TIP3    H240532   1.148   0.350   0.095  0.7636  1.5112 -1.5634
 6373TIP3   OH240533   2.152   1.314  12.837  0.0658 -0.1761  0.2481
 6373TIP3    H140534   2.127   1.285  12.925 -0.9098  1.2940  0.4643
 6373TIP3    H240535   2.078   1.290  12.782 -0.3892  1.1210  0.2791
 6374TIP3   OH240536   5.308   2.239  12.228  0.1368  0.1429  0.2944
 6374TIP3    H140537   5.268   2.279  12.306 -0.7922 -0.0266 -0.0921
 6374TIP3    H240538   5.303   2.145  12.245  0.5537  0.1299  0.3341
 6375TIP3   OH240539   3.086   2.099   1.570 -0.0165 -0.0568 -0.3310
 6375TIP3    H140540   3.030   2.035   1.527  0.6934 -0.2399 -1.0002
 6375TIP3    H240541   3.077   2.178   1.517 -0.1497  0.1023 -0.0669
 6376TIP3   OH240542   6.169   1.577  12.120 -0.6817  0.0213  0.1496
 6376TIP3    H140543   6.204   1.499  12.077 -0.0376 -1.5396  3.3616
 6376TIP3    H240544   6.077   1.557  12.133 -0.4282 -0.3874  1.3398
 6377TIP3   OH240545   4.042   4.101  11.979 -0.0192  0.1624  0.5107
 6377TIP3    H140546   4.073   4.013  12.002 -1.2415 -0.0826  1.2581
 6377TIP3    H240547   4.031   4.098  11.884  0.7740 -0.2184  0.4204
 6378TIP3   OH240548   1.548   4.393   5.896  0.0905 -0.3057 -0.4435
 6378TIP3    H140549   1.484   4.343   5.846  1.1239  1.1019 -3.2982
 6378TIP3    H240550   1.615   4.329   5.920 -0.3371 -0.9677 -1.0050
 6379TIP3   OH240551   1.585   5.472   2.539 -0.5490  0.6036 -0.1447
 6379TIP3    H140552   1.653   5.539   2.535 -0.2720  0.4772  2.0495
 6379TIP3    H240553   1.589   5.429   2.454  2.3099  0.4065  0.0631
 6380TIP3   OH240554   1.824   4.903   3.323 -0.4520 -0.2603 -0.2772
 6380TIP3    H140555   1.784   4.833   3.272 -0.2509 -1.9309  1.7733
 6380TIP3    H240556   1.866   4.959   3.259 -1.6437 -1.3742 -2.0582
 6381TIP3   OH240557   4.714   3.213   0.473  0.0474 -0.2936  0.2646
 6381TIP3    H140558   4.808   3.202   0.460 -0.0215 -2.1468  1.1698
 6381TIP3    H240559   4.707   3.290   0.530  1.0565 -0.6830  0.9238
 6382TIP3   OH240560   5.327   0.101  11.963 -0.4090 -0.5456 -0.1496
 6382TIP3    H140561   5.320   0.139  12.051 -3.6910 -1.3384 -0.0127
 6382TIP3    H240562   5.398   0.038  11.969  1.3957  1.5297  1.1012
 6383TIP3   OH240563   1.070   4.132  12.666 -0.2740 -0.0827 -0.2550
 6383TIP3    H140564   0.975   4.120  12.671 -0.2020 -0.3152  0.6734
 6383TIP3    H240565   1.085   4.222  12.695 -0.0342 -0.7450  1.7554
 6384TIP3   OH240566   5.432   0.822  15.377 -0.5751 -0.3013 -0.1755
 6384TIP3    H140567   5.494   0.774  15.322  0.2540  1.6281 -0.9818
 6384TIP3    H240568   5.451   0.914  15.359 -3.1735  0.3376  0.1370
 6385TIP3   OH240569   3.069   2.124  14.213  0.0619  0.2602  0.0719
 6385TIP3    H140570   3.071   2.184  14.287  0.5522 -0.4384  0.6393
 6385TIP3    H240571   3.080   2.179  14.136 -0.5733  1.0058  0.5184
 6386TIP3   OH240572   6.548   4.854   4.501 -0.0151  0.1007  0.0960
 6386TIP3    H140573   6.509   4.853   4.414  2.0343 -1.9205 -0.8348
 6386TIP3    H240574   6.474   4.845   4.561 -1.2529 -0.3997 -1.4829
 6387TIP3   OH240575   5.713   2.760   4.798 -0.0518 -0.6529  0.6266
 6387TIP3    H140576   5.675   2.689   4.746  0.8184 -0.8361  0.2274
 6387TIP3    H240577   5.772   2.716   4.860  1.0832 -0.2407 -0.1383
 6388TIP3   OH240578   1.198   4.686   5.497  0.0393  0.5193 -0.4515
 6388TIP3    H140579   1.277   4.740   5.503  0.9686 -0.7548 -1.0668
 6388TIP3    H240580   1.209   4.636   5.416 -0.9917 -0.3092 -0.0905
 6389TIP3   OH240581   1.609   6.541  12.123  0.1405  0.1241  0.2773
 6389TIP3    H140582   1.598   6.560  12.029 -0.6085 -2.5465 -0.2146
 6389TIP3    H240583   1.520   6.541  12.157  0.3924  0.7539  0.9469
 6390TIP3   OH240584   0.084   1.415   5.777  0.0230  0.4793 -0.4322
 6390TIP3    H140585   0.038   1.334   5.756 -0.9480  0.5536  1.3576
 6390TIP3    H240586   0.045   1.445   5.859  0.8100  2.4333 -0.7495
 6391TIP3   OH240587   2.798   6.455  14.683 -0.6858 -0.2043  0.5482
 6391TIP3    H140588   2.766   6.537  14.721  0.7780 -0.2145  1.8586
 6391TIP3    H240589   2.727   6.393  14.700 -1.4398  0.5812  0.3177
 6392TIP3   OH240590   2.948   1.756   0.986  0.3540 -0.2833  0.3835
 6392TIP3    H140591   2.925   1.808   1.062 -1.7402  0.6992 -0.8814
 6392TIP3    H240592   3.013   1.810   0.939  0.0637  0.0532  0.3704
 6393TIP3   OH240593   2.537   5.443  14.416 -0.0893  0.4846  0.1734
 6393TIP3    H140594   2.545   5.384  14.341  1.4500  0.9208 -0.0297
 6393TIP3    H240595   2.554   5.388  14.493 -0.6990  0.2393  0.1329
 6394TIP3   OH240596   0.609   3.251   6.098  0.1507  0.0508  0.3508
 6394TIP3    H140597   0.599   3.178   6.159  0.3377 -0.2556  0.0145
 6394TIP3    H240598   0.623   3.327   6.155  1.1057 -0.3587  0.6815
 6395TIP3   OH240599   6.381   3.745   4.596  0.0832 -0.2553 -0.7756
 6395TIP3    H140600   6.468   3.752   4.637 -0.0123 -1.1012 -0.4231
 6395TIP3    H240601   6.375   3.822   4.540 -1.0571  2.7132  3.2385
 6396TIP3   OH240602   1.859   2.973  11.311  0.1409 -0.1327  0.1139
 6396TIP3    H140603   1.826   3.047  11.260  1.0598 -0.7548 -1.4160
 6396TIP3    H240604   1.828   2.896  11.264  4.5156 -0.7413 -1.9377
 6397TIP3   OH240605   4.098   5.145  15.509 -0.7529 -0.3772  0.1550
 6397TIP3    H140606   4.171   5.195  15.472 -2.9973  2.2978 -0.8027
 6397TIP3    H240607   4.048   5.115  15.433 -1.3318 -1.1715  0.8401
 6398TIP3   OH240608   0.560   5.099  14.554 -0.2988  0.5887 -0.3594
 6398TIP3    H140609   0.618   5.175  14.564  1.9784 -0.9108 -1.7030
 6398TIP3    H240610   0.545   5.068  14.643  0.3698  1.4155  0.0490
 6399TIP3   OH240611   3.927   1.468   3.632 -0.2196  1.0782  0.5171
 6399TIP3    H140612   4.008   1.519   3.627  1.1141 -0.7528  2.4888
 6399TIP3    H240613   3.952   1.388   3.678 -2.8850 -0.1014  0.0002
 6400TIP3   OH240614   4.148   6.366  14.300 -0.0096 -0.5157  0.4707
 6400TIP3    H140615   4.094   6.287  14.305  1.4890 -1.5841  0.0793
 6400TIP3    H240616   4.195   6.368  14.383  0.2905 -0.2775  0.2939
 6401TIP3   OH240617   4.258   2.671   1.756 -0.2814 -0.4781 -0.4620
 6401TIP3    H140618   4.234   2.636   1.671  1.3990  0.6667 -1.4396
 6401TIP3    H240619   4.327   2.613   1.788  0.7170  0.4484 -0.9315
 6402TIP3   OH240620   4.462   0.528  13.849 -0.1000 -0.0679 -0.1550
 6402TIP3    H140621   4.408   0.481  13.913 -0.0214 -1.6609 -1.2112
 6402TIP3    H240622   4.546   0.482  13.850 -0.0852 -0.1044 -1.3588
 6403TIP3   OH240623   5.612   1.772   1.517  0.5287 -0.2032 -0.7112
 6403TIP3    H140624   5.677   1.733   1.577 -0.0886 -1.0774 -0.5923
 6403TIP3    H240625   5.657   1.776   1.433  1.1889  0.4362 -0.3388
 6404TIP3   OH240626   2.926   5.138  17.221 -0.2667  0.6029  0.7983
 6404TIP3    H140627   2.879   5.211  17.261  1.1649  1.2996  1.2282
 6404TIP3    H240628   2.859   5.092  17.171 -1.5347  1.2373  1.8698
 6405TIP3   OH240629   0.161   2.233   1.257 -0.1726  0.0838  0.4345
 6405TIP3    H140630   0.081   2.193   1.222 -0.0449 -2.7366  3.2063
 6405TIP3    H240631   0.232   2.185   1.214  0.0150 -0.0878  0.9402
 6406TIP3   OH240632   2.759   3.987   5.707 -0.5667 -0.0840 -0.0097
 6406TIP3    H140633   2.717   4.003   5.623  0.3246 -0.8206 -0.6040
 6406TIP3    H240634   2.850   3.965   5.685 -0.0006  0.9518  1.2190
 6407TIP3   OH240635   2.054   4.115  13.053 -0.3103 -0.2759 -0.1225
 6407TIP3    H140636   1.984   4.152  13.108  0.4751 -2.0568  2.1690
 6407TIP3    H240637   2.046   4.020  13.065  1.8702 -0.5517 -0.6228
 6408TIP3   OH240638   1.238   3.221  16.599 -0.0401 -0.4601  0.3719
 6408TIP3    H140639   1.303   3.153  16.611 -0.1809 -0.5848  0.4341
 6408TIP3    H240640   1.154   3.177  16.612 -0.0461  0.3978  3.8825
 6409TIP3   OH240641   4.523   6.494  10.756 -0.3556  0.5724  0.6804
 6409TIP3    H140642   4.453   6.435  10.730  0.0444 -0.0935  1.1053
 6409TIP3    H240643   4.529   6.558  10.685 -0.1265 -0.4688 -0.2325
 6410TIP3   OH240644   0.256   2.571  11.309  0.5043  0.0275 -0.0106
 6410TIP3    H140645   0.179   2.628  11.319 -0.1585 -0.7699 -0.5172
 6410TIP3    H240646   0.276   2.574  11.215 -0.6667 -1.9998 -0.3663
 6411TIP3   OH240647   6.121   2.859   4.765 -0.7943 -0.0630 -0.3988
 6411TIP3    H140648   6.103   2.879   4.674 -2.3631 -1.2511 -0.3688
 6411TIP3    H240649   6.050   2.901   4.814 -0.7192 -0.5641  0.1563
 6412TIP3   OH240650   0.337   3.416   6.647  0.0064  0.2609  0.4306
 6412TIP3    H140651   0.271   3.461   6.594 -0.2713 -2.3308 -1.5358
 6412TIP3    H240652   0.420   3.447   6.611 -0.1800 -1.8588 -1.9278
 6413TIP3   OH240653   6.081   0.050  13.802  0.6529  0.3023 -0.7076
 6413TIP3    H140654   5.994   0.090  13.809  1.1794  1.6554 -1.7764
 6413TIP3    H240655   6.088  -0.005  13.880 -1.3425 -0.1807 -0.8336
 6414TIP3   OH240656   3.500   4.479   6.111  0.0444 -0.4454  0.2928
 6414TIP3    H140657   3.505   4.471   6.016 -1.5188  1.5527  0.0074
 6414TIP3    H240658   3.492   4.389   6.143 -2.6581 -0.9584 -1.6819
 6415TIP3   OH240659   0.271   1.272  12.009 -0.5607 -0.0001 -0.2383
 6415TIP3    H140660   0.264   1.324  12.089 -2.0126 -1.5313  0.6817
 6415TIP3    H240661   0.184   1.233  11.999  0.4550 -2.1711 -0.9243
 6416TIP3   OH240662   4.374   3.960  11.298 -0.4082  0.0940 -0.2226
 6416TIP3    H140663   4.435   3.918  11.238  0.1345  0.1536  0.2862
 6416TIP3    H240664   4.426   4.024  11.346 -1.1209  0.9847 -0.6143
 6417TIP3   OH240665   1.521   0.517   1.827  0.1754 -0.3224 -0.0892
 6417TIP3    H140666   1.429   0.520   1.852  0.6679 -0.4670  1.8297
 6417TIP3    H240667   1.538   0.602   1.786 -0.5024  0.1946  0.6925
 6418TIP3   OH240668   5.383   4.893   1.364  0.5254 -0.2479 -0.3563
 6418TIP3    H140669   5.424   4.980   1.362  0.6682 -0.3103 -0.0499
 6418TIP3    H240670   5.384   4.865   1.272  1.7403 -0.5130 -0.2772
 6419TIP3   OH240671   3.767   1.232  10.374 -0.4475 -0.4179 -0.3533
 6419TIP3    H140672   3.835   1.272  10.427 -2.3185 -1.0255  2.6377
 6419TIP3    H240673   3.735   1.303  10.317  0.9290  0.4956  0.0044
 6420TIP3   OH240674   5.746   5.049   2.296 -0.5688  0.2138 -0.2829
 6420TIP3    H140675   5.743   5.144   2.285 -2.2328  0.0908 -1.0809
 6420TIP3    H240676   5.801   5.018   2.224  0.6504  0.6320  0.4611
 6421TIP3   OH240677   2.364   1.712   1.970 -0.0852  0.4209  0.1165
 6421TIP3    H140678   2.269   1.707   1.957 -0.0206  1.7246 -1.0845
 6421TIP3    H240679   2.399   1.640   1.918 -0.3495  0.6466 -0.3807
 6422TIP3   OH240680   5.108   0.945   1.675  0.0165 -0.2970 -0.8744
 6422TIP3    H140681   5.096   1.039   1.684 -0.9875 -0.5279  0.3702
 6422TIP3    H240682   5.199   0.930   1.701  0.7080  0.5157 -2.7383
 6423TIP3   OH240683   0.498   4.257  14.361 -0.0954 -0.2930 -0.2036
 6423TIP3    H140684   0.513   4.294  14.274  0.2570 -0.1154 -0.0668
 6423TIP3    H240685   0.409   4.221  14.357  0.4633 -1.6284 -1.1124
 6424TIP3   OH240686   4.434   1.375  17.069  0.1268 -0.4846  0.3137
 6424TIP3    H140687   4.470   1.289  17.092  0.7096 -0.3838 -0.2290
 6424TIP3    H240688   4.505   1.436  17.087  0.2559 -0.2946 -0.8227
 6425TIP3   OH240689   1.383   0.305   0.661 -0.2007 -0.1802  0.4891
 6425TIP3    H140690   1.409   0.365   0.591  2.0430  0.1414  1.5533
 6425TIP3    H240691   1.325   0.358   0.716  0.4509  0.5039  0.5250
 6426TIP3   OH240692   3.967   6.251   0.376  0.0434  0.1616 -0.2209
 6426TIP3    H140693   3.885   6.224   0.418 -0.6881  0.0286 -1.6815
 6426TIP3    H240694   3.952   6.341   0.348  0.7010  0.4202  0.2494
 6427TIP3   OH240695   1.033   2.440  14.614 -0.0271 -0.0958 -0.0775
 6427TIP3    H140696   0.988   2.522  14.593  0.8852  0.4868  0.2098
 6427TIP3    H240697   1.011   2.424  14.705  0.7248  0.4450  0.2063
 6428TIP3   OH240698   2.658   1.224  12.751  0.6328  0.3033  0.1041
 6428TIP3    H140699   2.615   1.206  12.834  1.6481 -2.8870  0.0063
 6428TIP3    H240700   2.587   1.236  12.689 -0.1172  1.1221  1.1181
 6429TIP3   OH240701   5.607   0.980   3.248  0.4167  0.0632 -0.4049
 6429TIP3    H140702   5.567   1.064   3.224 -0.8652 -0.7124 -1.0034
 6429TIP3    H240703   5.591   0.973   3.342  1.5628  1.0365 -0.1289
 6430TIP3   OH240704   5.700   5.511   0.939  0.3510 -0.3717  0.1928
 6430TIP3    H140705   5.739   5.592   0.908  0.0524  0.5727  2.2547
 6430TIP3    H240706   5.773   5.449   0.940  0.4771 -0.3073 -1.8574
 6431TIP3   OH240707   2.002   0.667  14.688 -0.3367  0.4211  0.2264
 6431TIP3    H140708   1.983   0.733  14.620 -2.0019  0.0837  0.3647
 6431TIP3    H240709   2.036   0.718  14.761 -0.0017  0.9479 -0.2862
 6432TIP3   OH240710   3.033   3.201   1.150 -0.1697  0.1964  0.6059
 6432TIP3    H140711   2.970   3.190   1.221  2.0000 -0.2856  2.4924
 6432TIP3    H240712   3.100   3.134   1.166  1.5934  1.6487 -0.5216
 6433TIP3   OH240713   4.514   2.650  15.205  0.6356  0.1392 -0.5059
 6433TIP3    H140714   4.489   2.740  15.227  1.1082  0.3521 -0.8509
 6433TIP3    H240715   4.434   2.611  15.171  0.6129  0.6390 -1.0258
 6434TIP3   OH240716   5.214   6.673   3.997  0.5278  0.2065 -0.1560
 6434TIP3    H140717   5.225   6.768   3.989  0.1929  0.2744  0.1775
 6434TIP3    H240718   5.281   6.646   4.060  0.0833  0.3380  0.3738
 6435TIP3   OH240719   2.038   0.662   0.280 -0.2119  0.7102  0.5776
 6435TIP3    H140720   2.088   0.629   0.205 -0.9572  0.2990  0.2635
 6435TIP3    H240721   2.105   0.702   0.336  0.4366  0.4538  0.0075
 6436TIP3   OH240722   5.585   1.291   1.832  0.1085  0.5732  0.5294
 6436TIP3    H140723   5.545   1.364   1.879  0.5432 -0.0081  1.8385
 6436TIP3    H240724   5.531   1.215   1.856  1.0994  0.0502  1.1409
 6437TIP3   OH240725   5.645   2.394   1.953 -0.0839 -0.5371  0.2606
 6437TIP3    H140726   5.727   2.393   1.905 -0.0973  0.0359  0.2206
 6437TIP3    H240727   5.661   2.453   2.027 -0.3726 -0.6417  0.4078
 6438TIP3   OH240728   4.515   2.325  10.701 -0.4529  0.1131  0.1047
 6438TIP3    H140729   4.480   2.344  10.789  0.0234 -2.2245  0.8212
 6438TIP3    H240730   4.607   2.305  10.715 -0.6059 -1.2921 -0.7773
 6439TIP3   OH240731   6.089   0.687  14.917  0.1086  0.7092 -0.6215
 6439TIP3    H140732   6.151   0.620  14.946 -0.0709  1.2133  0.9712
 6439TIP3    H240733   6.026   0.694  14.988 -0.7373  1.5147 -1.4275
 6440TIP3   OH240734   2.404   4.458   3.256  0.4585  0.2892  0.3873
 6440TIP3    H140735   2.351   4.419   3.187 -0.1827  0.8573  0.5536
 6440TIP3    H240736   2.489   4.473   3.215  0.2730  0.0411 -0.0923
 6441TIP3   OH240737   3.174   2.626   1.060 -0.6144 -0.3141  0.1331
 6441TIP3    H140738   3.247   2.599   1.004 -0.1693  1.0581  0.0318
 6441TIP3    H240739   3.193   2.585   1.145 -0.2269 -0.7477 -0.1574
 6442TIP3   OH240740   5.908   1.711  13.019 -0.5985 -0.0943  0.0404
 6442TIP3    H140741   5.919   1.621  13.049  0.2017  0.3482  1.1204
 6442TIP3    H240742   5.880   1.759  13.098  0.9955  0.9930 -0.0359
 6443TIP3   OH240743   4.749   3.457   5.567  0.2620  0.4652  0.0752
 6443TIP3    H140744   4.692   3.381   5.583 -0.3493  1.0565  0.7496
 6443TIP3    H240745   4.809   3.428   5.499  0.4466 -0.8525  0.7787
 6444TIP3   OH240746   0.698   1.991  11.029 -0.1017  0.2154 -0.4882
 6444TIP3    H140747   0.763   1.976  11.097 -0.1088 -3.0161 -1.1368
 6444TIP3    H240748   0.746   2.036  10.959  0.2854  2.0505  0.9215
 6445TIP3   OH240749   2.736   4.534   1.124  0.0557  0.5062 -0.6548
 6445TIP3    H140750   2.757   4.449   1.087  3.3766  0.8602  0.2718
 6445TIP3    H240751   2.653   4.520   1.170  0.8029 -2.3538 -0.0647
 6446TIP3   OH240752   6.190   5.096   3.626  0.2853  0.1780 -0.3261
 6446TIP3    H140753   6.096   5.090   3.644  0.2736  0.2935 -0.3499
 6446TIP3    H240754   6.214   5.009   3.595  1.1671 -1.4261  4.4543
 6447TIP3   OH240755   3.670   3.150  15.817  0.1257  0.2588  0.4533
 6447TIP3    H140756   3.749   3.162  15.871  0.0976 -1.5010  0.9461
 6447TIP3    H240757   3.634   3.238  15.807  1.9565  1.0470  0.5274
 6448TIP3   OH240758   0.818   0.422   1.393 -0.1673 -0.1829 -0.1270
 6448TIP3    H140759   0.724   0.440   1.394 -0.1871 -0.3136  0.3068
 6448TIP3    H240760   0.842   0.416   1.486  0.7550  2.4864 -0.1565
 6449TIP3   OH240761   4.488   4.770  13.859  0.0561 -0.3649  0.5938
 6449TIP3    H140762   4.568   4.785  13.908  0.7358 -0.9747 -0.3026
 6449TIP3    H240763   4.492   4.833  13.787 -0.0068 -0.7568  0.2447
 6450TIP3   OH240764   5.512   5.490  17.017  0.4121  0.6002 -0.3801
 6450TIP3    H140765   5.513   5.445  16.932 -0.5326 -1.7586  0.8037
 6450TIP3    H240766   5.588   5.454  17.063  1.4570  2.5455 -0.5229
 6451TIP3   OH240767   3.764   1.644  15.016  0.7240  0.2700 -0.2075
 6451TIP3    H140768   3.675   1.661  15.045  0.8753 -0.0939  0.4895
 6451TIP3    H240769   3.806   1.602  15.091  0.6905 -2.0756 -1.4761
 6452TIP3   OH240770   5.000   5.092   2.070 -0.0346 -0.4233 -0.3624
 6452TIP3    H140771   5.009   5.185   2.089 -0.2972 -0.8615  1.9861
 6452TIP3    H240772   4.952   5.089   1.987 -0.4188  1.5185 -0.2281
 6453TIP3   OH240773   5.907   4.507  15.945  1.3441  0.5987  0.1982
 6453TIP3    H140774   5.816   4.533  15.959  0.7794 -0.7280 -0.9724
 6453TIP3    H240775   5.957   4.569  15.999 -0.3956 -0.4658  3.1753
 6454TIP3   OH240776   3.632   2.468  13.566 -0.0233 -0.5501 -0.2687
 6454TIP3    H140777   3.681   2.535  13.613 -2.3923 -0.0651  1.6133
 6454TIP3    H240778   3.694   2.397  13.554  2.1312  1.3920 -1.0655
 6455TIP3   OH240779   2.331   6.421   5.576 -0.1365  0.0544  0.7543
 6455TIP3    H140780   2.379   6.375   5.507 -0.2841  2.5762 -1.1009
 6455TIP3    H240781   2.399   6.461   5.630 -0.0621  0.1514  0.5894
 6456TIP3   OH240782   1.798   6.060  14.781 -0.3809  0.0727  0.4988
 6456TIP3    H140783   1.863   5.991  14.767 -1.1755 -0.4941 -0.5053
 6456TIP3    H240784   1.752   6.033  14.860 -1.2168 -0.9916 -0.3279
 6457TIP3   OH240785   5.073   0.042   2.793  0.3611 -0.0931  0.1967
 6457TIP3    H140786   5.157   0.002   2.768  0.5574 -0.3291  1.2272
 6457TIP3    H240787   5.018  -0.032   2.818  0.2396  0.1671  0.6936
 6458TIP3   OH240788   6.517   5.467  11.494  0.5412 -0.1487  0.3145
 6458TIP3    H140789   6.485   5.398  11.551  1.0225 -0.4517  0.2239
 6458TIP3    H240790   6.595   5.501  11.539 -0.3345  1.0981  0.9139
 6459TIP3   OH240791   2.406   1.588  16.613  0.4426  0.6333 -0.2913
 6459TIP3    H140792   2.361   1.587  16.528  0.6722 -0.0388 -0.4083
 6459TIP3    H240793   2.477   1.525  16.603 -0.4730 -0.6149  0.9268
 6460TIP3   OH240794   4.953   0.100  13.815  0.0816 -0.8220 -0.1639
 6460TIP3    H140795   4.998   0.160  13.874  0.4215  0.1493 -1.4013
 6460TIP3    H240796   4.931   0.153  13.738  0.5782 -2.3186 -1.3627
 6461TIP3   OH240797   0.798   1.216  13.828 -0.3436  0.2181 -0.1071
 6461TIP3    H140798   0.794   1.195  13.921 -0.6622 -0.3635 -0.2467
 6461TIP3    H240799   0.859   1.290  13.822  0.7384 -0.6063  0.4262
 6462TIP3   OH240800   2.648   4.697   1.534 -0.3078  0.2289 -0.1084
 6462TIP3    H140801   2.607   4.735   1.457 -0.4706 -2.1440 -1.2260
 6462TIP3    H240802   2.587   4.629   1.563 -0.2350  1.0459  2.1097
 6463TIP3   OH240803   0.640   3.085  12.928  0.2467 -1.1939  0.4710
 6463TIP3    H140804   0.725   3.125  12.948  0.4384 -0.6582 -1.3375
 6463TIP3    H240805   0.631   3.015  12.992  0.5427  0.8476  2.8198
 6464TIP3   OH240806   3.479   0.119   5.680 -0.2450  0.2852 -0.3233
 6464TIP3    H140807   3.456   0.038   5.635  0.1058 -1.3113  2.2228
 6464TIP3    H240808   3.555   0.153   5.633 -0.4754 -0.8160 -1.4949
 6465TIP3   OH240809   0.266   0.720  12.623  0.6177  0.3443  0.3417
 6465TIP3    H140810   0.174   0.701  12.639  0.7092 -0.4680 -0.0873
 6465TIP3    H240811   0.296   0.649  12.567  2.3494 -1.2380  3.1394
 6466TIP3   OH240812   5.970   5.837   2.178  0.1820  0.0215  0.2387
 6466TIP3    H140813   5.977   5.793   2.094 -1.8216 -1.0033  0.5810
 6466TIP3    H240814   5.996   5.771   2.243  0.4565  0.4019  0.5248
 6467TIP3   OH240815   4.307   3.435  17.149  0.0472 -0.2884 -0.2548
 6467TIP3    H140816   4.244   3.386  17.200 -0.5273  0.8629  0.1573
 6467TIP3    H240817   4.387   3.383  17.153  0.4328  0.4391  2.9992
 6468TIP3   OH240818   0.355   5.450  14.600  0.1053 -0.3889 -0.2728
 6468TIP3    H140819   0.401   5.514  14.546  2.0346 -1.0914  0.5113
 6468TIP3    H240820   0.295   5.503  14.654 -0.9711  0.4132 -2.2130
 6469TIP3   OH240821   6.284   6.274  16.719  0.3877  0.3752 -0.2600
 6469TIP3    H140822   6.203   6.321  16.742 -0.1229 -0.0214 -1.2151
 6469TIP3    H240823   6.276   6.258  16.625  1.2335 -0.3439 -0.2117
 6470TIP3   OH240824   2.356   3.503   3.069  0.0747 -0.6944 -0.1701
 6470TIP3    H140825   2.349   3.598   3.081  2.1469 -0.6988  1.5924
 6470TIP3    H240826   2.266   3.471   3.070 -0.6109  1.2026 -0.2833
 6471TIP3   OH240827   0.328   2.657   0.447  0.2908  0.1334 -0.6205
 6471TIP3    H140828   0.321   2.744   0.486  0.0287  0.0643 -0.5150
 6471TIP3    H240829   0.423   2.643   0.437  0.3159  0.6293 -1.0861
 6472TIP3   OH240830   0.852   0.605  10.923 -0.7335 -0.7448 -0.2998
 6472TIP3    H140831   0.938   0.566  10.910  0.3104  1.2580  0.3279
 6472TIP3    H240832   0.853   0.638  11.013 -1.8708 -0.0362 -0.5238
 6473TIP3   OH240833   3.408   6.305   4.368 -0.3133 -0.0999 -0.1073
 6473TIP3    H140834   3.492   6.332   4.331  0.5785 -1.9050  0.5533
 6473TIP3    H240835   3.343   6.350   4.314  1.0601  2.1136  0.0012
 6474TIP3   OH240836   3.611   2.443   0.006  0.1287  0.5729  0.0928
 6474TIP3    H140837   3.591   2.458   0.099 -2.3836  0.5180 -0.4070
 6474TIP3    H240838   3.682   2.504  -0.013 -0.5912  1.9241  1.6051
 6475TIP3   OH240839   1.787   5.075  11.222 -0.1129 -0.6467 -0.2586
 6475TIP3    H140840   1.864   5.080  11.279 -1.3201  0.9379  1.2915
 6475TIP3    H240841   1.794   5.153  11.166 -1.1758  0.1500  0.6908
 6476TIP3   OH240842   3.050   6.108  11.744  0.8008  0.4801 -0.1100
 6476TIP3    H140843   3.011   6.021  11.735 -0.0213  0.9301 -0.9912
 6476TIP3    H240844   3.131   6.093  11.792  0.0662 -0.6177  0.8236
 6477TIP3   OH240845   3.778   4.525  13.374  0.6007  0.5746  0.3802
 6477TIP3    H140846   3.714   4.497  13.440 -0.2758 -0.2458 -0.8107
 6477TIP3    H240847   3.855   4.472  13.393  0.2216  0.0625  0.5070
 6478TIP3   OH240848   1.942   3.187   2.573 -0.6439  0.5211  0.1657
 6478TIP3    H140849   2.000   3.124   2.615  0.0863 -0.0122 -1.6267
 6478TIP3    H240850   1.985   3.210   2.491 -1.1607  2.9601  0.5344
 6479TIP3   OH240851   0.290   4.064  14.904  0.2462 -0.4173 -0.3250
 6479TIP3    H140852   0.202   4.097  14.919 -0.1152 -1.9051  0.9713
 6479TIP3    H240853   0.342   4.103  14.974  0.8526  1.2704 -1.6854
 6480TIP3   OH240854   6.401   2.329   2.773 -0.1100 -0.2131 -0.2097
 6480TIP3    H140855   6.339   2.402   2.769  1.1941  0.8342 -2.2403
 6480TIP3    H240856   6.478   2.365   2.817  0.2597 -0.5803 -0.5514
 6481TIP3   OH240857   3.304   2.714  11.874 -0.1647 -0.2512  0.2334
 6481TIP3    H140858   3.221   2.734  11.916 -0.3108  0.4974 -0.4010
 6481TIP3    H240859   3.286   2.635  11.823 -0.5047 -0.0639  0.0602
 6482TIP3   OH240860   3.968   3.123   4.295 -0.8844  0.2654 -0.0328
 6482TIP3    H140861   3.918   3.195   4.334 -0.4156  0.7957 -0.4129
 6482TIP3    H240862   3.989   3.153   4.207  1.2381  0.5991  0.5625
 6483TIP3   OH240863   0.211   4.918  12.505  0.3318 -0.7020  0.7078
 6483TIP3    H140864   0.307   4.922  12.505  0.3659 -0.8924 -1.9583
 6483TIP3    H240865   0.191   4.834  12.466 -0.9539  0.1363 -0.4590
 6484TIP3   OH240866   6.422   0.468   5.352  0.0064 -0.0191 -0.0200
 6484TIP3    H140867   6.503   0.466   5.403 -0.5621 -4.2698  0.9576
 6484TIP3    H240868   6.442   0.414   5.275 -1.2834  0.5450 -0.7496
 6485TIP3   OH240869   3.813   6.528   5.012  0.1770  0.3716  0.1591
 6485TIP3    H140870   3.853   6.599   4.961  0.4073  1.3053  1.6023
 6485TIP3    H240871   3.879   6.459   5.012 -0.1080  0.0913 -1.3804
 6486TIP3   OH240872   3.968   0.400   4.611  0.3358 -0.2844  0.2171
 6486TIP3    H140873   3.954   0.312   4.576 -0.1847 -0.8107  1.7261
 6486TIP3    H240874   3.882   0.440   4.610  0.2476 -0.4341  1.2223
 6487TIP3   OH240875   3.520   0.868   2.807 -0.2239  0.0197 -0.0319
 6487TIP3    H140876   3.545   0.956   2.836  0.1346  0.3315 -1.2631
 6487TIP3    H240877   3.517   0.874   2.712 -1.1680 -1.0469 -0.0814
 6488TIP3   OH240878   4.550   1.608   5.038 -0.2813  0.5096  0.4384
 6488TIP3    H140879   4.478   1.616   5.100  0.7623  0.2220  1.7028
 6488TIP3    H240880   4.599   1.690   5.046 -0.5051  0.7454 -0.4892
 6489TIP3   OH240881   0.348   4.188  13.030 -0.4189 -0.0013  0.0475
 6489TIP3    H140882   0.293   4.152  13.100 -0.1937 -1.2166 -0.3751
 6489TIP3    H240883   0.376   4.273  13.062  0.0231 -0.7276  1.6169
 6490TIP3   OH240884   4.925   3.294   5.890 -0.2560  0.2548  0.5248
 6490TIP3    H140885   4.949   3.327   5.977 -1.7662  1.9272  0.3460
 6490TIP3    H240886   4.951   3.364   5.830 -0.6100 -0.2326 -0.1983
 6491TIP3   OH240887   6.628   6.222   3.231 -0.2625  0.0990  0.5993
 6491TIP3    H140888   6.563   6.273   3.279 -0.8614  1.8388 -1.9637
 6491TIP3    H240889   6.668   6.284   3.170 -1.5274 -2.6013 -3.1653
 6492TIP3   OH240890   5.923   0.392   5.137  0.1705 -0.0996  0.3618
 6492TIP3    H140891   5.902   0.338   5.213  1.2206  0.8806  1.3739
 6492TIP3    H240892   5.972   0.467   5.173 -1.8984  1.9293 -0.9022
 6493TIP3   OH240893   0.267   6.077  14.807 -0.1900 -0.3491  0.0438
 6493TIP3    H140894   0.199   6.013  14.828  0.5633 -0.8533  0.9653
 6493TIP3    H240895   0.286   6.062  14.714 -0.6553 -0.8600  0.0272
 6494TIP3   OH240896   4.024   2.847   4.326  0.7507  0.3674 -0.1012
 6494TIP3    H140897   3.982   2.931   4.314  1.2404  0.6408  0.0635
 6494TIP3    H240898   3.998   2.819   4.414 -0.2829 -0.1604 -0.5687
 6495TIP3   OH240899   0.195   2.557  12.090  0.1205  0.1405 -0.0897
 6495TIP3    H140900   0.154   2.588  12.170 -2.6053 -0.4936 -1.1790
 6495TIP3    H240901   0.277   2.607  12.084 -0.6656  1.7549  1.9465
 6496TIP3   OH240902   3.323   5.324   2.623 -0.0368  0.1509 -0.1971
 6496TIP3    H140903   3.386   5.388   2.589  0.3654 -0.7716 -1.2054
 6496TIP3    H240904   3.328   5.251   2.562 -0.7523 -0.7011  0.7537
 6497TIP3   OH240905   4.016   5.447   0.499  0.4794  0.0801 -0.3685
 6497TIP3    H140906   3.935   5.415   0.459  0.2901  1.0381 -0.7672
 6497TIP3    H240907   4.036   5.383   0.567 -1.9974  1.1487  1.4545
 6498TIP3   OH240908   4.471   6.245   4.213 -0.2895 -0.6535 -0.0520
 6498TIP3    H140909   4.533   6.225   4.283  0.0702  1.1203  0.1495
 6498TIP3    H240910   4.409   6.172   4.214  2.2302 -2.8486 -0.7746
 6499TIP3   OH240911   3.201   2.633   3.876  0.5341 -0.0864  0.2874
 6499TIP3    H140912   3.137   2.637   3.947  2.0867 -0.8464  1.7572
 6499TIP3    H240913   3.258   2.709   3.890  0.8679 -0.2576 -0.1190
 6500TIP3   OH240914   2.434   4.021  11.876 -0.1936 -0.0703 -0.5739
 6500TIP3    H140915   2.470   4.075  11.805  0.9478 -0.6658 -0.4474
 6500TIP3    H240916   2.445   4.075  11.954  4.2935 -1.8386  0.1745
 6501TIP3   OH240917   2.609   4.891   1.974  0.0650 -0.4116  0.0944
 6501TIP3    H140918   2.617   4.829   2.047  0.8104 -0.5947 -0.1379
 6501TIP3    H240919   2.547   4.849   1.914 -0.5346 -0.2698  0.6141
 6502TIP3   OH240920   6.636   3.555  12.777  0.0500  0.8158 -0.0361
 6502TIP3    H140921   6.623   3.630  12.835  3.2804  1.2486  0.1976
 6502TIP3    H240922   6.573   3.489  12.808 -0.9539  2.4336  1.4449
 6503TIP3   OH240923   1.796   2.457  16.147 -0.1122  0.1978  0.4692
 6503TIP3    H140924   1.853   2.381  16.148 -0.0964  0.1822 -0.5487
 6503TIP3    H240925   1.854   2.532  16.161  0.2362  0.2201 -1.0294
 6504TIP3   OH240926   3.038   2.592  13.334 -0.2462 -0.1906 -0.6408
 6504TIP3    H140927   3.102   2.664  13.339 -0.8482  0.2635  0.7419
 6504TIP3    H240928   2.994   2.606  13.250 -1.9857  2.5023  0.6303
 6505TIP3   OH240929   0.479   5.148  13.827  0.1934 -0.3227  0.1577
 6505TIP3    H140930   0.461   5.101  13.908  0.4712 -0.8240 -0.0687
 6505TIP3    H240931   0.564   5.116  13.799 -0.5586 -1.2815 -1.1151
 6506TIP3   OH240932   4.799   6.670  13.200  0.1667 -0.3325 -0.2681
 6506TIP3    H140933   4.717   6.623  13.211  0.6368 -1.2310 -0.4959
 6506TIP3    H240934   4.817   6.708  13.286 -1.7908  2.0700 -0.8820
 6507TIP3   OH240935   4.917   4.449   0.615  0.6246  0.4225 -0.2584
 6507TIP3    H140936   4.855   4.385   0.581 -0.7497  0.4524  2.0783
 6507TIP3    H240937   4.865   4.502   0.675  2.4262  1.8655  0.0572
 6508TIP3   OH240938   2.902   1.322   0.137  0.8015  0.2761  0.4963
 6508TIP3    H140939   2.853   1.339   0.218  0.2900  0.2606  0.1925
 6508TIP3    H240940   2.981   1.375   0.145  1.1093 -0.2947  1.3429
 6509TIP3   OH240941   4.055   6.257   6.266  0.3521 -0.2740 -0.2613
 6509TIP3    H140942   4.123   6.325   6.278  0.6113 -0.7936  1.2078
 6509TIP3    H240943   4.006   6.287   6.189  0.7653  1.3432  0.0758
 6510TIP3   OH240944   5.803   2.096   3.179  0.4452 -0.1138 -0.1367
 6510TIP3    H140945   5.826   2.096   3.272 -0.4837 -0.7995  0.0964
 6510TIP3    H240946   5.888   2.089   3.134  0.8701 -0.1529  0.6630
 6511TIP3   OH240947   5.989   4.020  14.688  0.4312 -0.5253 -0.4935
 6511TIP3    H140948   6.012   3.930  14.710  0.0690 -0.4004  0.4127
 6511TIP3    H240949   5.983   4.065  14.773 -1.5239 -0.1684 -0.7931
 6512TIP3   OH240950   6.409   6.433   4.394  0.8156  0.0140  0.0287
 6512TIP3    H140951   6.447   6.346   4.402  0.0205 -0.0926  3.0165
 6512TIP3    H240952   6.331   6.420   4.340  0.9826 -1.0163  0.0305
 6513TIP3   OH240953   3.603   4.589  16.925  0.2525  0.2368 -0.8585
 6513TIP3    H140954   3.659   4.637  16.985 -1.6551  0.8271  0.4865
 6513TIP3    H240955   3.608   4.498  16.955  0.4032  0.3050 -0.6766
 6514TIP3   OH240956   6.036   4.910  14.783  0.0260 -0.6473  0.3111
 6514TIP3    H140957   6.111   4.955  14.823 -1.5506  2.8101 -0.4692
 6514TIP3    H240958   6.040   4.935  14.691 -2.4403  0.1500  0.3916
 6515TIP3   OH240959   1.757   0.588   5.595  0.3644  0.1800 -0.3508
 6515TIP3    H140960   1.695   0.659   5.612  1.3988  0.7080  1.3425
 6515TIP3    H240961   1.775   0.550   5.681  1.2778 -0.8978 -0.9962
 6516TIP3   OH240962   2.350   2.702   5.036 -0.2350  0.3700  0.2082
 6516TIP3    H140963   2.258   2.684   5.014 -0.2984 -0.5820  1.2106
 6516TIP3    H240964   2.396   2.621   5.013  0.4639  1.0884 -0.9268
 6517TIP3   OH240965   1.924   1.604  13.028  0.5074  0.0186  0.3289
 6517TIP3    H140966   1.910   1.644  12.943 -1.1303 -0.5055  0.3378
 6517TIP3    H240967   1.901   1.672  13.092  0.1146 -0.1323  0.3484
 6518TIP3   OH240968   4.070   0.582   1.802  0.4028 -0.0273  0.2548
 6518TIP3    H140969   4.144   0.644   1.804  0.7039 -0.3327 -1.0168
 6518TIP3    H240970   4.014   0.609   1.875 -0.3954  2.8873 -1.3600
 6519TIP3   OH240971   2.032   5.669  14.236  1.0629 -0.0739 -0.0334
 6519TIP3    H140972   1.980   5.594  14.208 -0.3893  0.1623  1.9146
 6519TIP3    H240973   1.992   5.743  14.190 -0.7894  0.1985  1.9442
 6520TIP3   OH240974   6.748   4.686   4.535 -0.5606 -0.1587 -0.3914
 6520TIP3    H140975   6.686   4.759   4.541 -0.3959 -0.0724  0.3195
 6520TIP3    H240976   6.818   4.718   4.479 -0.4829  0.2349 -0.0705
 6521TIP3   OH240977   0.187   5.757  11.066  0.7472 -0.0679 -0.1080
 6521TIP3    H140978   0.151   5.720  10.985 -4.3751  0.6886  1.6331
 6521TIP3    H240979   0.219   5.681  11.115 -1.7624 -1.2838 -0.2668
 6522TIP3   OH240980   1.273   1.148  11.444 -0.4978 -0.1148  0.0675
 6522TIP3    H140981   1.317   1.149  11.359 -1.7219 -2.6468 -0.6321
 6522TIP3    H240982   1.214   1.073  11.440 -1.2805  0.2988  2.8139
 6523TIP3   OH240983   3.704   2.378   6.108  0.0008  0.1727 -0.0613
 6523TIP3    H140984   3.683   2.397   6.200 -2.3678  1.4446 -0.8389
 6523TIP3    H240985   3.795   2.347   6.111  0.6229  2.0429  2.4734
 6524TIP3   OH240986   5.516   2.221   4.668 -0.8797 -0.2326 -0.2836
 6524TIP3    H140987   5.576   2.263   4.605 -1.9480 -1.5791 -2.2415
 6524TIP3    H240988   5.574   2.183   4.734  0.2871  0.9802 -0.5796
 6525TIP3   OH240989   0.642   0.175  15.190 -0.5816  0.1563  0.0744
 6525TIP3    H140990   0.612   0.084  15.185 -0.8224  0.1995  0.6397
 6525TIP3    H240991   0.571   0.220  15.235 -1.5069  1.0846 -2.2305
 6526TIP3   OH240992   0.541   0.806   1.630  0.0866  0.3075 -0.2640
 6526TIP3    H140993   0.544   0.898   1.604 -0.9429  0.3025 -0.3857
 6526TIP3    H240994   0.569   0.806   1.722  2.1892  0.4917 -0.8606
 6527TIP3   OH240995   4.248   4.472   4.739  0.1012 -0.1737  0.3638
 6527TIP3    H140996   4.247   4.461   4.644 -1.4490  0.0900  0.3483
 6527TIP3    H240997   4.317   4.413   4.768  0.4738 -0.3863 -0.9097
 6528TIP3   OH240998   4.814   2.352  12.034 -0.0391  0.3753 -0.1453
 6528TIP3    H140999   4.819   2.401  12.116 -1.3904 -1.1078  0.8622
 6528TIP3    H241000   4.896   2.372  11.989  1.0041  0.7342  1.8441
 6529TIP3   OH241001   2.844   6.218   4.738 -0.6127  0.1646  0.0404
 6529TIP3    H141002   2.835   6.149   4.803 -0.1162  0.2883  0.2435
 6529TIP3    H241003   2.758   6.224   4.696 -0.0882 -2.0363 -1.4537
 6530TIP3   OH241004   4.556   1.924  10.448  0.0057 -0.1879 -0.1010
 6530TIP3    H141005   4.625   1.896  10.388  0.3897 -1.2569  0.8414
 6530TIP3    H241006   4.600   1.982  10.510  0.1962 -1.4233  0.9193
 6531TIP3   OH241007   5.322   5.398   4.098 -0.5311 -0.6940  0.5578
 6531TIP3    H141008   5.290   5.414   4.187  0.3583 -1.7331  1.0810
 6531TIP3    H241009   5.348   5.484   4.066 -1.1257 -0.2745  1.2028
 6532TIP3   OH241010   5.940   5.576   3.969 -0.6551 -0.7863  0.9395
 6532TIP3    H141011   6.030   5.543   3.966 -0.5140 -0.3032 -0.6225
 6532TIP3    H241012   5.900   5.530   4.043  0.9204 -0.8735  1.7613
 6533TIP3   OH241013   1.550   5.357   1.046  0.4310 -0.0478  0.1154
 6533TIP3    H141014   1.612   5.320   0.982  0.1581  0.9773 -0.7726
 6533TIP3    H241015   1.545   5.292   1.115 -1.3889 -2.4886 -2.2185
 6534TIP3   OH241016   5.964   0.320  12.746 -0.4583 -0.2949 -0.1235
 6534TIP3    H141017   5.892   0.260  12.764 -0.3873 -0.6208 -0.8815
 6534TIP3    H241018   5.931   0.377  12.676 -0.4533  0.4188  0.4468
 6535TIP3   OH241019   6.489   5.057   2.422 -0.2374  0.3585 -0.0877
 6535TIP3    H141020   6.436   5.000   2.367  0.3285  1.0170 -1.3554
 6535TIP3    H241021   6.461   5.038   2.511 -1.9510  0.0534 -0.6684
 6536TIP3   OH241022   6.387   3.628   4.220  0.2660 -0.2581 -0.0586
 6536TIP3    H141023   6.302   3.653   4.184  0.1070  0.1923  0.6211
 6536TIP3    H241024   6.395   3.679   4.301  1.3792  0.0476 -0.3548
 6537TIP3   OH241025   3.248   1.620   2.866  0.3263  0.3802 -0.6256
 6537TIP3    H141026   3.314   1.688   2.874 -2.1363  2.7940 -0.1921
 6537TIP3    H241027   3.211   1.612   2.953 -0.5886 -0.2966 -1.0658
 6538TIP3   OH241028   4.489   3.513  14.280  0.3890  0.5071 -0.0977
 6538TIP3    H141029   4.504   3.459  14.203 -1.4754  1.8868 -1.4769
 6538TIP3    H241030   4.548   3.588  14.269  0.2571  0.6132 -0.0817
 6539TIP3   OH241031   0.219   6.470  12.430  0.5015 -0.1157  0.4074
 6539TIP3    H141032   0.160   6.544  12.445  1.3971  0.7181 -0.1296
 6539TIP3    H241033   0.222   6.461  12.335  2.8013  1.1531  0.3235
 6540TIP3   OH241034   6.219   2.029  14.361 -0.3978 -0.1040  0.3450
 6540TIP3    H141035   6.272   2.045  14.439  0.3723 -0.2211 -0.1582
 6540TIP3    H241036   6.200   1.935  14.364  0.3314 -0.2629 -0.0579
 6541TIP3   OH241037   5.518   5.932   2.058 -0.5230 -0.0708  0.0808
 6541TIP3    H141038   5.531   5.841   2.085 -0.1715 -0.1277 -0.2755
 6541TIP3    H241039   5.559   5.938   1.972  3.0446  1.3901  1.7237
 6542TIP3   OH241040   1.667   0.214   3.639  0.0761  0.7472 -0.1317
 6542TIP3    H141041   1.590   0.219   3.581 -0.5746 -1.9055  0.4439
 6542TIP3    H241042   1.742   0.227   3.581 -0.7088  1.1281 -1.0727
 6543TIP3   OH241043   6.046   5.848  17.208 -0.1816  0.0270  0.2575
 6543TIP3    H141044   6.134   5.854  17.244 -0.4275  0.4419  0.7956
 6543TIP3    H241045   6.034   5.755  17.189 -0.0471 -0.1932  1.2378
 6544TIP3   OH241046   5.881   5.634  16.266  0.1676 -0.1671  0.1036
 6544TIP3    H141047   5.808   5.655  16.207 -0.3314  1.6430  1.3315
 6544TIP3    H241048   5.893   5.540  16.255 -1.0082 -0.1508 -1.6395
 6545TIP3   OH241049   5.949   3.670   5.526  0.2461  0.1650 -0.0557
 6545TIP3    H141050   5.949   3.739   5.459 -0.6004 -0.2042 -0.4498
 6545TIP3    H241051   5.999   3.707   5.598  0.2030  1.0188 -0.4534
 6546TIP3   OH241052   6.156   0.901   5.677  0.0806 -0.3421 -0.4647
 6546TIP3    H141053   6.216   0.883   5.749  2.4617 -0.7462 -2.4866
 6546TIP3    H241054   6.103   0.975   5.708  2.1521  0.5617  1.0705
 6547TIP3   OH241055   0.416   4.454  10.577  0.0544  0.5314 -0.3271
 6547TIP3    H141056   0.360   4.477  10.651  0.4956  3.1638 -0.7652
 6547TIP3    H241057   0.469   4.381  10.609 -2.4816 -0.9709  0.6070
 6548TIP3   OH241058   1.385   2.503  16.673 -0.1287  0.0853  0.3418
 6548TIP3    H141059   1.449   2.463  16.615 -1.5885 -0.4414 -0.9260
 6548TIP3    H241060   1.363   2.586  16.630 -0.2256  0.3200  0.8376
 6549TIP3   OH241061   1.088   0.762  12.851 -0.2402  0.2433 -0.1311
 6549TIP3    H141062   1.183   0.751  12.850 -0.1731  0.8792 -0.9248
 6549TIP3    H241063   1.069   0.818  12.776 -1.3746 -0.9754 -0.7824
 6550TIP3   OH241064   4.391   3.004  12.598 -0.5400 -0.3336 -0.8361
 6550TIP3    H141065   4.372   2.983  12.506  1.3891 -0.5477 -1.2175
 6550TIP3    H241066   4.306   3.005  12.641 -1.5869  0.9459 -2.8858
 6551TIP3   OH241067   0.869   2.228  14.499  0.2238 -0.2977  0.0444
 6551TIP3    H141068   0.942   2.189  14.453 -0.0030 -0.2709 -0.3388
 6551TIP3    H241069   0.908   2.300  14.549  0.4435 -0.2293 -0.2253
 6552TIP3   OH241070   4.800   4.769   3.855 -0.3596 -0.6257  0.4241
 6552TIP3    H141071   4.739   4.695   3.858 -1.7619  0.5215  0.7831
 6552TIP3    H241072   4.795   4.801   3.766 -0.5987 -0.2668  0.5673
 6553TIP3   OH241073   0.379   5.686   1.383 -0.8547 -0.4420 -0.2944
 6553TIP3    H141074   0.346   5.658   1.298 -1.2224 -1.5434  0.2072
 6553TIP3    H241075   0.418   5.772   1.367 -0.9265 -0.6487 -1.5709
 6554TIP3   OH241076   0.632   1.296  15.137 -0.0351 -0.2482 -0.1506
 6554TIP3    H141077   0.600   1.315  15.049 -0.5299 -0.4417 -0.0164
 6554TIP3    H241078   0.704   1.357  15.151  0.7145 -0.9183 -1.0833
 6555TIP3   OH241079   2.200   0.164   0.047  0.4411  0.3299 -0.7644
 6555TIP3    H141080   2.217   0.245   0.095  0.0174 -0.0483  0.0307
 6555TIP3    H241081   2.119   0.182  -0.002 -1.2075 -0.5351  1.5655
 6556TIP3   OH241082   6.137   1.077   1.957 -0.1147 -0.0701  0.7717
 6556TIP3    H141083   6.203   1.138   1.925 -0.6646  0.4725  0.6652
 6556TIP3    H241084   6.187   1.002   1.989  0.4885 -0.3025 -0.6562
 6557TIP3   OH241085   1.522   4.048  14.830 -0.0830 -0.0447  0.5163
 6557TIP3    H141086   1.445   4.014  14.783  0.7110 -1.1660 -0.0106
 6557TIP3    H241087   1.512   4.143  14.825 -0.2937 -0.1321 -1.5130
 6558TIP3   OH241088   5.826   4.431  12.915  0.4391 -0.1242 -0.3542
 6558TIP3    H141089   5.828   4.518  12.876  1.8516  0.1807  0.3847
 6558TIP3    H241090   5.738   4.424  12.953  0.2083  0.8471 -0.6915
 6559TIP3   OH241091   1.327   2.068   0.727  0.6513  0.2581 -0.3766
 6559TIP3    H141092   1.233   2.065   0.711  0.4828 -0.6927  0.7269
 6559TIP3    H241093   1.336   2.100   0.817  1.4076  0.8563 -0.6522
 6560TIP3   OH241094   5.675   6.286   2.172 -0.4044 -0.0936  0.4148
 6560TIP3    H141095   5.732   6.291   2.248 -0.6876  1.8338  0.5255
 6560TIP3    H241096   5.623   6.367   2.175 -2.2810 -1.2201 -0.3489
 6561TIP3   OH241097   3.251   0.441  13.207  0.2887 -0.0752 -0.5866
 6561TIP3    H141098   3.210   0.457  13.292  0.4713  1.6729 -0.8089
 6561TIP3    H241099   3.345   0.451  13.223  0.3324  0.1072 -0.9611
 6562TIP3   OH241100   1.066   5.144  13.063 -0.2658 -0.4388 -0.2615
 6562TIP3    H141101   1.061   5.176  13.153 -1.2632  1.1340 -0.8681
 6562TIP3    H241102   0.975   5.137  13.036  0.0738  0.8100 -1.7521
 6563TIP3   OH241103   5.988   0.136  15.939 -0.1151 -0.3129 -0.2576
 6563TIP3    H141104   6.006   0.175  16.024 -0.3193 -1.2250  0.2105
 6563TIP3    H241105   6.074   0.111  15.905 -0.1753 -1.6580  0.5214
 6564TIP3   OH241106   6.346   1.807   5.888 -0.0321  0.2544  0.9986
 6564TIP3    H141107   6.369   1.881   5.945 -0.0215  0.1327  1.1525
 6564TIP3    H241108   6.349   1.731   5.945  0.2340  0.0973  0.7748
 6565TIP3   OH241109   4.019   4.556  13.679 -0.1803 -0.1963  0.5117
 6565TIP3    H141110   3.994   4.469  13.709  0.4345 -0.6514 -0.2828
 6565TIP3    H241111   4.054   4.542  13.591  1.0081  0.6896  0.8293
 6566TIP3   OH241112   0.352   3.157   6.776 -0.2857 -0.1291  0.9979
 6566TIP3    H141113   0.379   3.106   6.701  0.0977 -0.0579  1.0857
 6566TIP3    H241114   0.309   3.234   6.739  0.1981  0.0673  0.8485
 6567TIP3   OH241115   0.701   2.702  10.642  0.3382 -0.2143 -0.0012
 6567TIP3    H141116   0.795   2.721  10.651  0.4916 -1.1147  0.3286
 6567TIP3    H241117   0.658   2.784  10.667  1.0080 -0.1105  0.8410
 6568TIP3   OH241118   0.291   6.095  16.212  0.2960  0.2363 -0.1131
 6568TIP3    H141119   0.311   6.021  16.270  0.7055  0.0128 -0.5312
 6568TIP3    H241120   0.251   6.055  16.135  0.6895  0.4362 -0.4204
 6569TIP3   OH241121   4.362   2.004  16.352  0.6052 -0.6159 -0.2197
 6569TIP3    H141122   4.333   2.066  16.285 -0.7673  0.2304  1.1159
 6569TIP3    H241123   4.393   1.928  16.302  2.1886  1.0669 -1.8704
 6570TIP3   OH241124   1.217   5.041   0.946 -0.1574  0.5516 -0.0517
 6570TIP3    H141125   1.288   5.073   0.890  1.1362 -1.6683  0.2601
 6570TIP3    H241126   1.225   4.945   0.942 -1.0531  0.3292  2.6114
 6571TIP3   OH241127   4.655   4.062  15.288 -0.6814  0.2749 -0.4069
 6571TIP3    H141128   4.679   4.084  15.198 -1.6124 -0.4225 -0.8337
 6571TIP3    H241129   4.726   4.005  15.319  0.3633  1.6492 -0.2019
 6572TIP3   OH241130   4.426   1.065   4.000 -0.0012 -0.4602 -0.0938
 6572TIP3    H141131   4.386   1.093   4.082 -0.4628 -0.2523 -0.3828
 6572TIP3    H241132   4.473   0.984   4.022  0.8041  0.1938  0.6037
 6573TIP3   OH241133   0.992   5.664   2.747 -0.6073 -0.2011 -0.2159
 6573TIP3    H141134   1.017   5.709   2.666 -1.6900 -2.2031 -1.7283
 6573TIP3    H241135   0.902   5.692   2.763 -0.9388 -1.0372 -0.6013
 6574TIP3   OH241136   3.434   0.171   5.252 -0.0929  0.1016  0.2273
 6574TIP3    H141137   3.447   0.263   5.227  0.4925 -0.4744 -1.6601
 6574TIP3    H241138   3.509   0.125   5.215 -0.4183 -1.1583  1.1061
 6575TIP3   OH241139   6.757   0.429   5.008  0.0717 -0.3635 -0.2913
 6575TIP3    H141140   6.679   0.414   4.953 -1.2569 -1.0152  1.7109
 6575TIP3    H241141   6.818   0.359   4.982 -0.6762 -0.8899 -0.6777
 6576TIP3   OH241142   5.588   0.768  15.089 -0.4317 -0.4928  0.1856
 6576TIP3    H141143   5.639   0.817  15.153 -0.2446 -0.7225  0.2092
 6576TIP3    H241144   5.589   0.823  15.010  0.9155 -1.0866 -0.2209
 6577TIP3   OH241145   0.107   4.154   2.105  0.0996 -0.2438  0.1504
 6577TIP3    H141146   0.147   4.216   2.044  0.1967 -0.2936  0.1629
 6577TIP3    H241147   0.126   4.190   2.192 -0.8878  0.3379  0.1270
 6578TIP3   OH241148   4.769   1.290  16.919  0.0134  0.2016  0.4475
 6578TIP3    H141149   4.746   1.273  16.827 -0.1002  2.1951  0.0970
 6578TIP3    H241150   4.741   1.210  16.965  1.2228 -1.3418 -1.4136
 6579TIP3   OH241151   5.754   1.976   6.005 -0.4869  0.1374 -0.2487
 6579TIP3    H141152   5.805   2.052   6.034 -0.6800 -0.2706  1.1826
 6579TIP3    H241153   5.766   1.975   5.910  3.3465 -0.7889  0.1708
 6580TIP3   OH241154   0.932   3.980   2.889 -0.0401 -0.3603  0.1801
 6580TIP3    H141155   0.845   3.948   2.865  0.3886  0.7260 -3.0153
 6580TIP3    H241156   0.985   3.901   2.899 -1.2324 -1.0016  1.5868
 6581TIP3   OH241157   6.351   1.243   1.402  0.6103  0.0713  0.5676
 6581TIP3    H141158   6.264   1.206   1.418  0.1997  1.2702  1.1960
 6581TIP3    H241159   6.410   1.185   1.450  0.2256 -1.0287 -0.2543
 6582TIP3   OH241160   5.960   6.596  16.521 -0.1710  0.0847 -0.3803
 6582TIP3    H141161   6.043   6.597  16.568 -0.6677  2.0480  0.5027
 6582TIP3    H241162   5.959   6.677  16.471 -0.9803 -0.5570 -1.4374
 6583TIP3   OH241163   2.230   1.785  15.955 -0.0890 -0.1951  0.5932
 6583TIP3    H141164   2.198   1.780  15.865  0.9619 -0.3318  0.2202
 6583TIP3    H241165   2.321   1.813  15.947  0.4609 -1.6089  1.5125
 6584TIP3   OH241166   6.101   6.724  15.579  0.0676  0.1839 -0.2137
 6584TIP3    H141167   6.089   6.701  15.671 -1.4860 -0.4622 -0.5692
 6584TIP3    H241168   6.114   6.641  15.534 -1.2435  0.3214 -0.8721
 6585TIP3   OH241169   5.810   2.821  16.535 -0.3991 -0.1774 -0.3874
 6585TIP3    H141170   5.869   2.788  16.603 -0.8722  0.7738  0.4873
 6585TIP3    H241171   5.794   2.745  16.479  0.1995 -0.9006  0.4125
 6586TIP3   OH241172   5.352   0.599  13.057  0.2087 -0.0746  0.4720
 6586TIP3    H141173   5.435   0.592  13.011 -0.5014  0.0680 -0.8620
 6586TIP3    H241174   5.331   0.693  13.054 -0.3321 -0.1989  0.1761
 6587TIP3   OH241175   0.689   4.087   3.215  0.0916 -0.3774 -0.6016
 6587TIP3    H141176   0.645   4.167   3.187 -0.1423 -0.9076 -1.7890
 6587TIP3    H241177   0.776   4.092   3.175  0.3366 -0.3791 -0.0784
 6588TIP3   OH241178   1.412   4.070  11.460 -0.1526  0.4199  0.5145
 6588TIP3    H141179   1.409   4.156  11.418 -2.4855  1.2922  2.3680
 6588TIP3    H241180   1.358   4.014  11.404  0.6855  0.3545 -0.2393
 6589TIP3   OH241181   0.546   0.631   5.063 -0.2405  0.4462  0.4962
 6589TIP3    H141182   0.610   0.643   4.993  0.1847  1.4980  1.0674
 6589TIP3    H241183   0.477   0.578   5.022  0.4428  0.2665 -0.4476
 6590TIP3   OH241184   2.053   2.518   6.130 -0.1534  0.1683  0.0415
 6590TIP3    H141185   1.959   2.513   6.117 -0.3705  1.4714  1.0395
 6590TIP3    H241186   2.072   2.453   6.198 -0.2581 -0.3896 -0.4529
 6591TIP3   OH241187   2.157   0.017  16.419 -0.0228 -0.2713 -0.0781
 6591TIP3    H141188   2.094   0.089  16.424  0.4146  0.0389  0.9976
 6591TIP3    H241189   2.242   0.059  16.414  0.2028 -0.7136 -0.0111
 6592TIP3   OH241190   2.537   5.665   0.271 -0.3477  0.4036 -0.4348
 6592TIP3    H141191   2.526   5.719   0.349  0.4649  1.9264 -1.3504
 6592TIP3    H241192   2.500   5.716   0.199 -1.5975 -1.2158 -0.9862
 6593TIP3   OH241193   6.114   6.439   1.510 -0.1346  0.5109  0.5350
 6593TIP3    H141194   6.076   6.472   1.591  1.4855  0.1009  1.4803
 6593TIP3    H241195   6.063   6.482   1.441 -1.3619  1.0604  1.7474
 6594TIP3   OH241196   0.103   5.689  10.760 -0.4459  0.0098 -0.3753
 6594TIP3    H141197   0.079   5.772  10.720  1.5572  1.4048  1.1800
 6594TIP3    H241198   0.185   5.665  10.717 -1.1569 -1.3327 -1.0165
 6595TIP3   OH241199   2.538   2.037   2.072 -0.1757 -0.6092  0.2026
 6595TIP3    H141200   2.506   1.976   2.006  0.8798 -1.3028  0.3195
 6595TIP3    H241201   2.512   1.999   2.155  0.6823 -1.0296  0.2858
 6596TIP3   OH241202   6.171   6.757   2.904  0.5075  0.1192 -0.0321
 6596TIP3    H141203   6.124   6.825   2.855 -1.3310 -0.8346  0.3753
 6596TIP3    H241204   6.208   6.701   2.836 -0.8357 -0.3851 -0.3621
 6597TIP3   OH241205   0.999   1.434  13.796  0.0823  0.1747  0.1410
 6597TIP3    H141206   1.088   1.446  13.830 -0.0868 -1.7306  1.3587
 6597TIP3    H241207   0.994   1.493  13.721  2.0928  0.9311  0.5549
 6598TIP3   OH241208   5.142   4.483  11.211  0.2912 -0.3976  0.0385
 6598TIP3    H141209   5.183   4.489  11.297  1.1179 -1.3598 -0.2820
 6598TIP3    H241210   5.058   4.440  11.228 -0.5190  1.3606  0.6587
 6599TIP3   OH241211   4.224   4.104   4.116  0.1259 -0.2526 -0.8510
 6599TIP3    H141212   4.182   4.107   4.031  0.4706 -0.4471 -1.0322
 6599TIP3    H241213   4.317   4.088   4.096 -0.0434 -1.9784 -0.3900
 6600TIP3   OH241214   0.111   1.517   0.256  0.2830 -0.5023 -0.1757
 6600TIP3    H141215   0.108   1.422   0.269  0.8000 -0.3320  1.3049
 6600TIP3    H241216   0.175   1.529   0.186 -0.5523 -1.3056 -1.0881
 6601TIP3   OH241217   4.432   5.290  16.596  0.6171  0.5108 -0.0843
 6601TIP3    H141218   4.490   5.361  16.622  2.5752 -1.2071  0.3345
 6601TIP3    H241219   4.446   5.222  16.662 -0.4341 -0.6923 -1.0731
 6602TIP3   OH241220   3.573   1.716   3.378 -0.1885  0.0245 -0.7082
 6602TIP3    H141221   3.606   1.805   3.366  0.6881 -0.1673  0.1679
 6602TIP3    H241222   3.652   1.662   3.386 -0.6808 -0.4235  1.5450
 6603TIP3   OH241223   0.786   2.697  16.559  0.3768  0.5059  0.4267
 6603TIP3    H141224   0.785   2.627  16.494  0.2667 -0.1049  1.0823
 6603TIP3    H241225   0.873   2.736  16.550  0.5679  0.0573  0.3100
 6604TIP3   OH241226   3.479   3.113  17.108  0.2359 -0.2432  0.2473
 6604TIP3    H141227   3.469   3.102  17.014  2.2072  1.6141 -0.2054
 6604TIP3    H241228   3.497   3.025  17.141 -0.8969 -0.9713 -1.0160
 6605TIP3   OH241229   0.115   4.384  15.282  0.4972 -0.8634 -0.3664
 6605TIP3    H141230   0.148   4.310  15.333  1.6569  0.2997  0.6144
 6605TIP3    H241231   0.143   4.365  15.193  2.4846 -0.6914  0.1861
 6606TIP3   OH241232   2.601   0.382   0.626 -0.3175 -0.0127  0.3512
 6606TIP3    H141233   2.540   0.455   0.627  1.3530  1.4275  0.3660
 6606TIP3    H241234   2.670   0.407   0.688  0.4691 -1.4328  0.0973
 6607TIP3   OH241235   1.621   3.537   4.840  0.0897  0.2638 -0.8076
 6607TIP3    H141236   1.659   3.536   4.928 -2.0416 -2.2993  0.1338
 6607TIP3    H241237   1.679   3.480   4.789  1.2479  1.6444 -1.0880
 6608TIP3   OH241238   3.563   6.533   2.315 -0.4858 -0.0559 -0.2922
 6608TIP3    H141239   3.641   6.486   2.344  0.0993  0.5132 -0.9303
 6608TIP3    H241240   3.497   6.465   2.302  0.4859 -0.7539 -1.6783
 6609TIP3   OH241241   2.682   6.340  11.663 -0.2196  0.4025  0.4262
 6609TIP3    H141242   2.588   6.353  11.674 -0.1059  0.8468  0.8710
 6609TIP3    H241243   2.718   6.351  11.750  0.3318  0.9467  0.1328
 6610TIP3   OH241244   2.941   5.902  11.519 -0.1051  0.7517 -0.3735
 6610TIP3    H141245   3.004   5.956  11.567 -0.5808  0.0311  1.0920
 6610TIP3    H241246   2.993   5.861  11.449  0.8984  0.7790  0.3413
 6611TIP3   OH241247   2.762   2.739   4.692 -0.3455  0.2092 -0.3580
 6611TIP3    H141248   2.833   2.803   4.688 -1.1772  1.1237 -0.5878
 6611TIP3    H241249   2.747   2.725   4.785 -0.8008  1.0644 -0.3016
 6612TIP3   OH241250   2.593   6.006  16.857 -0.3832 -0.2756 -0.0071
 6612TIP3    H141251   2.593   6.096  16.891 -0.8983 -0.5734  0.7722
 6612TIP3    H241252   2.605   5.951  16.934  0.2581 -0.8695 -0.5284
 6613TIP3   OH241253   0.294   4.393   5.403 -0.0571 -0.0449  0.4680
 6613TIP3    H141254   0.248   4.316   5.368  0.9350  0.0136 -1.0378
 6613TIP3    H241255   0.337   4.361   5.482 -0.5415 -0.7598  0.4523
 6614TIP3   OH241256   4.591   2.122   6.260 -0.2781 -0.2902  0.1448
 6614TIP3    H141257   4.683   2.102   6.244  0.3869  3.2581 -0.8182
 6614TIP3    H241258   4.546   2.096   6.180  0.2280  0.0494 -0.2501
 6615TIP3   OH241259   0.668   5.602   4.006 -0.5434  0.2632  0.0283
 6615TIP3    H141260   0.674   5.598   3.911  0.4703 -0.7670  0.1195
 6615TIP3    H241261   0.758   5.589   4.036 -1.4040 -3.4827  1.2298
 6616TIP3   OH241262   3.436   4.207  15.504  0.4829 -0.3834  0.0786
 6616TIP3    H141263   3.372   4.140  15.531  0.1927  0.0490  0.4700
 6616TIP3    H241264   3.436   4.203  15.409 -2.6277  1.9245 -0.0887
 6617TIP3   OH241265   5.614   5.943   1.816 -0.2497  0.0227  0.0775
 6617TIP3    H141266   5.682   5.881   1.791 -0.0534 -0.1118  0.9231
 6617TIP3    H241267   5.534   5.908   1.778 -0.1832 -0.9003  0.7947
 6618TIP3   OH241268   4.547   3.956  11.668  0.0457  0.1191  0.1041
 6618TIP3    H141269   4.458   3.934  11.696  0.0971 -0.3983 -0.1456
 6618TIP3    H241270   4.583   3.875  11.633  0.2561  0.5689 -0.7511
 6619TIP3   OH241271   0.735   0.266  13.133 -0.2627  0.5410  0.4536
 6619TIP3    H141272   0.776   0.262  13.046 -1.5033  2.8393 -0.2869
 6619TIP3    H241273   0.808   0.261  13.194  0.7200 -0.1049 -0.7358
 6620TIP3   OH241274   6.431   4.189  14.108 -0.1553  0.3029 -0.5733
 6620TIP3    H141275   6.425   4.216  14.200  0.3309 -1.3785 -0.0296
 6620TIP3    H241276   6.524   4.193  14.088  0.1447 -2.4077  0.0067
 6621TIP3   OH241277   2.242   6.389  11.886  0.3449  0.3392  0.1186
 6621TIP3    H141278   2.162   6.432  11.854  1.2932  2.0171 -0.0500
 6621TIP3    H241279   2.250   6.418  11.977  0.5738 -0.1230  0.2462
 6622TIP3   OH241280   3.453   3.387  17.088 -0.0468 -0.2819 -0.1344
 6622TIP3    H141281   3.405   3.426  17.161  0.0471  0.2459 -0.3513
 6622TIP3    H241282   3.459   3.294  17.110  0.4455 -0.0408  0.7838
 6623TIP3   OH241283   3.620   4.053  11.626 -0.2554  0.5806 -0.0400
 6623TIP3    H141284   3.640   4.067  11.719  0.5546  0.1199 -0.1422
 6623TIP3    H241285   3.673   4.118  11.580 -0.6678  0.8194 -0.1814
 6624TIP3   OH241286   1.113   5.880   5.343  0.5052  0.2848  0.0196
 6624TIP3    H141287   1.050   5.898   5.412  0.8954 -1.2696  0.8045
 6624TIP3    H241288   1.197   5.903   5.380  0.9080 -2.1551  0.7121
 6625TIP3   OH241289   6.038   1.004  15.187  0.2582 -0.2172 -0.5759
 6625TIP3    H141290   5.968   0.988  15.124  0.5561  1.8260 -1.4950
 6625TIP3    H241291   5.998   0.991  15.273 -0.6640 -1.1385 -1.1461
 6626TIP3   OH241292   5.162   3.246   4.072  0.1981  0.3152 -0.1326
 6626TIP3    H141293   5.167   3.153   4.094 -0.5808  0.0911 -0.8735
 6626TIP3    H241294   5.249   3.280   4.091  0.1410 -0.3002  1.3082
 6627TIP3   OH241295   2.272   1.227  11.973  0.2269  0.2072 -0.3509
 6627TIP3    H141296   2.363   1.254  11.978  0.2806  0.1091 -0.7755
 6627TIP3    H241297   2.239   1.238  12.062  1.1181 -1.4173  0.1961
 6628TIP3   OH241298   0.725   1.126   4.319 -0.7200  0.0625 -0.9182
 6628TIP3    H141299   0.736   1.049   4.264 -0.4698 -0.0700 -0.6857
 6628TIP3    H241300   0.800   1.124   4.379 -0.0505  1.1266 -1.6844
 6629TIP3   OH241301   3.855   5.536   4.056 -0.3868  0.0704 -0.0342
 6629TIP3    H141302   3.765   5.538   4.087 -1.1961  0.0666 -2.3354
 6629TIP3    H241303   3.875   5.628   4.035 -0.0701 -0.0215 -0.1406
 6630TIP3   OH241304   0.713   2.003  12.335 -0.4264  0.5230  0.0390
 6630TIP3    H141305   0.753   2.083  12.302  1.9187  0.4551  2.5491
 6630TIP3    H241306   0.732   1.937  12.268  0.9799  1.2165 -0.2686
 6631TIP3   OH241307   1.821   1.433   0.177 -0.3330  0.4553  0.4692
 6631TIP3    H141308   1.800   1.359   0.234  2.8151 -0.6863  0.2662
 6631TIP3    H241309   1.853   1.500   0.237 -0.4904  0.5935  0.3965
 6632TIP3   OH241310   3.294   0.430  12.690 -0.3876  0.1254  0.4370
 6632TIP3    H141311   3.302   0.525  12.689 -1.6902  0.2410  0.8017
 6632TIP3    H241312   3.200   0.413  12.684 -0.0980 -1.1667 -0.9941
 6633TIP3   OH241313   2.229   3.134   6.132  0.1507  0.5057  0.0511
 6633TIP3    H141314   2.218   3.159   6.224  0.3473 -1.7305  0.7005
 6633TIP3    H241315   2.277   3.207   6.093 -0.2675  1.6432  1.6294
 6634TIP3   OH241316   5.074   4.713   3.940 -0.1691 -0.4603  0.1852
 6634TIP3    H141317   4.981   4.738   3.934 -0.3857 -1.3833 -0.3433
 6634TIP3    H241318   5.088   4.700   4.034  0.1771  2.4574  0.5901
 6635TIP3   OH241319   0.625   5.816   2.324 -0.2893 -0.0785 -0.3191
 6635TIP3    H141320   0.533   5.845   2.320 -0.1955  0.1283 -1.1316
 6635TIP3    H241321   0.638   5.789   2.414 -1.5464 -1.3873 -0.5183
 6636TIP3   OH241322   2.584   1.631   1.356  0.1893  0.2168 -0.6902
 6636TIP3    H141323   2.650   1.573   1.318  1.1093 -0.1351  1.4148
 6636TIP3    H241324   2.559   1.589   1.438 -0.9404  1.5565 -0.3213
 6637TIP3   OH241325   2.684   2.441   2.423  0.0478 -0.0393  0.2247
 6637TIP3    H141326   2.703   2.425   2.516 -0.0932  2.4810  0.7291
 6637TIP3    H241327   2.590   2.427   2.415 -0.0925  0.6063  0.6773
 6638TIP3   OH241328   1.290   4.621  11.404  0.2827  0.3472 -0.3937
 6638TIP3    H141329   1.266   4.593  11.492 -2.4720 -0.0241 -1.2314
 6638TIP3    H241330   1.267   4.714  11.401 -0.4635  0.1491 -0.9921
 6639TIP3   OH241331   6.311   1.918  14.776  0.0156  0.2613  0.5730
 6639TIP3    H141332   6.344   1.995  14.823  0.0175  1.5458 -1.4545
 6639TIP3    H241333   6.387   1.882  14.731  0.3834 -2.0416  2.9375
 6640TIP3   OH241334   2.644   1.135  11.775 -0.5236 -0.0578 -0.0260
 6640TIP3    H141335   2.723   1.120  11.828 -0.5677  0.3248  0.1442
 6640TIP3    H241336   2.678   1.155  11.688 -0.4427 -0.2782 -0.0476
 6641TIP3   OH241337   5.154   4.728   6.308 -0.0347  0.3911  0.4033
 6641TIP3    H141338   5.083   4.706   6.368 -0.0435  0.2004  0.3233
 6641TIP3    H241339   5.232   4.733   6.364 -0.2076  1.1637  0.5828
 6642TIP3   OH241340   3.583   3.720   1.139 -0.7319  0.0466  0.8370
 6642TIP3    H141341   3.591   3.655   1.209 -2.7271  0.6018  1.6180
 6642TIP3    H241342   3.517   3.683   1.080  1.2119 -0.6007 -0.9924
 6643TIP3   OH241343   6.111   1.137   1.434 -0.2043 -0.0219  0.7853
 6643TIP3    H141344   6.066   1.052   1.441  1.2501 -0.8701 -0.1851
 6643TIP3    H241345   6.046   1.194   1.393 -0.4221 -1.2282 -0.5738
 6644TIP3   OH241346   6.497   0.678  15.120  0.1167  0.0180 -0.2377
 6644TIP3    H141347   6.414   0.630  15.124  1.2995 -2.2326 -1.5566
 6644TIP3    H241348   6.530   0.678  15.209 -0.8485  0.1662  0.1309
 6645TIP3   OH241349   1.118   0.115   4.483  0.3825 -0.1389 -0.0046
 6645TIP3    H141350   1.042   0.072   4.522  0.3222 -0.1769 -0.1604
 6645TIP3    H241351   1.100   0.209   4.492  0.3141 -0.1481 -0.0475
 6646TIP3   OH241352   0.341   5.433   3.189  0.6757 -0.6310 -0.2641
 6646TIP3    H141353   0.265   5.454   3.135  0.0525 -0.8076  0.5276
 6646TIP3    H241354   0.331   5.340   3.209  2.1116 -1.1133 -1.7238
 6647TIP3   OH241355   0.764   3.202   0.918  0.4003  0.4325 -0.4435
 6647TIP3    H141356   0.715   3.283   0.910  0.6342  0.5257 -1.0013
 6647TIP3    H241357   0.801   3.204   1.006  0.6079  1.0447 -0.5454
 6648TIP3   OH241358   0.998   4.373   6.476 -0.0175 -0.2619  0.4501
 6648TIP3    H141359   1.047   4.456   6.484  1.9636 -0.9954 -2.8535
 6648TIP3    H241360   1.064   4.305   6.489 -1.1053 -1.3088  0.5479
 6649TIP3   OH241361   1.300   1.560   3.885  0.4481 -0.3837  0.2103
 6649TIP3    H141362   1.215   1.548   3.841 -0.7568  2.0925  1.7096
 6649TIP3    H241363   1.285   1.634   3.944  3.6682  0.0663  0.5384
 6650TIP3   OH241364   4.430   4.960  14.299 -0.0532 -0.0603  0.3702
 6650TIP3    H141365   4.391   5.010  14.370  1.2068  0.9042  0.4031
 6650TIP3    H241366   4.488   5.023  14.255 -0.8500 -0.6330 -1.5231
 6651TIP3   OH241367   6.101   4.549   4.233  0.1402 -0.0475  0.5414
 6651TIP3    H141368   6.071   4.540   4.323 -1.2486 -1.1029  0.0073
 6651TIP3    H241369   6.109   4.459   4.201  1.3546  0.2990 -0.1487
 6652TIP3   OH241370   4.373   0.601   4.024 -0.2603 -0.5389 -0.2452
 6652TIP3    H141371   4.340   0.670   4.081  0.4506 -1.6888  1.6520
 6652TIP3    H241372   4.447   0.641   3.978  0.8232 -0.3036  1.6325
 6653TIP3   OH241373   3.057   5.459  14.947 -0.7364  0.1079  1.1325
 6653TIP3    H141374   2.964   5.450  14.967 -1.4501  0.7691 -1.7224
 6653TIP3    H241375   3.073   5.553  14.944  0.0768 -0.0003  1.8278
 6654TIP3   OH241376   0.600   4.292   0.959 -0.5703 -0.1250  0.1777
 6654TIP3    H141377   0.629   4.211   0.916 -1.4327  0.1625 -0.9751
 6654TIP3    H241378   0.586   4.354   0.888  0.7601  1.2893  1.1152
 6655TIP3   OH241379   1.660   5.038  12.111  0.1277  0.4852 -0.1160
 6655TIP3    H141380   1.578   5.071  12.148  1.1081  1.4394  1.2325
 6655TIP3    H241381   1.704   4.994  12.184  1.2126  0.7593 -0.5889
 6656TIP3   OH241382   4.431   3.097  11.837 -0.4037  0.0485  0.6355
 6656TIP3    H141383   4.403   3.175  11.883 -0.4019 -0.2816  1.1959
 6656TIP3    H241384   4.469   3.041  11.904 -1.2191 -0.8178  0.3890
 6657TIP3   OH241385   3.320   3.477   4.156  0.1232 -0.6105 -0.1062
 6657TIP3    H141386   3.263   3.429   4.217  0.5211 -0.0203  0.7460
 6657TIP3    H241387   3.363   3.543   4.211 -0.2616  0.5832 -1.2298
 6658TIP3   OH241388   2.216   3.090   6.433 -0.0131  0.2958  0.1078
 6658TIP3    H141389   2.209   2.999   6.404  1.4858 -0.1818  1.1927
 6658TIP3    H241390   2.218   3.085   6.528  1.4670  1.3456  0.1501
 6659TIP3   OH241391   2.954   0.114  15.862 -0.0113  0.3789 -0.8006
 6659TIP3    H141392   3.002   0.123  15.944 -1.5700 -1.0863  0.3224
 6659TIP3    H241393   2.981   0.030  15.826 -1.3570 -0.2268 -0.4093
 6660TIP3   OH241394   2.484   3.760   0.716  0.1326 -0.4472 -0.8383
 6660TIP3    H141395   2.517   3.709   0.790 -1.8778  0.8999  1.0100
 6660TIP3    H241396   2.545   3.833   0.708  0.0971 -0.3474 -0.2139
 6661TIP3   OH241397   5.932   2.605   3.185 -0.1241 -0.0558  0.3543
 6661TIP3    H141398   5.988   2.528   3.190 -3.9858 -2.8740  2.4197
 6661TIP3    H241399   5.937   2.645   3.272  0.4479  1.0198 -0.1595
 6662TIP3   OH241400   6.576   4.417  12.227 -0.6731  0.0090  0.3366
 6662TIP3    H141401   6.522   4.386  12.154  0.7246 -0.3171 -0.5963
 6662TIP3    H241402   6.538   4.501  12.251 -1.6010 -0.2261 -0.2919
 6663TIP3   OH241403   1.029   2.955   3.671  0.0239  0.0526 -0.0449
 6663TIP3    H141404   1.068   3.023   3.726 -0.2173  0.1731 -0.0198
 6663TIP3    H241405   1.052   2.873   3.715  1.8841  0.0034 -1.0747
 6664TIP3   OH241406   3.607   1.671  13.152  0.6264 -0.4000 -0.2019
 6664TIP3    H141407   3.569   1.591  13.117 -1.6845  0.8875 -0.7630
 6664TIP3    H241408   3.669   1.642  13.219 -0.8931 -2.6151  0.2776
 6665TIP3   OH241409   3.539   1.934   4.629  0.3861  0.5284  0.5035
 6665TIP3    H141410   3.523   1.904   4.719  0.0231  0.3934  0.3964
 6665TIP3    H241411   3.504   1.863   4.575 -1.1858  1.4902  0.2353
 6666TIP3   OH241412   2.588   4.021  14.610  0.2089 -0.1256 -0.6308
 6666TIP3    H141413   2.660   4.060  14.659  1.4313 -2.1008 -0.8141
 6666TIP3    H241414   2.610   4.037  14.518 -0.1415  0.2105 -0.6588
 6667TIP3   OH241415   0.128   1.809  11.446 -0.2258 -0.4242  0.6650
 6667TIP3    H141416   0.189   1.882  11.432 -0.2293 -0.2732  1.4456
 6667TIP3    H241417   0.144   1.781  11.536  0.1201 -1.7080  0.2193
 6668TIP3   OH241418   4.496   2.416   4.030  0.3885  0.0093  0.1873
 6668TIP3    H141419   4.509   2.503   4.068  1.1444 -0.4295  0.9490
 6668TIP3    H241420   4.517   2.426   3.937  3.0569  0.0453  0.7697
 6669TIP3   OH241421   5.850   4.165  15.194 -0.0631  0.5712 -0.4765
 6669TIP3    H141422   5.883   4.178  15.283 -0.5409  3.5276 -0.6999
 6669TIP3    H241423   5.764   4.205  15.193 -0.7799 -0.9350 -1.8285
 6670TIP3   OH241424   0.620   4.544   6.499 -0.2188 -0.5619 -0.1754
 6670TIP3    H141425   0.652   4.598   6.427 -0.6906  2.6174  1.8714
 6670TIP3    H241426   0.524   4.549   6.492 -0.2718  0.4499  1.1257
 6671TIP3   OH241427   1.423   2.394   2.405 -0.7351  0.3703 -0.1324
 6671TIP3    H141428   1.411   2.306   2.368  0.7469  0.4592 -0.8850
 6671TIP3    H241429   1.459   2.378   2.492 -2.0398  0.1989  0.3737
 6672TIP3   OH241430   1.326   5.974  12.572  0.0228  0.0296 -0.2720
 6672TIP3    H141431   1.350   5.908  12.507  1.0901 -0.0881  0.2279
 6672TIP3    H241432   1.383   6.049  12.552 -1.7153  1.1011 -1.3193
 6673TIP3   OH241433   6.113   0.961  14.878 -0.4200  0.1291  0.1081
 6673TIP3    H141434   6.095   0.869  14.858 -0.7427  0.4826 -1.3046
 6673TIP3    H241435   6.206   0.964  14.900  0.4103 -0.0674 -3.0340
 6674TIP3   OH241436   2.902   2.738   2.764  0.2185 -0.1720 -0.8117
 6674TIP3    H141437   2.903   2.813   2.704  0.8948  0.0294 -0.5609
 6674TIP3    H241438   2.961   2.764   2.835 -3.0865  0.9408  1.6351
 6675TIP3   OH241439   5.313   2.138   4.101  0.1613 -0.2429 -0.3530
 6675TIP3    H141440   5.302   2.231   4.084 -0.6541  0.2804  2.6341
 6675TIP3    H241441   5.405   2.129   4.127 -0.6961  0.5245  3.3224
 6676TIP3   OH241442   6.557   5.780   1.728 -0.3186  0.7328  0.3000
 6676TIP3    H141443   6.492   5.795   1.797  0.2019  3.5102  0.2538
 6676TIP3    H241444   6.550   5.856   1.671  0.0351 -0.9978 -2.1416
 6677TIP3   OH241445   6.533   5.854   2.940  0.5748  0.0691  0.0859
 6677TIP3    H141446   6.580   5.930   2.908  1.6988 -0.7427 -0.2240
 6677TIP3    H241447   6.546   5.787   2.872  0.2056 -0.6239  0.6878
 6678TIP3   OH241448   1.385   3.296   4.987 -0.2767 -0.4560 -0.0990
 6678TIP3    H141449   1.371   3.273   5.079  0.5758  0.5847  0.3056
 6678TIP3    H241450   1.461   3.244   4.961  1.2600  1.3381  0.6349
 6679TIP3   OH241451   5.480   5.315   2.803  0.7336 -0.2236 -0.6913
 6679TIP3    H141452   5.543   5.345   2.737  1.6362  0.8512  0.6257
 6679TIP3    H241453   5.504   5.223   2.818  0.4613 -0.5052 -1.9140
 6680TIP3   OH241454   4.608   4.394   3.078 -0.2151 -0.3102 -0.3242
 6680TIP3    H141455   4.697   4.368   3.055 -0.7507 -2.4371 -0.1502
 6680TIP3    H241456   4.579   4.448   3.005  0.8634 -0.4661 -0.8770
 6681TIP3   OH241457   3.204   1.669   5.864  0.0382  0.1511 -0.3892
 6681TIP3    H141458   3.189   1.614   5.941 -1.6835  0.2044 -0.6564
 6681TIP3    H241459   3.142   1.742   5.875 -0.1188  0.2354 -1.7410
 6682TIP3   OH241460   2.247   6.414   2.255  0.3578  0.2625 -0.3807
 6682TIP3    H141461   2.201   6.498   2.259 -0.1034  0.1107 -2.2983
 6682TIP3    H241462   2.335   6.433   2.287  0.2044  1.4437 -0.6613
 6683TIP3   OH241463   1.059   1.617  15.717 -0.3686 -0.1203  0.5217
 6683TIP3    H141464   1.030   1.553  15.782 -0.5088 -1.0272 -0.4224
 6683TIP3    H241465   0.980   1.665  15.692 -0.4857 -0.4250  0.3105
 6684TIP3   OH241466   3.545   1.454  11.723 -0.0296 -0.4465 -0.3067
 6684TIP3    H141467   3.506   1.370  11.697 -0.7126  0.3990 -2.0332
 6684TIP3    H241468   3.475   1.518  11.710  1.6461  0.9529 -2.5445
 6685TIP3   OH241469   5.019   4.246   0.393  0.6583  0.1934 -0.2736
 6685TIP3    H141470   4.950   4.312   0.384  1.0551  0.8561  1.4608
 6685TIP3    H241471   4.974   4.167   0.421  0.7187  0.9326  1.9853
 6686TIP3   OH241472   0.142   4.812  10.416 -0.1653 -0.1508 -0.2991
 6686TIP3    H141473   0.054   4.808  10.378 -0.3207 -0.2157  0.0638
 6686TIP3    H241474   0.201   4.804  10.342 -0.4641 -2.9767 -0.2788
 6687TIP3   OH241475   3.247   1.088  14.169 -0.5967  0.4454  0.8251
 6687TIP3    H141476   3.221   1.083  14.262 -2.8051 -0.4546  0.2079
 6687TIP3    H241477   3.165   1.109  14.123  0.1684 -0.6250 -1.0666
 6688TIP3   OH241478   4.219   4.419   4.484  0.1198 -0.5641  0.0117
 6688TIP3    H141479   4.215   4.325   4.468 -0.1844 -0.8001  1.4137
 6688TIP3    H241480   4.188   4.459   4.403  1.6314 -1.6343 -1.1218
 6689TIP3   OH241481   2.263   0.761   5.024 -0.4722  0.4647 -0.0095
 6689TIP3    H141482   2.239   0.747   4.932 -1.0391 -0.5329  0.2789
 6689TIP3    H241483   2.240   0.852   5.041  1.6040  1.3011 -1.4370
 6690TIP3   OH241484   0.119   4.777   4.250  0.1398 -0.0021 -0.0789
 6690TIP3    H141485   0.094   4.846   4.311  0.2075  1.1027 -1.2816
 6690TIP3    H241486   0.213   4.789   4.236 -0.2804  1.1419 -2.0930
 6691TIP3   OH241487   0.543   4.561   3.916  0.0570 -0.4235 -0.2421
 6691TIP3    H141488   0.510   4.471   3.918 -0.2384 -0.2992  0.5044
 6691TIP3    H241489   0.497   4.605   3.986  0.2745  0.2939 -0.5470
 6692TIP3   OH241490   0.668   5.177   5.455 -0.4916 -0.1754  0.5539
 6692TIP3    H141491   0.707   5.138   5.377 -0.6447  0.7891 -0.0016
 6692TIP3    H241492   0.743   5.205   5.508 -0.3998  1.8925 -0.6192
 6693TIP3   OH241493   3.924   6.647   2.095 -0.2460 -0.3264  0.6671
 6693TIP3    H141494   3.850   6.708   2.088  1.2674  1.6289  1.4441
 6693TIP3    H241495   3.883   6.561   2.095 -2.4830  0.6853  0.2227
 6694TIP3   OH241496   1.715   1.755  17.136  0.2509  0.0028  0.0407
 6694TIP3    H141497   1.718   1.845  17.170 -0.8379 -0.5039  1.5212
 6694TIP3    H241498   1.789   1.750  17.075 -0.5007  2.3241 -1.1324
 6695TIP3   OH241499   6.116   5.660  13.699 -0.2199 -0.2174  0.0797
 6695TIP3    H141500   6.083   5.570  13.696  1.3098 -0.8319  0.7453
 6695TIP3    H241501   6.192   5.660  13.641  1.1662  0.0200  1.8281
 6696TIP3   OH241502   4.562   5.957  14.858 -0.3328  0.2335  0.7202
 6696TIP3    H141503   4.499   5.934  14.790  0.1766 -0.9129  0.6261
 6696TIP3    H241504   4.550   5.890  14.925 -1.0443  1.5273  1.9099
 6697TIP3   OH241505   0.503   3.450   5.061 -0.7489 -0.7851  0.2540
 6697TIP3    H141506   0.487   3.365   5.103 -0.6086 -1.5869 -1.2645
 6697TIP3    H241507   0.579   3.435   5.005 -1.0704  0.1766 -0.4607
 6698TIP3   OH241508   5.341   4.377  12.860 -0.1880  0.2333 -0.2970
 6698TIP3    H141509   5.427   4.370  12.818  0.1132 -0.8234  0.4782
 6698TIP3    H241510   5.350   4.452  12.919 -0.7159  1.9238 -2.3263
 6699TIP3   OH241511   2.010   6.255  12.150 -0.0179  0.0864  0.7473
 6699TIP3    H141512   2.086   6.211  12.112 -0.3467  0.7518 -0.6913
 6699TIP3    H241513   1.937   6.229  12.095 -0.7771 -0.1992  1.8666
 6700TIP3   OH241514   5.941   5.718   5.473  0.9328 -0.2046 -0.0198
 6700TIP3    H141515   6.008   5.661   5.435  3.1383  0.4774  2.6780
 6700TIP3    H241516   5.923   5.680   5.560 -2.9017 -0.8898 -1.0109
 6701TIP3   OH241517   4.580   2.064  12.602  0.5315 -0.5630  0.6219
 6701TIP3    H141518   4.550   1.988  12.651 -0.4126 -0.3739  0.3529
 6701TIP3    H241519   4.648   2.030  12.543 -1.0445 -1.5271 -0.6840
 6702TIP3   OH241520   4.300   2.697  15.729  0.2407 -0.7043 -0.3758
 6702TIP3    H141521   4.392   2.685  15.752  1.1419 -0.8336 -3.7495
 6702TIP3    H241522   4.251   2.666  15.806  2.9757 -0.8867  1.3574
 6703TIP3   OH241523   0.586   0.720  10.933 -0.6467 -0.2565  0.3385
 6703TIP3    H141524   0.621   0.692  11.017 -1.6674 -1.0865  0.4917
 6703TIP3    H241525   0.492   0.710  10.942 -0.7407 -0.5605 -0.9932
 6704TIP3   OH241526   1.006   6.055   0.320  0.0550 -0.1667  0.1826
 6704TIP3    H141527   1.072   5.987   0.336 -1.5921 -1.6392  0.8762
 6704TIP3    H241528   0.922   6.008   0.321 -1.0869  1.8137  0.1879
 6705TIP3   OH241529   0.171   1.904  12.642 -0.0791 -0.1962 -0.0108
 6705TIP3    H141530   0.119   1.891  12.721  0.0280  0.2259  0.1343
 6705TIP3    H241531   0.163   1.998  12.625  2.6847  0.3415  1.4471
 6706TIP3   OH241532   3.129   1.470  12.632  0.1540  0.0566  0.5374
 6706TIP3    H141533   3.157   1.412  12.561  0.7826  0.6679  0.2845
 6706TIP3    H241534   3.124   1.413  12.708  0.7221 -0.3461  0.2796
 6707TIP3   OH241535   6.480   2.686   0.158 -0.3764 -0.3065 -0.5055
 6707TIP3    H141536   6.420   2.759   0.175  1.2598  0.7174  1.1136
 6707TIP3    H241537   6.567   2.721   0.178  0.4416 -2.7501  0.4794
 6708TIP3   OH241538   1.761   0.825   4.642 -0.3507  0.1227  0.2459
 6708TIP3    H141539   1.681   0.837   4.692  0.6011  1.4084  1.4968
 6708TIP3    H241540   1.832   0.842   4.705  1.0059 -4.1161  0.0569
 6709TIP3   OH241541   4.925   1.839   2.274  0.0564 -0.3446 -0.4123
 6709TIP3    H141542   4.986   1.909   2.295 -0.0923 -0.3587  0.0700
 6709TIP3    H241543   4.953   1.765   2.328  0.9742 -1.0579 -1.8237
 6710TIP3   OH241544   4.924   0.955  12.817  0.5648  0.5777  0.1947
 6710TIP3    H141545   4.844   0.986  12.859 -0.5103  0.9187 -2.0457
 6710TIP3    H241546   4.901   0.869  12.781  1.4821  0.2688  0.3156
 6711TIP3   OH241547   1.267   2.309  17.079 -0.2570 -0.1033  0.1653
 6711TIP3    H141548   1.247   2.382  17.021 -1.3448 -1.9031 -1.8186
 6711TIP3    H241549   1.275   2.348  17.165  0.0571  2.4624 -0.9913
 6712TIP3   OH241550   5.542   1.721  14.321 -0.4798 -0.0016 -0.0342
 6712TIP3    H141551   5.497   1.805  14.334  0.2011  0.9121 -3.1862
 6712TIP3    H241552   5.634   1.741  14.336 -0.8194 -1.6276  5.3016
 6713TIP3   OH241553   4.308   0.604  12.926 -0.5742 -0.4035  0.0646
 6713TIP3    H141554   4.358   0.685  12.929 -0.3477 -0.5333 -0.2807
 6713TIP3    H241555   4.362   0.541  12.973 -0.8916 -0.2807  0.6072
 6714TIP3   OH241556   0.678   0.038   4.997  0.1022  0.0227  0.3461
 6714TIP3    H141557   0.643  -0.007   4.921 -0.3113 -0.4172  0.7945
 6714TIP3    H241558   0.682   0.130   4.971  1.9027 -0.3886 -0.9294
 6715TIP3   OH241559   2.281   2.683  14.702  0.5081 -0.2619 -0.2021
 6715TIP3    H141560   2.318   2.723  14.781 -0.7690  0.1129  0.2206
 6715TIP3    H241561   2.211   2.626  14.735  1.1618 -1.4905 -0.9379
 6716TIP3   OH241562   4.858   2.148  16.945 -0.7987  0.0420  0.1423
 6716TIP3    H141563   4.842   2.166  17.037  3.0719  2.0359  0.5343
 6716TIP3    H241564   4.863   2.053  16.939 -1.9659 -0.1412  1.8021
 6717TIP3   OH241565   5.924   0.536   0.592  0.2752 -0.3956 -0.2061
 6717TIP3    H141566   6.004   0.577   0.624  0.0025 -0.3448  0.4195
 6717TIP3    H241567   5.854   0.594   0.622  0.0134 -0.3296 -0.9240
 6718TIP3   OH241568   2.639   5.797   1.257 -0.1736  0.3645  0.3802
 6718TIP3    H141569   2.623   5.885   1.291  0.1433  0.2114  0.9289
 6718TIP3    H241570   2.588   5.793   1.176  1.0783  1.6162 -0.4974
 6719TIP3   OH241571   2.116   1.216  14.727 -0.1415  0.3258 -0.8294
 6719TIP3    H141572   2.197   1.224  14.677 -0.2968 -1.2520 -1.3524
 6719TIP3    H241573   2.051   1.265  14.677  0.3723  1.2765 -0.5994
 6720TIP3   OH241574   0.091   0.640  13.438 -0.4716  0.1991  0.0135
 6720TIP3    H141575   0.043   0.635  13.520  0.2235  0.6927  0.4470
 6720TIP3    H241576   0.024   0.664  13.373 -1.3343 -1.7046  0.1418
 6721TIP3   OH241577   2.879   1.845  17.058 -0.3594  0.0263 -0.2736
 6721TIP3    H141578   2.824   1.835  17.136  1.1238  0.4584  0.8590
 6721TIP3    H241579   2.839   1.788  16.993 -2.1495  0.3264  0.5070
 6722TIP3   OH241580   2.104   4.862  15.454  0.1641 -0.1297 -0.8054
 6722TIP3    H141581   2.156   4.781  15.450  0.5967  0.2073 -2.3641
 6722TIP3    H241582   2.169   4.931  15.470  0.0925  0.1924 -1.8981
 6723TIP3   OH241583   4.323   6.062   3.049  0.4664  0.8768 -0.4603
 6723TIP3    H141584   4.322   5.976   3.092 -2.0800  1.3471  0.4870
 6723TIP3    H241585   4.387   6.052   2.978  0.6199 -1.6172 -0.0218
 6724TIP3   OH241586   5.873   0.804  12.684  0.1545 -0.4739 -0.1268
 6724TIP3    H141587   5.875   0.878  12.745  1.9953 -1.3500  0.9058
 6724TIP3    H241588   5.961   0.800  12.647  0.5412 -3.0815  0.9847
 6725TIP3   OH241589   5.627   3.247  13.147  0.1802 -0.0260  0.3522
 6725TIP3    H141590   5.583   3.171  13.185 -0.7323 -0.0372 -0.7091
 6725TIP3    H241591   5.558   3.313  13.137  0.0663 -0.5078 -2.5762
 6726TIP3   OH241592   1.508   4.054  13.186  0.3036 -0.3686 -0.4256
 6726TIP3    H141593   1.586   3.999  13.184  1.0335  0.6142  0.7675
 6726TIP3    H241594   1.457   4.021  13.260 -0.6991 -1.3589 -1.5223
 6727TIP3   OH241595   1.221   5.567   2.408 -0.2164 -0.0446  0.2286
 6727TIP3    H141596   1.193   5.476   2.403 -0.7228  0.1029  0.3513
 6727TIP3    H241597   1.260   5.575   2.494 -0.6618 -0.0097  0.4284
 6728TIP3   OH241598   1.105   0.659  16.512  0.3810  0.5854 -0.2788
 6728TIP3    H141599   1.200   0.672  16.522  0.1191  1.2843  1.5652
 6728TIP3    H241600   1.088   0.675  16.419  2.2280 -0.6596 -0.8796
 6729TIP3   OH241601   5.599   0.133   5.399  0.2124  0.1025 -0.2854
 6729TIP3    H141602   5.578   0.106   5.310  0.4115  0.9637 -0.6004
 6729TIP3    H241603   5.610   0.051   5.447 -0.2092 -0.3639 -0.9773
 6730TIP3   OH241604   1.656   0.706  11.643  0.0740 -0.1179 -0.2200
 6730TIP3    H141605   1.617   0.679  11.560 -0.3629 -0.2812  0.0335
 6730TIP3    H241606   1.709   0.630  11.670  0.2291 -0.0583 -0.3577
 6731TIP3   OH241607   4.561   0.067  13.013 -0.2243 -0.0666  0.0423
 6731TIP3    H141608   4.531  -0.002  12.953  0.5289 -0.6420  0.3245
 6731TIP3    H241609   4.482   0.119  13.031 -1.1991 -1.9289  1.2693
 6732TIP3   OH241610   5.798   4.765   0.489  0.3201 -0.6653  0.1679
 6732TIP3    H141611   5.731   4.702   0.465 -1.3051  0.0888  2.4904
 6732TIP3    H241612   5.864   4.714   0.535 -0.1681 -0.9578  0.5541
 6733TIP3   OH241613   3.253   4.036  12.455 -0.1805 -0.3397  0.2318
 6733TIP3    H141614   3.268   3.984  12.376  0.4169 -0.9566  0.7478
 6733TIP3    H241615   3.189   3.986  12.505 -0.6097  0.0847  0.1118
 6734TIP3   OH241616   6.552   5.775   3.207 -0.6163 -0.2745 -0.2843
 6734TIP3    H141617   6.522   5.779   3.117  0.2281  0.8248 -0.5239
 6734TIP3    H241618   6.499   5.839   3.254  1.6616  2.0698 -0.8167
 6735TIP3   OH241619   1.164   1.067   1.235 -0.5506  0.2520  0.9332
 6735TIP3    H141620   1.072   1.047   1.257 -1.1740  1.5822 -0.3882
 6735TIP3    H241621   1.194   1.122   1.307 -1.1872  0.8557  0.7447
 6736TIP3   OH241622   2.474   0.254  13.232  0.5873 -0.4048 -0.2771
 6736TIP3    H141623   2.468   0.297  13.318  1.3055 -1.1080  0.1292
 6736TIP3    H241624   2.449   0.163  13.249 -1.2811 -0.0902 -1.1997
 6737TIP3   OH241625   5.382   1.535   1.274  0.1330 -0.0102 -0.1580
 6737TIP3    H141626   5.309   1.580   1.318 -0.6044  0.5483 -1.8832
 6737TIP3    H241627   5.459   1.587   1.296 -0.1895  0.1731  0.5779
 6738TIP3   OH241628   2.615   5.263  16.384  0.3996 -0.5912 -0.4853
 6738TIP3    H141629   2.616   5.345  16.433 -0.9743 -1.8386  1.7168
 6738TIP3    H241630   2.560   5.282  16.307 -0.5781  0.3102  0.4195
 6739TIP3   OH241631   3.096   4.390  16.878  0.0074 -0.3576  0.2030
 6739TIP3    H141632   3.155   4.461  16.851 -2.0474  0.9935 -0.8753
 6739TIP3    H241633   3.106   4.324  16.810 -3.3157  1.9897 -2.7581
 6740TIP3   OH241634   1.729   2.648   5.725 -0.5237  0.5269  0.4932
 6740TIP3    H141635   1.809   2.700   5.735 -0.7343  1.1642 -1.0384
 6740TIP3    H241636   1.668   2.686   5.789 -0.3361  1.5047  0.0975
 6741TIP3   OH241637   0.687   4.430   4.184  0.5490  0.3925  0.6577
 6741TIP3    H141638   0.740   4.404   4.260 -1.6172 -1.5087  1.5626
 6741TIP3    H241639   0.646   4.512   4.212  1.3218  0.7659  0.7403
 6742TIP3   OH241640   1.188   1.677  11.451 -0.4343  0.7434  0.0098
 6742TIP3    H141641   1.243   1.746  11.414 -1.3596  0.7342 -1.4181
 6742TIP3    H241642   1.222   1.596  11.414 -0.3771  0.5771  0.4202
 6743TIP3   OH241643   5.493   4.187   5.442  0.5243 -0.1195 -0.0896
 6743TIP3    H141644   5.515   4.264   5.495  1.6624 -0.1487 -0.5066
 6743TIP3    H241645   5.570   4.173   5.387 -0.0816 -0.9506 -0.7379
 6744TIP3   OH241646   1.173   0.030   3.299 -0.5368  0.3288 -0.0848
 6744TIP3    H141647   1.112  -0.020   3.245 -1.2114  2.4428 -1.3235
 6744TIP3    H241648   1.259   0.015   3.259 -0.6588 -0.1975 -0.1558
 6745TIP3   OH241649   6.214   3.597   0.248  0.2541  0.1344  0.1090
 6745TIP3    H141650   6.233   3.575   0.156 -0.7440  1.6875 -0.4833
 6745TIP3    H241651   6.126   3.633   0.246  1.1225  2.4305  1.3262
 6746TIP3   OH241652   6.124   4.529  14.599 -0.4840 -0.2615  0.0809
 6746TIP3    H141653   6.156   4.519  14.688 -0.5489  1.0111  0.2663
 6746TIP3    H241654   6.062   4.457  14.586 -0.8108 -0.1868  1.2169
 6747TIP3   OH241655   6.518   3.610   3.855  0.0064  0.3011 -0.0971
 6747TIP3    H141656   6.595   3.623   3.911 -0.1797 -0.0694  0.2459
 6747TIP3    H241657   6.554   3.573   3.774  0.2914  0.9735 -0.2796
 6748TIP3   OH241658   5.084   5.851  13.861 -0.1022 -0.5274 -0.2035
 6748TIP3    H141659   5.175   5.824  13.848 -0.5557 -1.6723 -1.1153
 6748TIP3    H241660   5.078   5.938  13.821  0.7219 -0.1912  0.3870
 6749TIP3   OH241661   4.019   5.491   4.351 -0.1088  0.4028  0.1101
 6749TIP3    H141662   3.978   5.407   4.371 -0.6892  0.4278 -0.8866
 6749TIP3    H241663   3.966   5.526   4.279  0.2705  1.5103  0.3568
 6750TIP3   OH241664   5.000   1.631   4.941  0.0195 -0.4307  0.0628
 6750TIP3    H141665   5.004   1.701   5.006  1.9958 -1.3013  0.9224
 6750TIP3    H241666   4.970   1.554   4.990 -2.4214 -0.1334 -0.9361
 6751TIP3   OH241667   4.234   3.128   4.421  0.4158 -0.0491 -0.5136
 6751TIP3    H141668   4.170   3.167   4.361  0.8676 -0.4077 -1.2422
 6751TIP3    H241669   4.316   3.172   4.400 -0.0828  2.3049  2.2352
 6752TIP3   OH241670   0.346   3.429  11.453 -0.0702  0.6204  0.8238
 6752TIP3    H141671   0.286   3.355  11.455  2.4687 -1.5919 -0.5836
 6752TIP3    H241672   0.410   3.410  11.522  0.9243  1.1710  0.0741
 6753TIP3   OH241673   4.626   4.388  13.042 -0.2279  0.2130 -0.6117
 6753TIP3    H141674   4.572   4.361  13.117 -0.8636  2.0124 -0.4028
 6753TIP3    H241675   4.576   4.360  12.966 -0.1543 -0.5515 -0.3849
 6754TIP3   OH241676   4.284   6.325   2.133  0.1805 -0.1064  0.3117
 6754TIP3    H141677   4.349   6.361   2.194  1.6129 -1.6222 -0.3048
 6754TIP3    H241678   4.227   6.272   2.188 -0.9637  1.7295  0.9613
 6755TIP3   OH241679   4.212   6.487   3.196 -0.0534  0.2022 -0.8666
 6755TIP3    H141680   4.149   6.548   3.158 -0.6211 -1.0796 -2.0289
 6755TIP3    H241681   4.296   6.533   3.192 -0.3915  0.7352 -2.1588
 6756TIP3   OH241682   4.303   5.621   5.253  0.0136  0.3680  0.5535
 6756TIP3    H141683   4.225   5.565   5.250  0.7809 -0.7706  1.1808
 6756TIP3    H241684   4.376   5.559   5.248  0.8847  1.4840 -1.1363
 6757TIP3   OH241685   1.092   5.104   6.068  0.2023 -0.4789  0.2969
 6757TIP3    H141686   1.097   5.074   5.977 -2.5327 -1.9283  0.5652
 6757TIP3    H241687   1.023   5.170   6.067  1.4734  0.8742  1.0017
 6758TIP3   OH241688   4.071   2.703  11.476  0.1099  0.2626  0.1918
 6758TIP3    H141689   4.054   2.718  11.383  0.3300 -1.9379 -0.2223
 6758TIP3    H241690   4.163   2.729  11.488  0.6735 -1.2557 -0.6489
 6759TIP3   OH241691   5.122   3.773  16.551  0.4918  0.0411  0.2152
 6759TIP3    H141692   5.111   3.838  16.482 -0.9350 -0.2607  0.1455
 6759TIP3    H241693   5.139   3.824  16.631 -2.8858  0.6205  0.6044
 6760TIP3   OH241694   6.448   4.368  14.508  0.9514  0.0830 -0.2362
 6760TIP3    H141695   6.362   4.384  14.469  0.8166 -1.6643 -0.7047
 6760TIP3    H241696   6.429   4.311  14.583  1.7046 -0.4160 -0.4215
 6761TIP3   OH241697   4.294   6.771   4.186 -0.4914  0.4668  0.1655
 6761TIP3    H141698   4.388   6.751   4.197 -0.5708 -0.7506 -1.2755
 6761TIP3    H241699   4.272   6.821   4.265  0.9889 -0.6216  1.3129
 6762TIP3   OH241700   0.742   0.134   1.197  0.1748  0.1066  0.6743
 6762TIP3    H141701   0.653   0.099   1.190  1.7433 -3.9504 -0.7290
 6762TIP3    H241702   0.768   0.118   1.287 -0.0417  0.0056  0.7173
 6763TIP3   OH241703   3.346   4.953   2.722 -0.3154 -0.2577 -0.2360
 6763TIP3    H141704   3.382   4.985   2.639  0.6458 -0.7237 -0.0037
 6763TIP3    H241705   3.359   4.858   2.719  1.5538 -0.0663  1.3205
 6764TIP3   OH241706   5.840   0.840  15.374 -0.2822  0.2907 -0.0901
 6764TIP3    H141707   5.844   0.896  15.451  0.4603 -0.7768  0.6612
 6764TIP3    H241708   5.770   0.777  15.393  2.0207 -1.9825  1.1227
 6765TIP3   OH241709   4.166   2.597   5.881  0.5946 -0.6345  0.0378
 6765TIP3    H141710   4.101   2.528   5.896 -0.8102  0.5351 -0.5979
 6765TIP3    H241711   4.186   2.631   5.969  0.4907 -1.1258  0.2516
 6766TIP3   OH241712   1.908   1.351  13.395  0.4077 -0.3220 -0.9302
 6766TIP3    H141713   1.958   1.292  13.451  1.0579  1.0968  0.0173
 6766TIP3    H241714   1.946   1.438  13.412 -1.1783  0.5119 -1.5440
 6767TIP3   OH241715   5.917   3.194   5.555  0.4832 -0.2299  0.0261
 6767TIP3    H141716   5.828   3.224   5.574  0.1952  0.4490 -2.1463
 6767TIP3    H241717   5.972   3.269   5.577  0.4359 -0.3626  0.6022
 6768TIP3   OH241718   2.976   6.650   2.399  0.2865 -0.4105 -0.3428
 6768TIP3    H141719   2.902   6.635   2.341  0.9410 -2.9436 -0.5998
 6768TIP3    H241720   3.045   6.685   2.343 -0.6189  1.7892 -0.1335
 6769TIP3   OH241721   1.677   2.990   4.542 -0.4753  0.1582 -0.4197
 6769TIP3    H141722   1.696   2.899   4.518 -1.5044 -0.2391  0.2294
 6769TIP3    H241723   1.682   2.991   4.638 -0.3367  0.8254 -0.4303
 6770TIP3   OH241724   2.143   1.346  12.209 -0.1132 -0.6380  0.2534
 6770TIP3    H141725   2.189   1.354  12.293 -0.3770 -1.3571  0.4670
 6770TIP3    H241726   2.155   1.432  12.167  1.3542 -0.7904  0.3454
 6771TIP3   OH241727   4.103   6.621   1.885 -0.1514  0.0146 -0.4048
 6771TIP3    H141728   4.037   6.658   1.944  1.0733 -0.4231  1.2770
 6771TIP3    H241729   4.182   6.614   1.939  0.9465 -0.5779 -2.0549
 6772TIP3   OH241730   1.042   3.340   2.314  0.2486 -0.6650  0.0732
 6772TIP3    H141731   1.104   3.313   2.247  0.9314  0.6662  0.1479
 6772TIP3    H241732   0.977   3.270   2.317  1.8131 -2.1358  0.0902
 6773TIP3   OH241733   6.379   0.244  14.796  0.2367 -0.1026  0.5925
 6773TIP3    H141734   6.386   0.298  14.717 -0.0690 -1.1862 -0.1895
 6773TIP3    H241735   6.296   0.270  14.836  0.0840  0.0026  0.2146
 6774TIP3   OH241736   0.176   2.166   0.705  0.1080 -0.3515 -0.0987
 6774TIP3    H141737   0.170   2.207   0.791  1.9445  0.7374 -0.4655
 6774TIP3    H241738   0.233   2.223   0.655 -0.1216 -1.5132 -1.7373
 6775TIP3   OH241739   2.041   4.908   3.483  0.0655  0.6239 -0.2287
 6775TIP3    H141740   1.956   4.901   3.440  0.3585  0.3955 -0.7918
 6775TIP3    H241741   2.068   4.998   3.468  0.3050  0.4603 -0.8004
 6776TIP3   OH241742   3.096   4.747   5.097  0.0672 -0.3400  0.1568
 6776TIP3    H141743   3.178   4.746   5.047  0.0922 -2.1971  0.2063
 6776TIP3    H241744   3.112   4.810   5.168  0.8494  0.5596 -0.7946
 6777TIP3   OH241745   5.297   0.298   5.421 -0.5966  0.4853 -0.2483
 6777TIP3    H141746   5.273   0.214   5.381  1.5292 -1.1383  1.7349
 6777TIP3    H241747   5.390   0.308   5.401  0.1510  0.3380  2.9076
 6778TIP3   OH241748   0.527   1.761  17.133 -0.0937 -0.2821 -0.1246
 6778TIP3    H141749   0.466   1.821  17.088 -2.1411 -1.0878  1.4699
 6778TIP3    H241750   0.479   1.678  17.137  0.3911 -0.4576  2.7357
 6779TIP3   OH241751   1.546   3.802  16.448 -0.3109  0.5950 -0.0214
 6779TIP3    H141752   1.541   3.779  16.355 -2.1200  0.4642  0.0758
 6779TIP3    H241753   1.572   3.721  16.492 -0.8975  0.2536 -0.2834
 6780TIP3   OH241754   4.182   0.245   1.291 -0.2938 -0.0049  0.1911
 6780TIP3    H141755   4.264   0.203   1.318  0.0816  1.1656  0.9069
 6780TIP3    H241756   4.137   0.178   1.239  0.8270 -0.8768  0.3174
 6781TIP3   OH241757   0.930   2.219  13.109  0.1343  0.2753 -0.6101
 6781TIP3    H141758   0.926   2.126  13.085  0.0595  0.0414  0.3005
 6781TIP3    H241759   0.954   2.263  13.027 -0.5900 -0.4590 -1.2369
 6782TIP3   OH241760   2.978   1.932  15.544  0.1312 -0.1583  0.1810
 6782TIP3    H141761   2.907   1.873  15.571  0.1546 -0.5440 -0.5841
 6782TIP3    H241762   2.941   1.984  15.473 -0.2754  1.6192  1.6530
 6783TIP3   OH241763   5.439   0.396  12.656 -0.0576  0.7957  0.1890
 6783TIP3    H141764   5.533   0.407  12.666 -0.0827  1.0761  0.1385
 6783TIP3    H241765   5.413   0.341  12.729  0.1676  0.5985  0.1196
 6784TIP3   OH241766   6.273   1.436   4.352 -0.2541 -0.2257 -0.0678
 6784TIP3    H141767   6.365   1.413   4.364 -0.5249 -1.6621 -0.6948
 6784TIP3    H241768   6.234   1.428   4.439  0.7763  3.0521  0.7512
 6785TIP3   OH241769   4.579   2.242   4.239 -0.1386 -0.6201  0.0768
 6785TIP3    H141770   4.594   2.314   4.300 -0.4753 -0.1832 -0.3539
 6785TIP3    H241771   4.581   2.284   4.152  0.3917 -1.2387 -0.2149
 6786TIP3   OH241772   4.350   6.498   3.589 -0.4329 -0.3376  0.4078
 6786TIP3    H141773   4.416   6.508   3.658  1.2766  3.0577 -1.6019
 6786TIP3    H241774   4.390   6.438   3.526  0.9318  1.8394 -0.8875
 6787TIP3   OH241775   0.310   1.146  15.949  0.3779 -0.2687 -0.0092
 6787TIP3    H141776   0.307   1.064  15.900 -0.3459  0.7363 -1.7024
 6787TIP3    H241777   0.245   1.137  16.018 -1.8466 -0.0144 -2.0104
 6788TIP3   OH241778   3.890   5.721  15.921 -0.0291 -0.5228  0.4549
 6788TIP3    H141779   3.959   5.786  15.909  0.5473 -1.1728  0.2041
 6788TIP3    H241780   3.843   5.721  15.837 -1.0678  0.7451  1.0141
 6789TIP3   OH241781   0.043   6.129   5.132  0.0490 -0.1747 -0.2669
 6789TIP3    H141782  -0.041   6.147   5.173 -0.3819 -1.5720 -0.5066
 6789TIP3    H241783   0.102   6.113   5.206  0.4274  2.0263 -0.0516
 6790TIP3   OH241784   3.954   6.634  11.387 -0.2768 -0.0351 -0.0904
 6790TIP3    H141785   3.985   6.628  11.296  0.5475  0.6312  0.1436
 6790TIP3    H241786   3.866   6.672  11.380  0.3720  1.4269 -0.5161
 6791TIP3   OH241787   1.629   1.200  16.597  0.4875  0.4994 -0.0795
 6791TIP3    H141788   1.585   1.146  16.532  1.6548 -0.7556  0.1469
 6791TIP3    H241789   1.570   1.201  16.673  0.7520 -1.0285  0.1622
 6792TIP3   OH241790   6.143   1.729  14.902 -0.1609 -0.1113 -0.1619
 6792TIP3    H141791   6.056   1.752  14.868  0.0429 -2.5121 -2.4389
 6792TIP3    H241792   6.203   1.782  14.850 -0.1960  0.9986  0.9078
 6793TIP3   OH241793   0.985   1.787  12.535 -0.8140 -0.7298 -0.3903
 6793TIP3    H141794   1.009   1.812  12.446 -1.0052  0.0523 -0.2266
 6793TIP3    H241795   1.058   1.734  12.566 -1.0926 -1.6575 -1.2843
 6794TIP3   OH241796   4.138   4.561   1.349 -0.8767 -0.0091 -0.2650
 6794TIP3    H141797   4.163   4.627   1.413 -1.1047 -1.6052  1.4903
 6794TIP3    H241798   4.042   4.561   1.350 -0.8745 -1.4965  0.9359
 6795TIP3   OH241799   6.048   0.099   0.275 -0.5041 -0.7596 -0.0379
 6795TIP3    H141800   6.034   0.005   0.260 -0.0514 -0.5602 -1.7441
 6795TIP3    H241801   6.136   0.104   0.312 -0.2768 -0.9548 -0.5433
 6796TIP3   OH241802   1.132   4.856  14.327 -0.0267 -0.3312  0.3424
 6796TIP3    H141803   1.099   4.769  14.308 -2.0377  1.0386 -2.8380
 6796TIP3    H241804   1.091   4.913  14.261  2.1815  2.8117  1.5282
 6797TIP3   OH241805   4.823   6.541   0.679 -0.0946 -0.9596  0.2222
 6797TIP3    H141806   4.852   6.545   0.588 -0.4644 -1.4398  0.0846
 6797TIP3    H241807   4.892   6.587   0.728  0.0072 -0.5355 -0.3177
 6798TIP3   OH241808   4.977   5.136   3.906 -0.1275  0.7649 -0.0476
 6798TIP3    H141809   5.018   5.127   3.820 -2.1305  1.0304 -1.0408
 6798TIP3    H241810   4.943   5.049   3.925 -1.2526  1.1451 -0.3229
 6799TIP3   OH241811   3.594   1.054  17.109  0.2197  0.0853  0.2600
 6799TIP3    H141812   3.675   1.103  17.122 -0.3336  0.7762  1.1820
 6799TIP3    H241813   3.611   0.968  17.147  0.3856  0.3653  0.8274
 6800TIP3   OH241814   4.904   1.841   4.199  0.8599 -0.4425  0.0203
 6800TIP3    H141815   4.974   1.865   4.138  1.5148 -0.9507  0.5720
 6800TIP3    H241816   4.948   1.832   4.284 -0.4514  3.1051  1.2110
 6801TIP3   OH241817   3.874   0.106  14.298  0.1332 -0.0131  0.3540
 6801TIP3    H141818   3.934   0.154  14.240 -0.2057 -0.4098 -0.3267
 6801TIP3    H241819   3.920   0.025  14.317 -0.0064 -0.1320  0.1799
 6802TIP3   OH241820   1.917   4.941  11.016  0.3710 -0.1780 -0.2289
 6802TIP3    H141821   1.877   4.992  11.086  0.1299  0.1820 -0.6253
 6802TIP3    H241822   1.986   4.891  11.059  0.2927  0.1180  0.2465
 6803TIP3   OH241823   3.894   3.363   0.715  0.1276  0.3847  0.2118
 6803TIP3    H141824   3.841   3.420   0.659  0.4675  1.0140  0.5367
 6803TIP3    H241825   3.836   3.340   0.788  0.2009  0.8306  0.4121
 6804TIP3   OH241826   2.263   6.623   3.500 -0.2629 -0.1235  0.5431
 6804TIP3    H141827   2.340   6.588   3.545  0.9368  1.1629 -0.4614
 6804TIP3    H241828   2.207   6.547   3.486  2.5525 -1.8347 -2.1715
 6805TIP3   OH241829   1.933   0.842   1.917 -0.1675 -0.3227 -0.2353
 6805TIP3    H141830   1.930   0.770   1.854 -0.0613 -0.2703 -0.3016
 6805TIP3    H241831   1.996   0.813   1.983 -0.5676 -0.5421  0.0539
 6806TIP3   OH241832   6.511   2.980   5.854  0.4672  0.0448  0.2472
 6806TIP3    H141833   6.572   2.948   5.920 -0.2118  1.2226  1.4834
 6806TIP3    H241834   6.502   2.908   5.792  1.0998 -1.0945  1.4547
 6807TIP3   OH241835   5.501   6.195   1.742  0.4118  0.5685 -0.2785
 6807TIP3    H141836   5.412   6.168   1.723  1.0883 -0.0982 -2.6998
 6807TIP3    H241837   5.543   6.117   1.778 -0.3635  1.3138  2.3580
 6808TIP3   OH241838   6.459   0.053   0.893 -0.3696 -0.2553  0.0303
 6808TIP3    H141839   6.436  -0.005   0.820  1.9104 -2.1248  0.7425
 6808TIP3    H241840   6.422   0.010   0.970  0.0134  0.0386  0.3795
 6809TIP3   OH241841   6.273   2.227   0.423 -0.6943 -0.2416  0.3855
 6809TIP3    H141842   6.354   2.202   0.467  0.8910  0.7276 -1.8382
 6809TIP3    H241843   6.232   2.144   0.399  0.3467 -0.7453  0.3101
 6810TIP3   OH241844   2.328   0.887   1.956  0.4735  0.6341 -0.3043
 6810TIP3    H141845   2.288   0.809   1.994  0.3832  0.3147 -1.0516
 6810TIP3    H241846   2.369   0.932   2.030 -1.1670  0.8982  0.4666
 6811TIP3   OH241847   2.675   1.170  17.141 -0.5188  0.3575 -0.2184
 6811TIP3    H141848   2.753   1.225  17.129 -0.1418 -0.0944  0.1808
 6811TIP3    H241849   2.707   1.080  17.133 -1.0556  0.1782 -0.3682
 6812TIP3   OH241850   4.506   0.842  13.903 -0.4420 -0.3335 -0.1455
 6812TIP3    H141851   4.441   0.893  13.855 -0.2605  1.0124  0.9979
 6812TIP3    H241852   4.534   0.774  13.841 -0.3654  1.2179 -1.8532
 6813TIP3   OH241853   1.407   5.862   5.421  0.3128  0.2315  0.0371
 6813TIP3    H141854   1.414   5.879   5.515  0.9556  0.1716  0.0013
 6813TIP3    H241855   1.461   5.785   5.407 -0.0544  0.0400 -0.3319
 6814TIP3   OH241856   5.347   5.269  15.142 -0.2751  0.3765 -0.1826
 6814TIP3    H141857   5.258   5.269  15.106  0.1286 -0.4897 -1.1793
 6814TIP3    H241858   5.342   5.212  15.219 -0.5520  0.2383 -0.3019
 6815TIP3   OH241859   3.912   3.299  11.179  0.7411  0.0734  0.0920
 6815TIP3    H141860   3.994   3.252  11.196 -0.4464 -2.5431 -1.1312
 6815TIP3    H241861   3.891   3.342  11.261  2.0802 -1.2676  1.1649
 6816TIP3   OH241862   0.124   2.926  14.308  0.0423  0.3754  0.0892
 6816TIP3    H141863   0.143   3.019  14.295  1.6356 -0.0067 -0.4271
 6816TIP3    H241864   0.065   2.924  14.383  0.7960  1.7405  0.7374
 6817TIP3   OH241865   6.367   2.647  15.998  0.1201  0.1662  0.4464
 6817TIP3    H141866   6.312   2.601  15.934  0.5741 -0.5032  0.5337
 6817TIP3    H241867   6.446   2.671  15.950 -0.1520  0.9356  0.3817
 6818TIP3   OH241868   4.828   6.032  14.599  0.4196 -0.7000  0.0643
 6818TIP3    H141869   4.813   5.937  14.608 -0.2352 -0.5752  0.3011
 6818TIP3    H241870   4.905   6.038  14.543 -0.1596 -1.3537 -0.8168
 6819TIP3   OH241871   6.645   2.704   2.188 -0.2127  0.0326 -0.1139
 6819TIP3    H141872   6.656   2.751   2.106 -0.5182 -2.4540 -1.6268
 6819TIP3    H241873   6.610   2.769   2.249  1.4720  2.2952 -1.4961
 6820TIP3   OH241874   3.614   5.755   2.611 -0.7349  0.6158  0.5728
 6820TIP3    H141875   3.548   5.708   2.662 -1.2900  0.5345 -0.2079
 6820TIP3    H241876   3.580   5.845   2.606 -1.1851  0.4032 -0.4750
 6821TIP3   OH241877   2.168   2.036   4.144 -0.5573  0.3219  0.1858
 6821TIP3    H141878   2.262   2.039   4.129 -0.6498  2.8872 -0.0276
 6821TIP3    H241879   2.153   1.950   4.183  2.0732  0.4555  1.6075
 6822TIP3   OH241880   1.583   4.219   3.867  0.1846  0.2785  0.0829
 6822TIP3    H141881   1.637   4.194   3.792 -0.7672 -0.0306 -0.5138
 6822TIP3    H241882   1.606   4.310   3.885  0.6545  0.2520 -0.3807
 6823TIP3   OH241883   6.178   5.476  15.144 -0.4865  0.0288  0.0105
 6823TIP3    H141884   6.142   5.426  15.070 -2.4542  0.2008  0.8324
 6823TIP3    H241885   6.157   5.567  15.123 -2.8785 -0.0913  1.7434
 6824TIP3   OH241886   3.331   5.081   0.257  0.5283  0.4693  0.2543
 6824TIP3    H141887   3.414   5.035   0.244  0.0192 -0.7086  1.1003
 6824TIP3    H241888   3.345   5.166   0.215  1.2054 -0.7341 -2.1086
 6825TIP3   OH241889   3.775   1.315  16.424 -0.0969 -0.5445 -0.9279
 6825TIP3    H141890   3.825   1.372  16.366  1.3904 -1.5729 -0.7229
 6825TIP3    H241891   3.761   1.367  16.503  0.2787 -0.0699 -1.1667
 6826TIP3   OH241892   4.552   3.155   2.922  0.2374  0.3971  0.4611
 6826TIP3    H141893   4.608   3.211   2.976 -0.2041  1.1093  0.1808
 6826TIP3    H241894   4.527   3.210   2.848  0.7471 -0.5479 -0.4077
 6827TIP3   OH241895   2.380   0.763  14.453 -0.6348 -0.3836  0.0230
 6827TIP3    H141896   2.402   0.829  14.519  1.4368  1.1305 -2.0865
 6827TIP3    H241897   2.412   0.681  14.490  2.4829  0.7664  0.0200
 6828TIP3   OH241898   0.593   1.468   2.403 -0.3153 -0.1522  0.3141
 6828TIP3    H141899   0.627   1.392   2.449 -0.2601 -0.0808  0.3908
 6828TIP3    H241900   0.497   1.460   2.409 -0.3729 -1.5233 -1.7931
 6829TIP3   OH241901   0.075   3.591  12.616 -0.6802  0.0613 -0.2114
 6829TIP3    H141902   0.004   3.555  12.669 -2.1431 -0.4996 -2.4943
 6829TIP3    H241903   0.115   3.658  12.672 -2.4801 -0.1501  1.3852
 6830TIP3   OH241904   5.268   3.963  13.796  0.0452  0.1129 -0.7306
 6830TIP3    H141905   5.216   3.986  13.718 -0.8050  1.6176  0.2464
 6830TIP3    H241906   5.352   4.006  13.782 -0.3321  0.9314 -0.5402
 6831TIP3   OH241907   1.414   3.129   0.208  0.5499  0.5651  0.0784
 6831TIP3    H141908   1.458   3.159   0.288  0.4121 -0.8545  0.7093
 6831TIP3    H241909   1.481   3.080   0.161  0.2368  0.1884  0.0217
 6832TIP3   OH241910   2.173   2.366   0.392  0.5427 -0.3985 -0.0082
 6832TIP3    H141911   2.208   2.290   0.439 -0.4136 -0.5710  0.4453
 6832TIP3    H241912   2.177   2.341   0.299 -0.6197 -1.3810  0.1939
 6833TIP3   OH241913   3.434   4.586   5.567  0.6872 -0.0935  0.8153
 6833TIP3    H141914   3.526   4.570   5.548  0.5286 -2.9825  2.3014
 6833TIP3    H241915   3.387   4.517   5.520 -0.3378 -1.6901  4.0818
 6834TIP3   OH241916   2.602   2.257   1.721  0.3441  0.1841 -0.3246
 6834TIP3    H141917   2.665   2.328   1.708 -1.1444  1.1768 -2.1528
 6834TIP3    H241918   2.607   2.238   1.815  1.0591  2.4096  0.1105
 6835TIP3   OH241919   2.555   4.987   4.275 -0.1183  0.8286  0.1103
 6835TIP3    H141920   2.616   4.982   4.202  0.6564 -0.2733  0.8144
 6835TIP3    H241921   2.601   5.039   4.341  0.0658  0.0346  0.6223
 6836TIP3   OH241922   6.162   1.977  15.156  0.0797 -0.3407 -0.0832
 6836TIP3    H141923   6.072   1.952  15.176  0.1403  0.5302  1.3290
 6836TIP3    H241924   6.161   1.999  15.063 -0.7477 -2.1136 -0.5170
 6837TIP3   OH241925   2.865   3.732  15.690  0.0199 -0.1382 -0.6018
 6837TIP3    H141926   2.919   3.659  15.661 -1.0119 -0.4262 -1.8577
 6837TIP3    H241927   2.818   3.760  15.611 -1.9445 -0.1544  0.5194
 6838TIP3   OH241928   2.786   3.170   5.715  0.2544 -0.1003 -0.3492
 6838TIP3    H141929   2.853   3.222   5.670 -0.0238  1.2201  0.7619
 6838TIP3    H241930   2.703   3.200   5.677  0.0842  0.3760  0.4026
 6839TIP3   OH241931   0.548   2.817   6.033 -0.4054  0.9608  0.0991
 6839TIP3    H141932   0.582   2.863   6.109  1.6684 -0.4219  0.0389
 6839TIP3    H241933   0.596   2.853   5.959 -0.6660  0.5661 -0.2657
 6840TIP3   OH241934   6.303   6.279   0.104 -0.5855 -0.1827 -0.3242
 6840TIP3    H141935   6.296   6.184   0.105  1.6664 -0.3666  0.9195
 6840TIP3    H241936   6.280   6.306   0.193  1.7401  0.1641  0.1985
 6841TIP3   OH241937   1.929   5.504  13.735 -0.7876 -0.4950 -0.1519
 6841TIP3    H141938   1.984   5.469  13.664 -0.4621  0.4582 -0.3760
 6841TIP3    H241939   1.970   5.587  13.758 -1.5899 -0.2329  0.3424
 6842TIP3   OH241940   1.630   2.403  11.994 -0.2891  0.1875  0.0200
 6842TIP3    H141941   1.661   2.337  12.056 -0.6872  1.6957  1.8580
 6842TIP3    H241942   1.535   2.390  11.992 -0.1480 -0.7507 -1.3420
 6843TIP3   OH241943   5.297   5.623  13.151 -0.4887  0.6402 -0.3508
 6843TIP3    H141944   5.328   5.653  13.065  0.7304  0.7777  0.1230
 6843TIP3    H241945   5.374   5.630  13.207 -0.5763 -1.9221  0.1382
 6844TIP3   OH241946   6.395   2.126   0.006 -0.3910 -0.2241 -0.5118
 6844TIP3    H141947   6.454   2.149   0.078 -1.8639 -0.7608  0.9113
 6844TIP3    H241948   6.426   2.041  -0.024  0.2548  0.0154 -0.5229
 6845TIP3   OH241949   1.560   0.544  12.350  0.0455 -0.2694 -0.0516
 6845TIP3    H141950   1.560   0.563  12.256 -0.7215 -0.5544 -0.1161
 6845TIP3    H241951   1.513   0.618  12.389 -0.5151 -0.6389 -0.0067
 6846TIP3   OH241952   5.300   3.476   0.817 -0.3902 -0.1753 -0.3550
 6846TIP3    H141953   5.319   3.507   0.728  0.7737 -1.7021 -0.6478
 6846TIP3    H241954   5.339   3.543   0.874 -2.3983  1.5647 -0.9685
 6847TIP3   OH241955   4.408   5.292   3.597 -0.3050  0.4908  0.0149
 6847TIP3    H141956   4.470   5.273   3.667  0.0726 -0.2271 -0.5123
 6847TIP3    H241957   4.327   5.250   3.624 -0.4201  0.9927  0.4567
 6848TIP3   OH241958   5.917   6.752   5.258  0.2361 -0.2702 -0.1858
 6848TIP3    H141959   6.007   6.772   5.233  0.5701  0.1800  1.3947
 6848TIP3    H241960   5.925   6.684   5.325 -0.5521  0.4182  0.6151
 6849TIP3   OH241961   4.299   2.335  15.994 -0.0641  0.0682  0.0020
 6849TIP3    H141962   4.391   2.359  15.984  0.2164 -0.4889  1.1424
 6849TIP3    H241963   4.300   2.241  16.013 -0.6823  0.5046  2.3653
 6850TIP3   OH241964   4.573   1.097   3.726 -0.1062 -0.2442 -0.4755
 6850TIP3    H141965   4.629   1.020   3.722 -0.1383 -0.2977  0.1070
 6850TIP3    H241966   4.545   1.102   3.817  1.6600  1.7055  0.0051
 6851TIP3   OH241967   6.557   6.670  13.120  0.3217  0.2107 -0.8474
 6851TIP3    H141968   6.575   6.678  13.027 -0.5155 -0.0077 -1.0296
 6851TIP3    H241969   6.481   6.612  13.126  0.8770 -0.4377  0.0154
 6852TIP3   OH241970   5.664   0.288  15.628 -0.4371 -0.4930 -0.3322
 6852TIP3    H141971   5.713   0.365  15.600 -0.7379 -0.6976 -1.4736
 6852TIP3    H241972   5.667   0.229  15.552 -2.2925 -0.5639 -0.3846
 6853TIP3   OH241973   6.295   6.258   0.772 -0.3469  0.1466  0.7246
 6853TIP3    H141974   6.310   6.217   0.858  2.3371 -1.7583 -0.5988
 6853TIP3    H241975   6.259   6.187   0.718 -0.0789  0.7848 -0.2921
 6854TIP3   OH241976   2.755   4.811   0.635 -0.1701  0.1258  0.3383
 6854TIP3    H141977   2.695   4.748   0.675 -1.0314  0.0075 -1.1005
 6854TIP3    H241978   2.842   4.771   0.645 -0.5487 -0.6150  0.7083
 6855TIP3   OH241979   1.533   5.157  12.897 -0.0871 -0.3823 -0.1144
 6855TIP3    H141980   1.512   5.066  12.874 -0.2288 -0.6318  0.9785
 6855TIP3    H241981   1.628   5.163  12.885 -0.3067 -0.1921 -1.8254
 6856TIP3   OH241982   5.815   1.884  13.548 -0.7180  0.3350  0.2714
 6856TIP3    H141983   5.832   1.978  13.548  0.1555  0.2207  3.5909
 6856TIP3    H241984   5.725   1.876  13.580 -1.2755  0.0678 -1.2992
 6857TIP3   OH241985   0.486   3.943  14.304 -0.0699 -0.0205 -0.1087
 6857TIP3    H141986   0.544   3.951  14.379 -1.0030 -0.7820  0.7085
 6857TIP3    H241987   0.447   3.855  14.313 -0.9356  0.2683 -0.9269
 6858TIP3   OH241988   5.526   1.882   2.370 -0.1318 -0.2736 -0.4544
 6858TIP3    H141989   5.553   1.890   2.461  2.3699 -1.3619 -1.0760
 6858TIP3    H241990   5.558   1.961   2.328 -3.2500  1.3420 -0.0038
 6859TIP3   OH241991   2.694   3.684   3.363 -0.1096  0.2972 -0.0076
 6859TIP3    H141992   2.664   3.704   3.274  0.9103 -2.3316 -0.9956
 6859TIP3    H241993   2.722   3.768   3.398 -0.3038  1.3462 -2.2530
 6860TIP3   OH241994   0.979   0.208  12.973 -0.3763 -0.1291  0.4130
 6860TIP3    H141995   0.930   0.276  12.928 -0.6569  0.9956  2.3480
 6860TIP3    H241996   1.029   0.254  13.040  0.3632 -1.6931  0.9724
 6861TIP3   OH241997   5.726   0.124   6.019  0.1755  0.2482  1.0287
 6861TIP3    H141998   5.710   0.105   6.111 -1.0014  1.9683  1.1880
 6861TIP3    H241999   5.650   0.173   5.990  0.9923  0.6076 -0.6074
 6862TIP3   OH242000   2.928   2.027  11.548  0.6953  0.3316  0.4142
 6862TIP3    H142001   2.905   1.972  11.473 -2.3450  0.4405  1.2125
 6862TIP3    H242002   3.022   2.014  11.559  0.3429 -3.4406 -0.3969
 6863TIP3   OH242003   3.696   4.144  14.323 -0.0902 -0.9838 -0.1058
 6863TIP3    H142004   3.716   4.072  14.263 -1.0279 -0.8423 -0.5952
 6863TIP3    H242005   3.626   4.192  14.280  0.5952  0.2827  0.1783
 6864TIP3   OH242006   5.779   1.385  15.743  0.4453  0.4032 -0.0925
 6864TIP3    H142007   5.749   1.432  15.665  0.4606 -1.9932 -1.5916
 6864TIP3    H242008   5.874   1.400  15.744  0.6332 -0.6113 -1.2902
 6865TIP3   OH242009   1.328   5.075  15.458 -0.0838 -0.0507  0.0911
 6865TIP3    H142010   1.298   5.113  15.540 -2.4875  0.0508 -0.7795
 6865TIP3    H242011   1.317   4.980  15.470  1.0601 -0.1487  0.4308
 6866TIP3   OH242012   6.349   5.185   4.389 -0.1815 -0.2687  0.2549
 6866TIP3    H142013   6.433   5.170   4.434  0.1993 -1.9350 -0.9639
 6866TIP3    H242014   6.370   5.249   4.321 -0.0476 -0.1886  0.3700
 6867TIP3   OH242015   2.189   5.958   5.129  0.1333  1.0130 -0.3541
 6867TIP3    H142016   2.143   5.919   5.054  1.2966 -0.6087 -0.2432
 6867TIP3    H242017   2.158   6.048   5.131 -1.5847  0.4865 -1.4603
 6868TIP3   OH242018   1.858   0.931   5.883  0.3570  0.6997 -0.1509
 6868TIP3    H142019   1.793   0.991   5.846 -0.1938 -0.5361 -1.2540
 6868TIP3    H242020   1.819   0.903   5.967  0.3154  1.3636  0.0531
 6869TIP3   OH242021   5.488   4.509  16.864 -0.0586 -0.1805  0.3582
 6869TIP3    H142022   5.532   4.472  16.940  3.5738  1.8328 -0.6895
 6869TIP3    H242023   5.502   4.603  16.870 -0.1633  0.0846 -2.5092
 6870TIP3   OH242024   4.475   1.716   5.757 -0.2285  0.2753  0.2181
 6870TIP3    H142025   4.458   1.775   5.830  0.7561  2.3444 -1.1614
 6870TIP3    H242026   4.560   1.744   5.723  0.6117 -2.4302 -0.0274
 6871TIP3   OH242027   0.686   2.153  16.030  0.1147  0.1476  0.7967
 6871TIP3    H142028   0.692   2.133  15.937 -2.4764 -1.9431  1.0126
 6871TIP3    H242029   0.766   2.118  16.067  1.1463  0.9499 -0.6071
 6872TIP3   OH242030   1.549   5.076   6.467  0.5977 -0.2984  0.6188
 6872TIP3    H142031   1.529   4.992   6.507 -0.3809 -0.0363  0.6848
 6872TIP3    H242032   1.628   5.106   6.512  0.7826 -1.0393  0.7924
 6873TIP3   OH242033   5.778   0.598   2.441 -0.2752  0.0496  0.2984
 6873TIP3    H142034   5.800   0.537   2.370  2.7124  1.1446  0.1893
 6873TIP3    H242035   5.752   0.678   2.397  1.4724  0.6940  0.3917
 6874TIP3   OH242036   4.793   4.002  14.803  0.2151  0.0857  0.1134
 6874TIP3    H142037   4.843   3.987  14.722  1.7636  2.0875  0.6759
 6874TIP3    H242038   4.712   4.042  14.773  0.6076  0.4394 -0.4876
 6875TIP3   OH242039   5.025   0.035  12.397 -0.4408  0.2855 -0.0514
 6875TIP3    H142040   4.989   0.109  12.447  0.4452 -0.0859  1.1457
 6875TIP3    H242041   4.966   0.027  12.322 -1.6793  0.9729  0.8194
 6876TIP3   OH242042   2.838   4.112  13.190  0.5986  0.3836  0.0613
 6876TIP3    H142043   2.901   4.085  13.257  0.2701  0.0615  0.2375
 6876TIP3    H242044   2.761   4.057  13.204  1.8359 -2.2137 -2.8480
 6877TIP3   OH242045   6.119   3.392  15.361  0.3485  0.3135  0.4292
 6877TIP3    H142046   6.061   3.327  15.400  1.4001 -0.1024  1.3247
 6877TIP3    H242047   6.071   3.425  15.285 -0.3961 -1.1706  0.2383
 6878TIP3   OH242048   2.950   1.894   1.476 -0.6972 -0.7394  0.5062
 6878TIP3    H142049   3.011   1.822   1.490 -2.4400 -2.1072  1.3035
 6878TIP3    H242050   2.889   1.889   1.550 -0.3175  2.1350  1.0789
 6879TIP3   OH242051   3.983   2.800  16.003 -0.3400  0.4058 -0.2542
 6879TIP3    H142052   3.905   2.745  16.008 -0.8997  1.2789  0.6438
 6879TIP3    H242053   3.966   2.858  15.929 -0.0329 -0.1719 -0.7906
 6880TIP3   OH242054   2.544   6.388   5.386  0.8499 -0.5099  0.2896
 6880TIP3    H142055   2.510   6.332   5.316 -0.8066  0.8116 -0.0047
 6880TIP3    H242056   2.633   6.356   5.402  0.1931 -2.7277 -0.3658
 6881TIP3   OH242057   4.645   4.684  12.222  0.2228 -0.5270 -0.2495
 6881TIP3    H142058   4.609   4.617  12.279 -1.1390 -0.6352 -1.2102
 6881TIP3    H242059   4.569   4.725  12.181  1.1246  0.2034 -1.2379
 6882TIP3   OH242060   3.232   2.410   1.610 -0.3162  0.3176  0.7217
 6882TIP3    H142061   3.202   2.393   1.699 -1.7864  0.0486  0.1919
 6882TIP3    H242062   3.258   2.324   1.576 -0.1548  0.3567  0.7447
 6883TIP3   OH242063   3.314   1.932   6.169 -0.1424  0.1650  0.9251
 6883TIP3    H142064   3.263   1.969   6.241 -0.9254 -1.0204  0.9995
 6883TIP3    H242065   3.403   1.961   6.185 -0.3477  0.0719  2.2695
 6884TIP3   OH242066   2.238   5.471  14.618 -0.0792 -0.0895  0.0035
 6884TIP3    H142067   2.202   5.449  14.532  1.0233 -0.7727 -0.2963
 6884TIP3    H242068   2.301   5.401  14.636  0.1885  0.4161  1.0646
 6885TIP3   OH242069   6.072   1.894   5.860  0.6230  0.5182  0.4664
 6885TIP3    H142070   6.090   1.928   5.948  0.8642 -0.5691  0.8442
 6885TIP3    H242071   6.158   1.870   5.826  0.6103  1.5319 -0.3326
 6886TIP3   OH242072   1.286   1.573  12.869  0.2923  0.5075  0.6020
 6886TIP3    H142073   1.281   1.667  12.849 -1.2980 -0.2043 -2.7734
 6886TIP3    H242074   1.223   1.533  12.809  0.3529 -2.6665  2.5481
 6887TIP3   OH242075   4.944   1.174  14.849 -0.1120  0.1039 -0.1008
 6887TIP3    H142076   4.886   1.242  14.884  0.6186  0.9384 -0.5071
 6887TIP3    H242077   5.030   1.215  14.846  0.8275 -1.6678  2.0466
 6888TIP3   OH242078   2.417   1.047  11.548 -0.3435 -0.4133  0.0473
 6888TIP3    H142079   2.354   1.088  11.607 -1.4514 -0.8803 -0.7999
 6888TIP3    H242080   2.366   0.982  11.500  0.2810  0.7238 -2.2171
 6889TIP3   OH242081   2.857   3.180  14.782  0.4274  0.8887 -0.4399
 6889TIP3    H142082   2.820   3.268  14.783  1.3783  1.2892 -0.6783
 6889TIP3    H242083   2.886   3.167  14.692  0.5932  0.4540 -0.3281
 6890TIP3   OH242084   4.085   4.227  14.061  0.9122  0.4853 -0.0607
 6890TIP3    H142085   4.144   4.231  14.135  0.9273  1.4474 -0.1149
 6890TIP3    H242086   4.081   4.134  14.037  1.3199  0.2489  0.8017
 6891TIP3   OH242087   6.609   0.311  15.290 -0.7806  0.0098 -0.0932
 6891TIP3    H142088   6.612   0.297  15.196  1.8440 -0.1516 -0.0465
 6891TIP3    H242089   6.637   0.227  15.327 -0.9534  0.3354  0.7841
 6892TIP3   OH242090   3.744   2.650  15.914  0.4865  0.0978  0.2049
 6892TIP3    H142091   3.757   2.587  15.843  0.3473 -0.3788  0.6032
 6892TIP3    H242092   3.700   2.724  15.872 -2.9075 -1.6622  0.5096
 6893TIP3   OH242093   0.506   4.816  16.294 -0.1287  0.2020  0.0104
 6893TIP3    H142094   0.547   4.764  16.363  1.7270  2.8525  0.9752
 6893TIP3    H242095   0.563   4.805  16.218 -0.6307 -0.4573 -0.2770
 6894TIP3   OH242096   5.893   0.192  16.299 -0.2334 -0.0923 -0.6161
 6894TIP3    H142097   5.862   0.275  16.335  2.4673  0.2563  1.0431
 6894TIP3    H242098   5.955   0.217  16.230 -0.6251 -0.7609 -1.2254
 6895TIP3   OH242099   5.836   2.073   0.205  0.5316 -0.2490  0.4805
 6895TIP3    H142100   5.834   2.015   0.281 -0.1043 -0.7017  0.1220
 6895TIP3    H242101   5.852   2.016   0.130 -1.7282 -0.2072 -0.0756
 6896TIP3   OH242102   3.550   6.352  10.725 -0.4689  0.3505 -0.0057
 6896TIP3    H142103   3.474   6.397  10.760 -0.5820  0.1176  0.0517
 6896TIP3    H242104   3.592   6.312  10.801  0.3394  1.4087  0.1150
 6897TIP3   OH242105   0.768   6.307  16.555  0.2740  0.0062 -0.1061
 6897TIP3    H142106   0.862   6.324  16.555  0.6483 -1.9853 -0.2743
 6897TIP3    H242107   0.760   6.213  16.542 -1.7413  0.0712  0.4481
 6898TIP3   OH242108   1.382   4.712   5.002 -0.1942 -0.1374  0.1806
 6898TIP3    H142109   1.457   4.664   4.965 -0.1664  0.6190 -0.7753
 6898TIP3    H242110   1.310   4.695   4.942  0.4510  3.0389 -1.6377
 6899TIP3   OH242111   3.616   4.249  14.880  0.4351 -0.1136  0.3524
 6899TIP3    H142112   3.660   4.165  14.896  1.2248  0.5233  1.6780
 6899TIP3    H242113   3.600   4.251  14.786 -0.7754 -2.3194  0.4977
 6900TIP3   OH242114   5.553   0.583   0.980 -0.2403  0.1079  0.2031
 6900TIP3    H142115   5.558   0.670   0.941  0.1836  0.4867  1.0792
 6900TIP3    H242116   5.593   0.593   1.066  0.5887 -1.1542 -0.0183
 6901TIP3   OH242117   0.551   5.361  11.989  0.1121  0.2501 -0.0289
 6901TIP3    H142118   0.515   5.292  12.044  0.5210 -0.1055 -0.2041
 6901TIP3    H242119   0.504   5.440  12.016  2.7941  0.8233  3.3745
 6902TIP3   OH242120   4.443   6.640   1.467  0.1912 -0.0359 -0.7537
 6902TIP3    H142121   4.519   6.677   1.511 -0.1756  0.4889 -0.5623
 6902TIP3    H242122   4.371   6.699   1.489 -0.4137 -0.9062 -0.3719
 6903TIP3   OH242123   4.824   4.156  16.774  0.3980 -0.0759 -0.7697
 6903TIP3    H142124   4.778   4.232  16.810 -0.0934 -1.5531  1.7806
 6903TIP3    H242125   4.755   4.093  16.756  1.0205 -0.7242 -0.8743
 6904TIP3   OH242126   2.150   3.887   2.107  0.5060  0.4924 -0.4005
 6904TIP3    H142127   2.087   3.924   2.045  1.8413  1.2363 -1.3476
 6904TIP3    H242128   2.230   3.938   2.093  1.4523 -0.7247  0.4633
 6905TIP3   OH242129   4.090   6.582  14.739  0.1104 -0.8089  0.2439
 6905TIP3    H142130   4.022   6.598  14.674 -0.1476  2.8773  1.3512
 6905TIP3    H242131   4.043   6.561  14.820  0.3223 -0.2162  0.5239
 6906TIP3   OH242132   5.701   5.855  16.926  0.9570  0.3170  1.1625
 6906TIP3    H142133   5.657   5.918  16.983  0.0484 -0.2851  1.1387
 6906TIP3    H242134   5.632   5.824  16.867  2.0025  1.4094 -0.7012
 6907TIP3   OH242135   2.551   1.548   4.585  0.4693  0.4383  0.1483
 6907TIP3    H142136   2.546   1.623   4.644 -0.1251  0.5849 -0.0761
 6907TIP3    H242137   2.643   1.524   4.583  0.6421  1.0771  0.3332
 6908TIP3   OH242138   2.939   2.655  14.404 -0.1200  0.0952 -0.6445
 6908TIP3    H142139   2.939   2.748  14.427 -2.4400  0.0959 -0.5646
 6908TIP3    H242140   2.923   2.610  14.487 -1.1996 -0.2545 -1.0346
 6909TIP3   OH242141   1.377   3.500  12.280  0.0996  0.2554  0.3023
 6909TIP3    H142142   1.453   3.443  12.290 -0.9929 -0.9872  1.7029
 6909TIP3    H242143   1.408   3.587  12.305  0.6560 -0.5410  2.5059
 6910TIP3   OH242144   3.634   1.152   3.773 -0.2257 -0.0328  0.5712
 6910TIP3    H142145   3.672   1.111   3.695  0.4154  0.8961  0.3903
 6910TIP3    H242146   3.704   1.208   3.807 -0.7122  0.0357  1.4647
 6911TIP3   OH242147   0.797   2.893   5.123  0.0755  0.2094 -0.1862
 6911TIP3    H142148   0.703   2.896   5.105 -0.1798  1.9283  1.2344
 6911TIP3    H242149   0.837   2.918   5.040 -0.8120  1.3010 -0.3097
 6912TIP3   OH242150   0.692   3.142   0.014  0.7721  0.4186  0.6317
 6912TIP3    H142151   0.671   3.051   0.037  0.5774  0.2503 -0.2072
 6912TIP3    H242152   0.623   3.167  -0.047  1.1771  0.9348  0.3948
 6913TIP3   OH242153   5.506   6.205  12.849 -0.3959 -0.2598 -0.5003
 6913TIP3    H142154   5.421   6.186  12.890 -0.4839 -1.5147 -1.2104
 6913TIP3    H242155   5.510   6.144  12.775  0.7163  0.4461 -1.0302
 6914TIP3   OH242156   6.517   3.759  11.044 -0.3240  0.7817  0.4788
 6914TIP3    H142157   6.546   3.682  11.093 -0.9124 -0.8821 -1.7224
 6914TIP3    H242158   6.464   3.808  11.108 -0.1602 -0.7573  1.8487
 6915TIP3   OH242159   5.383   3.333  14.492 -0.0548 -1.1057  0.0193
 6915TIP3    H142160   5.458   3.313  14.549 -1.9682 -2.4036  2.1617
 6915TIP3    H242161   5.417   3.320  14.404  3.4164  2.3734  0.6647
 6916TIP3   OH242162   5.058   4.749  13.032 -0.1599 -0.4755  0.6072
 6916TIP3    H142163   5.000   4.725  13.105 -2.2848  2.1755 -0.1253
 6916TIP3    H242164   5.083   4.840  13.050  1.1370 -0.5278 -0.8069
 6917TIP3   OH242165   5.028   4.359  13.780 -0.1937 -0.1809  0.7910
 6917TIP3    H142166   5.063   4.271  13.792  1.6681  0.5708  1.0504
 6917TIP3    H242167   5.016   4.392  13.869  1.8550  0.8631  0.7022
 6918TIP3   OH242168   5.110   0.150  16.716  0.4795  0.6263  0.3769
 6918TIP3    H142169   5.054   0.104  16.654  1.6397 -2.1325  1.2869
 6918TIP3    H242170   5.094   0.105  16.800  1.1312  2.3721  1.4679
 6919TIP3   OH242171   5.586   6.436  11.214  0.2532  0.7860  0.2210
 6919TIP3    H142172   5.546   6.523  11.225  1.8739  1.8202 -1.7159
 6919TIP3    H242173   5.639   6.444  11.135  3.5250 -0.7873  2.1320
 6920TIP3   OH242174   6.011   2.007   0.750 -0.0976  0.1728  0.2213
 6920TIP3    H142175   5.932   2.053   0.724  1.5663  1.8070 -2.2460
 6920TIP3    H242176   5.983   1.917   0.767 -2.4030  0.6435 -0.9287
 6921TIP3   OH242177   0.993   5.173  12.202  0.5142  0.0502 -0.0926
 6921TIP3    H142178   0.958   5.167  12.113  0.9631 -0.8341 -0.2188
 6921TIP3    H242179   1.005   5.082  12.228  2.1210  0.3456  0.1990
 6922TIP3   OH242180   5.513   1.924  11.555 -0.0421  0.2717  0.4516
 6922TIP3    H142181   5.480   1.907  11.467 -1.6274 -0.6673  1.2229
 6922TIP3    H242182   5.590   1.867  11.563  2.3087  3.0034 -1.5989
 6923TIP3   OH242183   3.222   0.826  11.448 -0.0089 -0.2773  0.2651
 6923TIP3    H142184   3.253   0.739  11.421  0.0455  0.3453 -1.7469
 6923TIP3    H242185   3.136   0.834  11.406 -1.3557 -0.5283  2.8607
 6924TIP3   OH242186   1.682   1.646  11.874  0.0985  0.6566 -0.6226
 6924TIP3    H142187   1.739   1.659  11.798  1.1270  1.1211  0.2156
 6924TIP3    H242188   1.680   1.551  11.887  0.5975  0.6331 -0.7233
 6925TIP3   OH242189   6.564   1.855  14.285  0.2277 -0.4394 -0.1841
 6925TIP3    H142190   6.495   1.863  14.352  1.6265 -0.1404  1.2610
 6925TIP3    H242191   6.645   1.859  14.335  1.3794  2.2648 -2.1265
 6926TIP3   OH242192   2.233   1.873   5.254  0.2516 -0.8062  0.5903
 6926TIP3    H142193   2.226   1.835   5.342  0.4708 -3.1153 -0.3486
 6926TIP3    H242194   2.164   1.830   5.204 -1.0934  1.8729  0.0678
 6927TIP3   OH242195   2.401   2.074  11.329  0.2057  0.3608 -0.4987
 6927TIP3    H142196   2.453   1.999  11.357  1.1607  0.9257 -0.7475
 6927TIP3    H242197   2.380   2.056  11.238  0.3941  0.3740 -0.5451
 6928TIP3   OH242198   4.894   5.144   4.720  0.0075 -0.4499 -0.2455
 6928TIP3    H142199   4.976   5.107   4.689  1.1834  2.4128 -0.6648
 6928TIP3    H242200   4.910   5.164   4.813  0.0197  0.7150 -0.4946
 6929TIP3   OH242201   4.874   5.050  14.809 -0.1680 -0.0079 -0.3858
 6929TIP3    H142202   4.954   5.057  14.757  1.9474  1.4778  2.9100
 6929TIP3    H242203   4.879   4.964  14.850  0.3886  0.5924  0.8163
 6930TIP3   OH242204   2.855   1.038   4.462  0.3198 -0.2014  0.5166
 6930TIP3    H142205   2.859   0.966   4.524 -0.5077 -0.3471  0.3964
 6930TIP3    H242206   2.895   1.003   4.382 -1.3746 -0.9912  0.0000
 6931TIP3   OH242207   5.916   4.337  14.345  0.6092 -0.7084  0.2398
 6931TIP3    H142208   5.848   4.405  14.341  1.5122  0.1738 -0.5250
 6931TIP3    H242209   5.936   4.328  14.438  0.7098  0.3093  0.3254
 6932TIP3   OH242210   5.289   4.438   1.756  0.5196  0.5575  0.1267
 6932TIP3    H142211   5.317   4.356   1.797 -0.5889  0.4229  0.6545
 6932TIP3    H242212   5.369   4.487   1.741  1.0179  0.3037  1.8131
 6933TIP3   OH242213   1.409   1.685  14.789 -0.0351  0.0959 -0.1240
 6933TIP3    H142214   1.433   1.666  14.699 -1.1991  3.1984 -1.1261
 6933TIP3    H242215   1.315   1.700  14.787 -0.2863 -0.9628  1.8460
 6934TIP3   OH242216   1.241   0.834   4.442 -1.1695  0.0396 -0.4321
 6934TIP3    H142217   1.287   0.816   4.360  0.7212  0.9875  0.3790
 6934TIP3    H242218   1.283   0.776   4.506 -0.7356  1.2514  0.4120
 6935TIP3   OH242219   2.974   3.656  14.681  0.1654  1.0774  0.5972
 6935TIP3    H142220   2.975   3.737  14.629 -1.0509  0.8968  0.2632
 6935TIP3    H242221   3.059   3.654  14.725  1.2676  1.1887 -1.4677
 6936TIP3   OH242222   3.430   3.320   4.593 -0.1244 -0.0799 -0.2126
 6936TIP3    H142223   3.422   3.309   4.688 -0.0947  2.6003  0.1292
 6936TIP3    H242224   3.517   3.285   4.572 -0.8397 -2.3493  0.4378
 6937TIP3   OH242225   4.096   2.221  11.793 -0.6898 -0.0646 -0.6580
 6937TIP3    H142226   4.044   2.267  11.727 -0.5540  1.9260  0.5819
 6937TIP3    H242227   4.186   2.226  11.760 -0.7974 -0.2583 -0.9825
 6938TIP3   OH242228   0.303   2.921   6.038  0.3616  0.0624 -0.3980
 6938TIP3    H142229   0.395   2.896   6.036  0.4435  0.4082 -1.4683
 6938TIP3    H242230   0.256   2.844   6.006  0.2977 -0.0351 -0.0697
 6939TIP3   OH242231   0.406   1.629   3.464 -0.0519  0.1883  0.0757
 6939TIP3    H142232   0.427   1.722   3.460 -3.6319  1.0675 -0.5532
 6939TIP3    H242233   0.374   1.608   3.376 -1.8370 -0.9392  0.9611
 6940TIP3   OH242234   2.753   5.955   1.875 -0.2693  0.8689 -0.0002
 6940TIP3    H142235   2.703   6.015   1.819  0.2801  0.7443 -0.6378
 6940TIP3    H242236   2.699   5.943   1.953 -1.4077  0.4394 -0.8415
 6941TIP3   OH242237   0.963   3.439   5.691 -0.1121 -0.5589 -0.0994
 6941TIP3    H142238   0.913   3.362   5.718  0.5740 -0.9274  0.1155
 6941TIP3    H242239   1.016   3.462   5.767 -0.6082  0.3665 -0.0290
 6942TIP3   OH242240   5.486   6.728   4.918  0.6328  0.0918 -0.2996
 6942TIP3    H142241   5.446   6.811   4.891  0.7789  0.1883 -0.2199
 6942TIP3    H242242   5.516   6.744   5.007 -0.9857 -0.6365  0.3972
 6943TIP3   OH242243   3.384   0.558  15.763  0.0608  0.0165  0.0591
 6943TIP3    H142244   3.370   0.613  15.840 -0.2811  0.3833 -0.2634
 6943TIP3    H242245   3.432   0.614  15.702  0.7365 -0.4208  0.1780
 6944TIP3   OH242246   3.278   6.599  12.655  0.0044  0.2658  0.2060
 6944TIP3    H142247   3.282   6.664  12.585 -0.1159 -0.4007 -0.4293
 6944TIP3    H242248   3.339   6.530  12.628 -1.6309 -1.0159 -0.3187
 6945TIP3   OH242249   0.356   3.884  17.234  0.3232  0.8604  0.7706
 6945TIP3    H142250   0.276   3.834  17.251  0.7118  0.2601  0.8607
 6945TIP3    H242251   0.388   3.851  17.150  0.6212  0.9045  0.8656
 6946TIP3   OH242252   5.580   5.469   4.299 -0.2451  0.1037 -0.2212
 6946TIP3    H142253   5.649   5.404   4.311 -0.3410 -0.3311 -1.9179
 6946TIP3    H242254   5.498   5.418   4.303 -0.3182  0.1136 -1.5758
 6947TIP3   OH242255   0.308   3.020   2.620  0.1459  0.0906 -0.5713
 6947TIP3    H142256   0.362   3.037   2.697  0.5508 -0.4028 -0.7405
 6947TIP3    H242257   0.353   2.948   2.575 -0.6264 -0.2825 -0.7429
 6948TIP3   OH242258   1.204   4.935  13.536 -0.0950  0.5817  0.0260
 6948TIP3    H142259   1.179   4.856  13.584 -0.1587  0.6193  0.0542
 6948TIP3    H242260   1.269   4.904  13.472  0.9097  0.7241  0.9571
 6949TIP3   OH242261   0.139   0.261   5.426  0.6172  0.2442 -0.2941
 6949TIP3    H142262   0.110   0.182   5.380 -0.9984  0.4703  0.2962
 6949TIP3    H242263   0.181   0.229   5.505 -0.6272 -0.0071  0.2681
 6950TIP3   OH242264   5.795   2.188   1.347 -0.1996 -0.1138 -0.2480
 6950TIP3    H142265   5.801   2.100   1.385  0.9806  0.2060  0.3709
 6950TIP3    H242266   5.798   2.246   1.423  0.2595  0.4864 -0.7170
 6951TIP3   OH242267   3.156   4.661  10.733  0.0090 -0.0478 -0.2828
 6951TIP3    H142268   3.225   4.605  10.696 -0.5076 -0.5489 -0.5082
 6951TIP3    H242269   3.201   4.717  10.796  0.5475 -0.6678 -0.1128
 6952TIP3   OH242270   5.620   5.433  11.129 -0.3940 -0.7384 -0.0525
 6952TIP3    H142271   5.715   5.447  11.128 -0.6449  1.3150  1.2461
 6952TIP3    H242272   5.600   5.415  11.221 -1.4476  0.4390 -0.0351
 6953TIP3   OH242273   5.934   2.610  17.216  0.4685 -0.5117 -0.3130
 6953TIP3    H142274   5.906   2.539  17.273  1.8699 -1.9749 -1.3963
 6953TIP3    H242275   6.028   2.619  17.234  0.2776  1.1935 -0.0690
 6954TIP3   OH242276   6.663   2.429   4.126  0.4053 -0.1924  0.4432
 6954TIP3    H142277   6.729   2.466   4.068 -0.6365 -0.1612 -0.7492
 6954TIP3    H242278   6.583   2.430   4.075 -0.0200 -2.4653  1.0090
 6955TIP3   OH242279   5.175   1.772   0.316  0.1726  0.0386  0.3232
 6955TIP3    H142280   5.166   1.747   0.407  1.9257 -1.3777  0.1365
 6955TIP3    H242281   5.150   1.865   0.314 -1.3208 -0.2964  1.9456
 6956TIP3   OH242282   3.165   1.968   5.326  0.3621 -0.6984  0.1525
 6956TIP3    H142283   3.204   1.925   5.250  0.0496 -1.2512  0.3045
 6956TIP3    H242284   3.071   1.955   5.316  0.0061  2.3486 -1.2744
 6957TIP3   OH242285   3.156   4.165  14.502 -0.1367  0.2216 -0.0543
 6957TIP3    H142286   3.080   4.110  14.522 -0.7531  0.6219 -1.2455
 6957TIP3    H242287   3.179   4.205  14.585 -0.8667 -0.3779  0.4406
 6958TIP3   OH242288   6.450   3.772   1.286 -0.0908 -0.3173 -0.7107
 6958TIP3    H142289   6.443   3.739   1.376 -0.5443 -0.0924 -0.6638
 6958TIP3    H242290   6.495   3.702   1.239 -0.1625 -0.5859 -0.3867
 6959TIP3   OH242291   3.239   5.701  14.344  0.0140 -0.1139  0.4717
 6959TIP3    H142292   3.254   5.619  14.392  3.1259  0.6885  0.9618
 6959TIP3    H242293   3.213   5.672  14.256  0.3086 -1.6240  0.8572
 6960TIP3   OH242294   0.277   0.878  15.910  0.6104  0.3858 -0.2653
 6960TIP3    H142295   0.202   0.860  15.967  0.5216  1.4070 -0.0572
 6960TIP3    H242296   0.353   0.849  15.960  0.5586  1.5301  0.4998
 6961TIP3   OH242297   3.333   6.144   5.469  0.4664 -0.2739 -0.1449
 6961TIP3    H142298   3.367   6.233   5.456  1.3474 -0.5530  0.2018
 6961TIP3    H242299   3.357   6.122   5.559  1.7027 -1.4749 -0.7548
 6962TIP3   OH242300   5.958   3.654  16.577 -0.1345  0.4538 -0.4460
 6962TIP3    H142301   5.893   3.684  16.640  0.6156  0.8612  0.1419
 6962TIP3    H242302   5.947   3.559  16.574  0.4926  0.3173  1.0709
 6963TIP3   OH242303   3.072   3.771   3.960  0.1065  0.0384 -0.1211
 6963TIP3    H142304   3.166   3.755   3.961 -0.0736 -1.0145 -0.0390
 6963TIP3    H242305   3.054   3.812   4.045  0.6049  0.9853 -0.4584
 6964TIP3   OH242306   4.719   1.830  11.232  0.2313  0.0716  0.3246
 6964TIP3    H142307   4.743   1.885  11.306 -0.9289  1.9914 -0.6814
 6964TIP3    H242308   4.784   1.850  11.165  0.3271 -0.4622  0.2531
 6965TIP3   OH242309   2.821   1.781   4.271  0.2742  0.3064  0.0623
 6965TIP3    H142310   2.871   1.743   4.199  0.3600  0.8941 -0.1962
 6965TIP3    H242311   2.820   1.875   4.252  2.1237  0.7404  1.9351
 6966TIP3   OH242312   4.715   2.853  11.177  0.5941  0.1550  0.4769
 6966TIP3    H142313   4.729   2.768  11.136  0.3397  0.7643 -0.8837
 6966TIP3    H242314   4.742   2.917  11.111 -1.1427  1.1752  0.7157
 6967TIP3   OH242315   3.517   4.812   2.434  0.3064 -0.2764  0.2966
 6967TIP3    H142316   3.563   4.813   2.518  0.8486  0.6790 -0.0077
 6967TIP3    H242317   3.534   4.898   2.396 -0.8177 -0.3164 -0.3229
 6968TIP3   OH242318   2.309   5.610   5.409  0.1141 -0.5221  0.2532
 6968TIP3    H142319   2.250   5.677   5.375  1.5879  0.5989 -0.1261
 6968TIP3    H242320   2.300   5.616   5.504  0.3425  0.2965  0.2220
 6969TIP3   OH242321   1.260   4.733  15.928  0.5465  0.3805 -0.2419
 6969TIP3    H142322   1.312   4.669  15.878 -0.9012 -0.5406 -0.6029
 6969TIP3    H242323   1.203   4.773  15.863 -1.3475 -0.8191  0.6391
 6970TIP3   OH242324   6.556   5.899   6.442 -0.1239  0.3791  0.3193
 6970TIP3    H142325   6.634   5.914   6.388 -1.1970  2.2139 -0.7674
 6970TIP3    H242326   6.526   5.812   6.417  1.2339 -0.0992  0.3103
 6971TIP3   OH242327   0.917   6.440   1.591  0.0300  0.1003  0.4844
 6971TIP3    H142328   0.989   6.503   1.601 -0.7593  1.3244 -1.3263
 6971TIP3    H242329   0.943   6.366   1.646  2.3154  0.8364  0.4673
 6972TIP3   OH242330   1.229   3.752  11.631  0.1559 -0.1010  0.1206
 6972TIP3    H142331   1.251   3.720  11.718 -0.8801 -0.5379  0.2212
 6972TIP3    H242332   1.193   3.839  11.645 -0.3966 -0.3373  0.1639
 6973TIP3   OH242333   3.248   4.317   5.694  0.0845 -0.1366  0.2938
 6973TIP3    H142334   3.211   4.365   5.620 -0.3283  0.7814  1.0884
 6973TIP3    H242335   3.298   4.246   5.654 -1.2788 -0.4731 -0.8330
 6974TIP3   OH242336   5.016   1.152  13.691 -0.2791 -0.5167 -0.5092
 6974TIP3    H142337   5.049   1.170  13.779 -0.4949  1.2977 -0.7888
 6974TIP3    H242338   5.094   1.157  13.635 -0.7296  2.2030 -0.9486
 6975TIP3   OH242339   3.557   0.590  13.551  0.0469 -0.2599  0.0970
 6975TIP3    H142340   3.543   0.495  13.559 -1.0325 -0.2040 -0.9513
 6975TIP3    H242341   3.624   0.599  13.483 -0.4168 -0.2545 -0.3671
 6976TIP3   OH242342   0.205   2.414   5.654 -0.5883  0.0482 -0.3249
 6976TIP3    H142343   0.110   2.421   5.645 -0.7477  0.8179  1.7305
 6976TIP3    H242344   0.221   2.321   5.674 -0.5926 -0.7527 -3.6688
 6977TIP3   OH242345   6.149   3.787  12.054  0.1474  0.5662 -0.1642
 6977TIP3    H142346   6.086   3.844  12.098 -2.2399 -2.0803  0.0253
 6977TIP3    H242347   6.115   3.776  11.965  1.7684  1.1834 -0.8803
 6978TIP3   OH242348   3.385   5.322  14.130  0.3721  0.2520 -0.8891
 6978TIP3    H142349   3.385   5.331  14.226  0.7560  1.0699 -0.9618
 6978TIP3    H242350   3.306   5.271  14.111 -1.9423  3.5756 -0.4476
 6979TIP3   OH242351   6.427   1.825   5.369 -0.4549  0.2893  0.0790
 6979TIP3    H142352   6.351   1.803   5.316 -0.5616  0.1547  0.2883
 6979TIP3    H242353   6.420   1.769   5.447 -2.0454  2.7431  1.8033
 6980TIP3   OH242354   6.148   1.265   3.823 -0.6014  0.1526  0.6001
 6980TIP3    H142355   6.179   1.353   3.846  0.9433 -0.3635  0.5532
 6980TIP3    H242356   6.228   1.215   3.808 -1.4625 -1.3782  1.0335
 6981TIP3   OH242357   0.619   6.394   0.099 -0.1813 -0.3511 -0.1472
 6981TIP3    H142358   0.561   6.466   0.072  1.2842  0.8599 -0.1306
 6981TIP3    H242359   0.637   6.347   0.017 -0.9118 -0.5391 -0.2070
 6982TIP3   OH242360   1.726   5.072  14.508  0.2434 -0.3074 -0.2573
 6982TIP3    H142361   1.773   5.155  14.503 -0.8616  0.5217  2.4866
 6982TIP3    H242362   1.647   5.085  14.456 -0.3965  0.7029  0.9497
 6983TIP3   OH242363   4.935   2.654  11.758 -0.2576 -0.6466 -0.2122
 6983TIP3    H142364   4.999   2.702  11.706  0.2464 -0.3263  0.7001
 6983TIP3    H242365   4.980   2.572  11.781 -0.6436 -0.9859 -0.6656
 6984TIP3   OH242366   2.712   3.409   3.335  0.1593 -0.1599 -0.6335
 6984TIP3    H142367   2.670   3.347   3.393  0.1327  0.3168 -0.1379
 6984TIP3    H242368   2.721   3.489   3.387  0.6612  0.0904 -1.0941
 6985TIP3   OH242369   1.378   6.657   3.153 -0.1007  0.1615 -0.2814
 6985TIP3    H142370   1.354   6.587   3.092  1.6556 -1.3392  0.6776
 6985TIP3    H242371   1.468   6.678   3.131  0.3148  0.1063  1.3036
 6986TIP3   OH242372   5.560   1.618  13.127  0.0792  0.0110  0.2141
 6986TIP3    H142373   5.499   1.550  13.156 -0.1953  0.3885  0.5308
 6986TIP3    H242374   5.622   1.626  13.200  1.6249 -1.6770 -0.8664
 6987TIP3   OH242375   1.526   1.536   2.769 -0.0758  0.7050  0.1354
 6987TIP3    H142376   1.504   1.628   2.784  1.7481  0.7733  2.6926
 6987TIP3    H242377   1.503   1.493   2.851  3.7914 -0.2091  0.8420
 6988TIP3   OH242378   1.080   3.710   6.299 -0.2775 -0.3936 -0.4184
 6988TIP3    H142379   1.044   3.765   6.230  1.6402 -0.1054 -1.2376
 6988TIP3    H242380   1.115   3.772   6.363 -1.3454 -0.6588  0.4252
 6989TIP3   OH242381   0.601   0.774   2.801 -0.3662  0.1273  0.1265
 6989TIP3    H142382   0.639   0.709   2.859 -0.9432 -0.6305 -0.3199
 6989TIP3    H242383   0.664   0.845   2.798  0.5377 -0.6684  0.1801
 6990TIP3   OH242384   1.429   0.619   5.422 -0.1237  0.1411 -0.0829
 6990TIP3    H142385   1.483   0.678   5.475 -0.7136  0.9863 -0.4143
 6990TIP3    H242386   1.453   0.531   5.452  0.6800  0.5508  0.4960
 6991TIP3   OH242387   2.160   3.250  15.861  0.3050  0.1695  0.1354
 6991TIP3    H142388   2.147   3.162  15.895  0.7396 -0.3308 -0.9982
 6991TIP3    H242389   2.120   3.249  15.774 -1.5122  1.6789  0.9043
 6992TIP3   OH242390   5.902   2.486  16.286 -0.0540  0.0320  0.3375
 6992TIP3    H142391   5.862   2.413  16.238 -0.0447  0.0220  0.3452
 6992TIP3    H242392   5.880   2.469  16.378 -0.0259  0.0233  0.3425
 6993TIP3   OH242393   5.289   3.975  12.145 -0.2360 -0.2712 -0.2383
 6993TIP3    H142394   5.266   4.040  12.212 -0.9560  1.4971 -2.1193
 6993TIP3    H242395   5.372   3.938  12.174  1.0200  2.6790  0.0759
 6994TIP3   OH242396   1.473   1.315   0.884 -0.6527  0.1255 -0.3027
 6994TIP3    H142397   1.504   1.280   0.968  1.1573  1.2620 -0.4787
 6994TIP3    H242398   1.543   1.293   0.822 -1.8198 -0.3986 -1.4541
 6995TIP3   OH242399   0.303   1.004  15.645  0.0015  0.8033  0.3954
 6995TIP3    H142400   0.275   0.955  15.568 -1.8627  0.5826  1.1892
 6995TIP3    H242401   0.351   0.941  15.698 -0.8237  0.3235  0.5643
 6996TIP3   OH242402   2.161   3.744   5.628  0.2508 -0.3988  0.1118
 6996TIP3    H142403   2.087   3.782   5.674  0.0029 -0.0379 -0.5772
 6996TIP3    H242404   2.175   3.659   5.671 -0.6825 -0.5598  0.1145
 6997TIP3   OH242405   1.678   1.301  12.230  0.0809  0.2204 -0.5714
 6997TIP3    H142406   1.771   1.281  12.242  0.3041  1.6130  0.2598
 6997TIP3    H242407   1.678   1.380  12.175 -0.6074  0.1114 -0.7273
 6998TIP3   OH242408   5.438   0.481   2.433 -0.3095  0.5788 -0.2030
 6998TIP3    H142409   5.433   0.566   2.390  1.8467  0.1306 -1.3626
 6998TIP3    H242410   5.480   0.499   2.517 -1.1705  0.8528  0.1861
 6999TIP3   OH242411   6.242   2.162   1.441  0.1559  0.4031  0.3192
 6999TIP3    H142412   6.218   2.144   1.531 -0.9787 -0.9278 -0.2343
 6999TIP3    H242413   6.338   2.158   1.440  0.0644 -2.6281  0.8589
 7000TIP3   OH242414   4.468   2.486  16.927 -0.6133  0.0942  0.5181
 7000TIP3    H142415   4.465   2.445  17.014 -0.8939  1.3979  1.1421
 7000TIP3    H242416   4.554   2.463  16.893 -0.5067 -0.4474  1.1319
 7001TIP3   OH242417   4.116   2.051  14.914  0.0027 -0.2622 -0.3198
 7001TIP3    H142418   4.184   2.024  14.975 -1.3624 -1.0108  0.8761
 7001TIP3    H242419   4.062   1.973  14.901 -1.8327  0.8627  0.3454
 7002TIP3   OH242420   4.074   6.087  14.034  0.1313 -0.1505  0.2764
 7002TIP3    H142421   4.024   6.104  13.955  0.4946 -0.4693 -0.0284
 7002TIP3    H242422   4.035   6.143  14.101 -0.6445 -0.4208  0.0517
 7003TIP3   OH242423   1.890   4.326   2.696 -0.5608 -0.5841 -0.0579
 7003TIP3    H142424   1.951   4.324   2.622  0.7803 -0.1663  1.0060
 7003TIP3    H242425   1.883   4.419   2.719 -1.3880 -0.6589 -0.0003
 7004TIP3   OH242426   2.876   5.837  12.733  0.1805 -0.3693  0.4247
 7004TIP3    H142427   2.907   5.888  12.807  1.6063 -3.0182  1.7218
 7004TIP3    H242428   2.859   5.750  12.769 -0.8467 -1.2349 -1.9945
 7005TIP3   OH242429   5.538   3.126   0.729 -0.4785  0.2983 -0.2460
 7005TIP3    H142430   5.476   3.133   0.656 -3.6487 -1.4069  2.1263
 7005TIP3    H242431   5.515   3.198   0.787  0.2676  0.0955  0.3099
 7006TIP3   OH242432   5.813   4.098  10.867 -0.2390 -0.1875 -0.6381
 7006TIP3    H142433   5.876   4.147  10.815 -1.0746 -0.8090 -2.2850
 7006TIP3    H242434   5.830   4.006  10.846  0.6726 -0.5667  1.6678
 7007TIP3   OH242435   3.598   4.089  16.590  0.0490  0.2130 -0.4325
 7007TIP3    H142436   3.654   4.022  16.549 -3.0253 -3.0687  0.4685
 7007TIP3    H242437   3.563   4.139  16.516  0.5758 -0.6798 -1.3027
 7008TIP3   OH242438   2.302   4.880  13.356 -0.0858 -0.2725  0.3626
 7008TIP3    H142439   2.388   4.885  13.314 -0.2052  1.1912  0.2472
 7008TIP3    H242440   2.273   4.790  13.342  1.3935 -0.7649  0.3427
 7009TIP3   OH242441   2.737   0.596   0.421  0.2941  0.3443 -0.5656
 7009TIP3    H142442   2.749   0.559   0.509 -2.5773  0.7263  0.0277
 7009TIP3    H242443   2.762   0.688   0.430 -0.6290  0.5409  0.0160
 7010TIP3   OH242444   4.507   4.603   0.338 -0.5659  0.6004  0.1919
 7010TIP3    H142445   4.577   4.644   0.287  0.3714 -0.9420  0.2228
 7010TIP3    H242446   4.471   4.536   0.279 -1.9796  1.3145  0.2045
 7011TIP3   OH242447   2.764   5.511   0.319  0.1142  0.3286  0.7501
 7011TIP3    H142448   2.820   5.525   0.395 -0.0299  2.5384  0.4897
 7011TIP3    H242449   2.701   5.583   0.322 -1.2171 -0.7475 -0.3088
 7012TIP3   OH242450   5.668   5.888   5.487 -0.5340  0.0655  0.1195
 7012TIP3    H142451   5.671   5.817   5.423  1.0348 -0.5768  0.8725
 7012TIP3    H242452   5.635   5.846   5.567 -0.8502  0.4840  0.2114
 7013TIP3   OH242453   5.929   0.166  11.698  0.7132  0.6163 -0.2982
 7013TIP3    H142454   5.835   0.179  11.714  0.1935  0.4702 -2.9394
 7013TIP3    H242455   5.968   0.252  11.710  0.5091  0.3713  2.3569
 7014TIP3   OH242456   1.141   4.957   0.182  0.0433  0.3131 -0.5216
 7014TIP3    H142457   1.170   5.041   0.217 -0.8847  0.9405 -1.2418
 7014TIP3    H242458   1.048   4.969   0.162  0.1793 -0.4938 -1.7463
 7015TIP3   OH242459   2.352   3.260  17.028 -0.8030 -0.4462 -0.1720
 7015TIP3    H142460   2.274   3.306  17.058  0.0336  0.2995  0.8616
 7015TIP3    H242461   2.337   3.247  16.934 -0.0892  3.8754 -0.9704
 7016TIP3   OH242462   5.207   3.513  16.975  0.5490  0.4692 -0.5158
 7016TIP3    H142463   5.193   3.429  16.931 -2.3242  0.0481  1.0457
 7016TIP3    H242464   5.134   3.568  16.944  3.2773  2.9782 -2.7549
 7017TIP3   OH242465   5.224   5.435  10.469 -0.0056 -1.2634  0.0984
 7017TIP3    H142466   5.175   5.452  10.549 -1.1408  1.2430 -1.0680
 7017TIP3    H242467   5.316   5.438  10.495 -0.3855 -2.7070  1.6934
 7018TIP3   OH242468   1.681   0.564  15.884 -0.0298 -0.0152  0.0343
 7018TIP3    H142469   1.765   0.602  15.909 -0.5506  0.4620  1.1029
 7018TIP3    H242470   1.676   0.481  15.933 -2.1836  2.1263  3.7248
 7019TIP3   OH242471   4.433   1.171  15.822 -0.3676 -0.2128 -0.8978
 7019TIP3    H142472   4.472   1.217  15.748 -0.7662 -0.2843 -1.1542
 7019TIP3    H242473   4.449   1.227  15.897  0.8294 -0.5567 -0.8809
 7020TIP3   OH242474   1.904   0.668  15.101  0.2863  0.2193 -0.6933
 7020TIP3    H142475   1.839   0.697  15.166 -1.7131  0.8004 -2.8710
 7020TIP3    H242476   1.929   0.580  15.130 -1.0900  0.1876  0.4901
 7021TIP3   OH242477   0.901   3.548   4.319  0.2827 -0.2964  0.0516
 7021TIP3    H142478   0.976   3.496   4.291  0.0223 -0.8182  0.3132
 7021TIP3    H242479   0.834   3.484   4.340  0.2850  0.0979  1.3304
 7022TIP3   OH242480   0.978   6.027   2.814 -0.8915 -0.5527  0.3531
 7022TIP3    H142481   1.009   6.066   2.733 -1.0920  1.7027  1.3455
 7022TIP3    H242482   0.895   5.987   2.791 -1.7752  1.5443 -0.1872
 7023TIP3   OH242483   1.137   1.586   1.351  0.2300 -0.4670  0.2883
 7023TIP3    H142484   1.097   1.511   1.309  0.0554  1.0389 -2.3434
 7023TIP3    H242485   1.066   1.649   1.361  1.1262  0.8325 -1.1297
 7024TIP3   OH242486   3.638   5.481  15.486  0.6897 -0.5271 -0.1611
 7024TIP3    H142487   3.580   5.514  15.555  0.0508 -1.4623 -0.2445
 7024TIP3    H242488   3.616   5.389  15.477  1.0359 -0.5127 -1.3467
 7025TIP3   OH242489   0.437   6.306  11.168  0.1648 -0.0241  0.4350
 7025TIP3    H142490   0.440   6.343  11.080 -0.0584  0.9094  0.8135
 7025TIP3    H242491   0.435   6.211  11.154  0.6541  0.1061 -0.5468
 7026TIP3   OH242492   5.987   6.628  13.588  0.4335  0.5517 -0.4997
 7026TIP3    H142493   5.977   6.681  13.667 -0.8488 -1.5233  0.7802
 7026TIP3    H242494   6.060   6.570  13.607  0.0160 -0.0655 -0.7647
 7027TIP3   OH242495   6.233   5.296   0.523 -0.2381 -0.7621  0.1546
 7027TIP3    H142496   6.314   5.328   0.484 -0.7646 -0.1189 -0.4305
 7027TIP3    H242497   6.187   5.375   0.553  0.7832 -1.3189  3.3950
 7028TIP3   OH242498   1.507   2.736  16.812 -0.8024 -0.1777  0.5177
 7028TIP3    H142499   1.601   2.752  16.809 -0.7723 -0.6305 -1.3066
 7028TIP3    H242500   1.491   2.701  16.900  0.4101  1.7974  1.5520
 7029TIP3   OH242501   2.416   1.623  13.460 -0.3460 -0.2483 -0.0157
 7029TIP3    H142502   2.368   1.701  13.433  0.0909  0.1456  0.3404
 7029TIP3    H242503   2.364   1.550  13.425 -0.2933  0.2233 -1.0846
 7030TIP3   OH242504   4.345   5.950   1.679  0.0172 -0.0391  1.2194
 7030TIP3    H142505   4.336   6.014   1.750 -0.4901 -0.1053  1.2177
 7030TIP3    H242506   4.380   5.872   1.721  0.4635  0.1842  1.2568
 7031TIP3   OH242507   0.113   2.489  14.799  0.4525  0.2849  0.4523
 7031TIP3    H142508   0.192   2.434  14.794  0.3958  0.2196  0.3035
 7031TIP3    H242509   0.048   2.444  14.746  0.4609  0.5880  0.1803
 7032TIP3   OH242510   5.803   4.576  16.739  0.2092  0.1435 -0.2779
 7032TIP3    H142511   5.822   4.517  16.666 -0.8627 -1.4410  0.6841
 7032TIP3    H242512   5.708   4.586  16.738  0.1483 -0.2228  1.1387
 7033TIP3   OH242513   4.221   4.819   0.066 -0.1965  0.3043 -0.1834
 7033TIP3    H142514   4.223   4.783  -0.023  0.9966 -0.8529  0.2951
 7033TIP3    H242515   4.212   4.742   0.123 -2.2147  1.1317  0.6536
 7034TIP3   OH242516   0.052   5.216  13.633 -0.2983 -0.4139 -0.2174
 7034TIP3    H142517   0.032   5.276  13.706 -1.3635  0.0950 -0.9197
 7034TIP3    H242518   0.086   5.138  13.676 -4.6046 -1.6976  1.1536
 7035TIP3   OH242519   5.405   4.607   2.935 -0.1426  0.5495 -0.3321
 7035TIP3    H142520   5.419   4.638   2.846 -1.6763 -0.4309 -0.9382
 7035TIP3    H242521   5.442   4.676   2.991 -0.6385  1.9415 -1.6965
 7036TIP3   OH242522   1.067   1.845   4.167  0.1457  0.3894  0.0089
 7036TIP3    H142523   0.982   1.857   4.209 -0.1720  0.5906 -0.6860
 7036TIP3    H242524   1.071   1.751   4.147 -0.2059  0.4917 -0.5659
 7037TIP3   OH242525   4.238   2.241   5.337 -0.2688  1.0593  0.5918
 7037TIP3    H142526   4.256   2.277   5.250 -0.1549 -0.2177  0.0792
 7037TIP3    H242527   4.313   2.268   5.390  0.2068  0.8944  0.0060
 7038TIP3   OH242528   5.192   2.721  13.244 -0.1771 -0.3186  0.1128
 7038TIP3    H142529   5.245   2.763  13.311 -0.7749  0.6160 -0.0009
 7038TIP3    H242530   5.119   2.781  13.229  0.6457  0.1324 -2.3080
 7039TIP3   OH242531   3.658   0.078  14.460  0.0971  0.1158  0.3445
 7039TIP3    H142532   3.742   0.093  14.416  0.1367  0.7632  0.6306
 7039TIP3    H242533   3.677   0.013  14.528  0.8365  1.7836  1.7770
 7040TIP3   OH242534   2.961   4.114  16.523  0.6010  0.6321  0.0123
 7040TIP3    H142535   3.025   4.138  16.455  1.5893 -0.3115  0.5875
 7040TIP3    H242536   2.879   4.104  16.476  2.1470 -4.5884 -1.9376
 7041TIP3   OH242537   5.048   5.618   1.808  0.3819  0.3149 -0.6761
 7041TIP3    H142538   5.062   5.543   1.749  0.7895 -1.1229  1.1984
 7041TIP3    H242539   5.137   5.642   1.837  0.1025  0.2835  0.2188
 7042TIP3   OH242540   3.926   4.130   5.859  0.3149  0.0356 -0.3082
 7042TIP3    H142541   3.996   4.098   5.802  1.1847  1.0512  0.1618
 7042TIP3    H242542   3.927   4.071   5.934 -0.2738 -0.8002 -0.9554
 7043TIP3   OH242543   2.371   6.489  14.710  0.0551 -0.3826  0.5385
 7043TIP3    H142544   2.407   6.576  14.726  1.5691 -0.5482 -1.6861
 7043TIP3    H242545   2.435   6.429  14.747 -0.6184 -0.5872  1.3935
 7044TIP3   OH242546   4.256   6.441   6.311 -0.0498  0.4952 -0.4233
 7044TIP3    H142547   4.332   6.418   6.364 -0.0851  2.9823  0.7948
 7044TIP3    H242548   4.292   6.486   6.234 -0.1379 -0.9615 -1.3306
 7045TIP3   OH242549   3.497   4.009  10.542  0.4540  0.2203  0.3778
 7045TIP3    H142550   3.412   4.042  10.512  0.8899  0.8932 -0.1451
 7045TIP3    H242551   3.520   4.067  10.615  1.5002  1.4993 -0.9233
 7046TIP3   OH242552   0.353   5.332  13.962  0.0225  0.1786  0.0124
 7046TIP3    H142553   0.308   5.256  14.001  0.4255 -0.0302  0.0781
 7046TIP3    H242554   0.404   5.295  13.890  1.1734  0.1947  0.8003
 7047TIP3   OH242555   0.284   0.630  15.635 -0.1323 -0.0411 -0.0044
 7047TIP3    H142556   0.360   0.597  15.681  0.3966 -0.8345 -1.4202
 7047TIP3    H242557   0.221   0.650  15.704  0.5904 -1.3277  1.0533
 7048TIP3   OH242558   6.685   6.668   1.649 -0.2920  0.1236 -0.2165
 7048TIP3    H142559   6.706   6.761   1.649 -1.5575  0.4349 -1.8762
 7048TIP3    H242560   6.592   6.664   1.625 -0.3996 -1.5365  0.3968
 7049TIP3   OH242561   1.223   4.347  13.482  0.1501 -0.2613  0.5342
 7049TIP3    H142562   1.316   4.360  13.500 -0.3692  2.8022  1.2943
 7049TIP3    H242563   1.212   4.374  13.391 -0.1057  0.1174  0.6755
 7050TIP3   OH242564   6.255   3.723   5.065 -0.1480  0.5947 -0.3700
 7050TIP3    H142565   6.294   3.636   5.071 -2.3297 -0.4684 -1.2121
 7050TIP3    H242566   6.330   3.783   5.063  1.3526 -1.1602  1.4009
 7051TIP3   OH242567   3.980   3.190   1.893  0.1157  0.1358  0.3048
 7051TIP3    H142568   4.053   3.143   1.853  0.2021 -0.5156  1.2026
 7051TIP3    H242569   4.016   3.224   1.975 -0.1956  1.0265  0.0761
 7052TIP3   OH242570   5.275   6.185   3.743  0.1090  0.0892 -0.3485
 7052TIP3    H142571   5.243   6.274   3.762  2.0172  0.8933 -0.7416
 7052TIP3    H242572   5.345   6.199   3.680  2.0146 -1.5040  1.3534
 7053TIP3   OH242573   2.627   0.233   5.836 -0.2426 -0.3583  0.0100
 7053TIP3    H142574   2.628   0.246   5.741  4.6917  0.9576  0.0977
 7053TIP3    H242575   2.638   0.139   5.848 -1.0365 -0.5430 -0.7266
 7054TIP3   OH242576   0.433   5.361   0.455 -0.0144  0.0237 -0.4260
 7054TIP3    H142577   0.422   5.345   0.361  2.2554 -1.5120 -0.4681
 7054TIP3    H242578   0.368   5.305   0.497  1.3559 -2.0108 -0.9705
 7055TIP3   OH242579   2.418   2.559   0.267 -0.6037 -0.2495 -0.4897
 7055TIP3    H142580   2.363   2.576   0.344  1.8384 -1.6861  1.6587
 7055TIP3    H242581   2.355   2.546   0.196 -2.8681  3.0211  0.8084
 7056TIP3   OH242582   1.722   3.096  16.458  0.0496  0.7952  1.0462
 7056TIP3    H142583   1.634   3.064  16.476 -0.5015  1.8598  0.3616
 7056TIP3    H242584   1.726   3.101  16.362  1.5383 -1.0864  0.9871
 7057TIP3   OH242585   3.850   0.135  14.845 -0.3108  0.2453  0.2147
 7057TIP3    H142586   3.768   0.117  14.799  0.7780 -1.6014 -1.0304
 7057TIP3    H242587   3.851   0.230  14.854 -1.6926  0.4410 -1.4322
 7058TIP3   OH242588   4.866   2.023   1.317  0.4752 -0.1526  0.3335
 7058TIP3    H142589   4.787   1.997   1.364  0.9393  1.5612  2.1258
 7058TIP3    H242590   4.929   2.043   1.385  1.1408  2.4939 -0.9844
 7059TIP3   OH242591   4.718   0.181  13.222 -0.0604 -0.2930  0.0015
 7059TIP3    H142592   4.663   0.258  13.238  1.5796  1.1669 -1.1698
 7059TIP3    H242593   4.698   0.155  13.132  1.9055  0.9114 -0.8159
 7060TIP3   OH242594   3.647   4.165   2.534  0.0113 -0.0067 -0.4460
 7060TIP3    H142595   3.587   4.182   2.461 -0.9515 -1.6211 -0.0541
 7060TIP3    H242596   3.694   4.085   2.509  0.0055 -0.3119  0.4946
 7061TIP3   OH242597   6.459   1.836   0.539 -0.2334 -0.3667 -0.2813
 7061TIP3    H142598   6.542   1.867   0.575 -0.0147  2.1207 -2.7240
 7061TIP3    H242599   6.394   1.894   0.579 -0.9844 -2.8736  2.3114
 7062TIP3   OH242600   5.487   0.650   0.334 -0.3084 -0.9232  0.1616
 7062TIP3    H142601   5.536   0.705   0.395 -0.0993 -2.9694  1.9058
 7062TIP3    H242602   5.546   0.638   0.259 -0.4692  1.4137 -0.3579
 7063TIP3   OH242603   3.393   3.711   2.670 -0.3120 -0.3550 -0.0371
 7063TIP3    H142604   3.356   3.775   2.732  0.6635 -0.2282  0.4166
 7063TIP3    H242605   3.319   3.656   2.646 -0.2133 -1.9526  3.1287
 7064TIP3   OH242606   4.634   1.627   2.673 -0.0750 -0.2877 -0.2639
 7064TIP3    H142607   4.567   1.627   2.742  0.3441  0.5437  0.1435
 7064TIP3    H242608   4.599   1.686   2.606  0.0501 -0.2003 -0.2515
 7065TIP3   OH242609   2.532   6.126   2.307  0.4079  0.2292 -0.0070
 7065TIP3    H142610   2.509   6.066   2.378 -1.6914 -0.5677 -1.2980
 7065TIP3    H242611   2.575   6.200   2.350  0.1554 -0.7433  1.9567
 7066TIP3   OH242612   4.008   5.366   3.180 -0.5820  0.2537 -0.2365
 7066TIP3    H142613   3.944   5.364   3.252  0.1096  2.3067  0.4770
 7066TIP3    H242614   4.044   5.277   3.178 -2.4282 -0.5329  0.2925
 7067TIP3   OH242615   0.571   0.326  16.808 -0.1641  0.0714 -0.3041
 7067TIP3    H142616   0.595   0.309  16.899  0.9708  0.2981 -0.5633
 7067TIP3    H242617   0.616   0.258  16.758 -1.0992 -0.2912 -0.6702
 7068TIP3   OH242618   3.672   3.805   5.795  0.2564  0.0421 -0.0573
 7068TIP3    H142619   3.765   3.828   5.793 -0.0350  1.1929 -0.9678
 7068TIP3    H242620   3.644   3.827   5.884  0.3746  1.7099 -0.4118
 7069TIP3   OH242621   0.992   4.909   1.078  0.4913 -0.2483 -0.5654
 7069TIP3    H142622   0.906   4.953   1.077  0.1328 -0.8683  1.6121
 7069TIP3    H242623   1.027   4.924   0.990 -1.7311  0.2600 -1.4006
 7070TIP3   OH242624   4.009   3.354  14.902 -0.2347 -0.2549  0.1550
 7070TIP3    H142625   4.039   3.293  14.835 -1.1610 -0.8217  0.2594
 7070TIP3    H242626   4.077   3.350  14.969  0.4553 -0.0439 -0.5211
 7071TIP3   OH242627   2.338   5.503   3.043  0.4157 -0.0192 -0.1298
 7071TIP3    H142628   2.340   5.591   3.005 -2.0082  0.5445  0.9152
 7071TIP3    H242629   2.264   5.460   3.000 -0.7360 -0.2549  1.9894
 7072TIP3   OH242630   2.870   2.566   1.904  0.0435 -0.0746  0.3963
 7072TIP3    H142631   2.909   2.608   1.981  1.0116  1.1900 -0.7474
 7072TIP3    H242632   2.858   2.475   1.930  0.5142  0.2966  1.9854
 7073TIP3   OH242633   5.889   2.895   2.174  0.2152 -0.0135 -0.5164
 7073TIP3    H142634   5.979   2.864   2.171 -0.2436 -1.3482 -0.8954
 7073TIP3    H242635   5.849   2.843   2.244 -0.4570 -0.0010 -0.8908
 7074TIP3   OH242636   5.128   5.104  16.000  0.4179 -0.1086 -0.0156
 7074TIP3    H142637   5.101   5.190  16.032 -0.9263 -0.6716  0.4098
 7074TIP3    H242638   5.166   5.122  15.914  0.0082  0.8923 -0.0003
 7075TIP3   OH242639   2.454   4.160   0.327 -0.1172 -0.2587  0.2025
 7075TIP3    H142640   2.406   4.118   0.256  1.4084 -2.0076  0.1612
 7075TIP3    H242641   2.539   4.183   0.288  0.7608 -1.3092  1.4440
 7076TIP3   OH242642   5.112   2.606   1.651 -0.1463 -0.3032  0.7556
 7076TIP3    H142643   5.067   2.643   1.575  1.6815 -0.9621 -0.7057
 7076TIP3    H242644   5.043   2.568   1.704 -1.3463 -1.1248 -1.3340
 7077TIP3   OH242645   0.856   2.156  10.862  0.8721  0.1139  0.1440
 7077TIP3    H142646   0.877   2.204  10.782 -1.4334  1.6227  0.4030
 7077TIP3    H242647   0.904   2.202  10.931  1.2853  0.0199 -0.0780
 7078TIP3   OH242648   2.118   1.486   0.660 -0.7022 -0.0009  0.0599
 7078TIP3    H142649   2.172   1.410   0.679  0.3967  1.0163  1.0789
 7078TIP3    H242650   2.137   1.548   0.731 -2.0554  0.9707 -0.3981
 7079TIP3   OH242651   1.641   3.638   2.979 -0.5039 -0.8092  0.2568
 7079TIP3    H142652   1.679   3.647   3.066 -0.5291  0.5547  0.1342
 7079TIP3    H242653   1.715   3.623   2.921 -0.4541 -1.3538  0.4614
 7080TIP3   OH242654   4.811   2.286  14.237 -0.0070 -0.0301  0.4268
 7080TIP3    H142655   4.818   2.283  14.333 -0.5459 -0.8441  0.4531
 7080TIP3    H242656   4.799   2.194  14.212  1.1521  0.0661 -0.5102
 7081TIP3   OH242657   3.888   1.905  13.493 -0.1776  0.1913  0.2970
 7081TIP3    H142658   3.978   1.889  13.521 -0.2259  0.1452  0.4267
 7081TIP3    H242659   3.896   1.971  13.424 -0.1243  0.8554  0.9341
 7082TIP3   OH242660   6.497   4.526  15.536  0.3810 -0.3404  0.1067
 7082TIP3    H142661   6.574   4.537  15.592  0.5781  2.2758 -0.6108
 7082TIP3    H242662   6.424   4.513  15.597  1.0588 -0.6587  0.8530
 7083TIP3   OH242663   3.454   5.672   0.171 -0.0608  0.3786 -0.6374
 7083TIP3    H142664   3.483   5.632   0.089 -0.0436 -0.4313 -0.2418
 7083TIP3    H242665   3.359   5.674   0.164 -0.1203 -0.6851 -0.2268
 7084TIP3   OH242666   6.143   4.337   0.571  0.1277 -0.0021  0.2849
 7084TIP3    H142667   6.153   4.242   0.575 -0.5976 -0.1409 -0.8592
 7084TIP3    H242668   6.106   4.361   0.656 -0.2789 -0.8195  0.3406
 7085TIP3   OH242669   1.868   3.705   2.817  0.0723  0.3673 -0.7356
 7085TIP3    H142670   1.884   3.798   2.798  3.3821 -0.1790 -0.9482
 7085TIP3    H242671   1.869   3.663   2.732  0.5421 -0.1209 -0.4920
 7086TIP3   OH242672   4.005   0.310  17.185 -0.4504  0.2488 -0.1371
 7086TIP3    H142673   4.027   0.376  17.251 -0.0516  2.5156 -2.4276
 7086TIP3    H242674   3.910   0.314  17.177 -0.7318 -1.8027  2.0486
 7087TIP3   OH242675   5.341   2.700  16.230  0.0278  0.3953 -1.0288
 7087TIP3    H142676   5.420   2.667  16.273  0.6910  0.7223 -1.9837
 7087TIP3    H242677   5.370   2.725  16.142 -0.9014  1.6116 -0.9971
 7088TIP3   OH242678   2.305   4.345   5.622 -0.1889 -0.0238  0.5609
 7088TIP3    H142679   2.266   4.380   5.702 -1.7408  2.6428 -1.2827
 7088TIP3    H242680   2.237   4.288   5.585 -0.0620 -0.0440  0.3586
 7089TIP3   OH242681   6.213   1.622   0.561 -0.3134 -0.3039 -0.2438
 7089TIP3    H142682   6.145   1.681   0.531  0.3911  0.2865 -0.6952
 7089TIP3    H242683   6.205   1.622   0.657 -0.0910  0.8050 -0.2202
 7090TIP3   OH242684   2.658   4.563   1.850  0.0180  0.3847 -0.0813
 7090TIP3    H142685   2.639   4.580   1.942  1.9683  2.8857 -0.0874
 7090TIP3    H242686   2.740   4.609   1.833  1.3189 -2.5464 -2.3035
 7091TIP3   OH242687   0.824   1.004   3.742 -0.4971 -0.6689  0.2680
 7091TIP3    H142688   0.731   1.002   3.721 -0.1466 -0.0511 -1.3694
 7091TIP3    H242689   0.827   1.031   3.834 -1.7858  3.3560 -0.7729
 7092TIP3   OH242690   5.709   0.799  13.505  0.4451 -0.1447 -0.7441
 7092TIP3    H142691   5.662   0.849  13.571  1.9686 -0.0423  0.2999
 7092TIP3    H242692   5.746   0.725  13.554  1.1605 -0.3492 -1.5913
 7093TIP3   OH242693   0.781   1.701  11.915  0.2597 -0.0277  0.0521
 7093TIP3    H142694   0.855   1.760  11.903  0.3276  0.0588  0.8943
 7093TIP3    H242695   0.821   1.614  11.921  0.1424 -0.2073 -1.4405
 7094TIP3   OH242696   5.164   2.655  11.584  0.1300 -0.2608  0.0500
 7094TIP3    H142697   5.102   2.653  11.511 -0.6329 -0.2013  0.6949
 7094TIP3    H242698   5.213   2.573  11.575  1.0882  0.4289 -1.4058
 7095TIP3   OH242699   5.815   1.465   4.954 -0.1566  0.2708 -0.0245
 7095TIP3    H142700   5.722   1.445   4.967 -0.1757 -0.0042 -0.5480
 7095TIP3    H242701   5.825   1.466   4.859  0.0849  1.6479  0.0127
 7096TIP3   OH242702   2.772   4.029   0.680 -0.0904 -0.0490  0.2141
 7096TIP3    H142703   2.786   3.946   0.727  2.7193  0.7278  0.8286
 7096TIP3    H242704   2.832   4.024   0.605  1.4745  2.1704  1.2731
 7097TIP3   OH242705   6.260   4.625  15.900  0.4341 -0.0229 -0.1774
 7097TIP3    H142706   6.199   4.673  15.956  0.6377  2.4371 -1.9879
 7097TIP3    H242707   6.337   4.611  15.955 -0.6169 -0.5427  1.1884
 7098TIP3   OH242708   3.755   0.165   3.662  0.0693  0.5842 -0.4319
 7098TIP3    H142709   3.775   0.175   3.755 -2.8471  2.0846  0.1037
 7098TIP3    H242710   3.826   0.111   3.628  1.5841  0.6073  2.5068
 7099TIP3   OH242711   2.138   1.456   1.513 -0.3785  0.2827 -0.2179
 7099TIP3    H142712   2.219   1.426   1.473 -0.9015 -0.9335 -0.3981
 7099TIP3    H242713   2.165   1.497   1.595  0.3368 -1.1441  0.2769
 7100TIP3   OH242714   3.637   5.158  14.185  0.1011  0.2050  0.2831
 7100TIP3    H142715   3.666   5.129  14.271  0.3086  0.0261  0.1510
 7100TIP3    H242716   3.593   5.242  14.202  0.0274  0.1078  0.5785
 7101TIP3   OH242717   2.091   5.619   3.300 -0.1067  0.3655  0.2798
 7101TIP3    H142718   2.061   5.697   3.346 -0.8656 -0.7272  1.6984
 7101TIP3    H242719   2.185   5.632   3.289 -0.1108  1.1855  1.1166
 7102TIP3   OH242720   1.778   0.051   3.996  0.4771  0.1097 -0.4475
 7102TIP3    H142721   1.843   0.008   4.051 -0.8307  1.0248  1.8720
 7102TIP3    H242722   1.717  -0.018   3.970  0.0523  0.0038  0.8126
 7103TIP3   OH242723   2.062   4.579  11.667 -0.0205  0.7500  0.3958
 7103TIP3    H142724   2.149   4.566  11.706 -0.5227  0.8543  1.5932
 7103TIP3    H242725   2.031   4.661  11.705  0.5240  2.2496 -2.2611
 7104TIP3   OH242726   5.253   2.918  16.541  0.0670  0.1632 -0.4450
 7104TIP3    H142727   5.263   2.981  16.469 -0.5064  0.1163 -0.5595
 7104TIP3    H242728   5.159   2.904  16.549  0.1511 -0.1284  0.0643
 7105TIP3   OH242729   0.083   5.542  17.038 -0.1194  0.5827 -0.5897
 7105TIP3    H142730   0.102   5.491  17.116  1.7195  1.3378 -0.5208
 7105TIP3    H242731   0.047   5.479  16.975 -1.2434 -0.0896  0.7178
 7106TIP3   OH242732   6.480   0.254   3.658 -0.2722 -0.2064  0.1690
 7106TIP3    H142733   6.427   0.254   3.738 -0.9978 -1.1191 -0.2933
 7106TIP3    H242734   6.466   0.166   3.622  1.3235 -0.3515 -0.1182
 7107TIP3   OH242735   2.991   0.218  15.194  0.3744  0.2294 -0.4020
 7107TIP3    H142736   2.989   0.209  15.099 -0.5224 -0.4282 -0.3279
 7107TIP3    H242737   2.905   0.186  15.223  0.7084  0.2581  0.6363
 7108TIP3   OH242738   3.909   5.086   5.365  0.0292 -0.3288 -0.3063
 7108TIP3    H142739   3.905   5.011   5.306  1.2162  0.0276 -0.8435
 7108TIP3    H242740   3.820   5.122   5.364  0.3722  0.5886 -3.0783
 7109TIP3   OH242741   6.506   1.353  16.487 -0.0847 -0.2384 -0.3573
 7109TIP3    H142742   6.432   1.393  16.442 -0.2732 -1.9797 -1.6763
 7109TIP3    H242743   6.471   1.271  16.522  1.0219 -0.7132 -0.3352
 7110TIP3   OH242744   5.414   2.921  12.918 -0.1237  0.5549 -0.2099
 7110TIP3    H142745   5.496   2.953  12.879  0.3245 -0.0706  0.2109
 7110TIP3    H242746   5.369   2.876  12.847  0.2644  0.2179 -0.2402
 7111TIP3   OH242747   1.153   3.773   1.148  0.1427 -0.0723  0.1580
 7111TIP3    H142748   1.146   3.697   1.206 -1.8446 -0.6562 -0.8173
 7111TIP3    H242749   1.099   3.840   1.190 -0.6079 -0.2166 -0.5663
 7112TIP3   OH242750   6.755   4.450  16.555  0.2346 -0.0436  0.4211
 7112TIP3    H142751   6.674   4.438  16.605  1.5768 -1.8576  2.2642
 7112TIP3    H242752   6.769   4.544  16.552 -1.6153  0.2380  0.6139
 7113TIP3   OH242753   5.321   5.345   5.259 -0.4135  0.2183 -0.0332
 7113TIP3    H142754   5.408   5.315   5.285  1.3306  4.7251 -0.1282
 7113TIP3    H242755   5.277   5.367   5.341 -0.2645  0.8502 -0.1155
 7114TIP3   OH242756   1.387   4.756  13.835 -0.0694  0.6783  0.3604
 7114TIP3    H142757   1.356   4.742  13.745  1.0694 -0.0150  0.0644
 7114TIP3    H242758   1.342   4.836  13.863  0.1383  1.3386 -1.0990
 7115TIP3   OH242759   2.868   5.133   4.250 -0.1724 -0.2420  0.0834
 7115TIP3    H142760   2.949   5.089   4.225  0.9906  1.5015  0.7230
 7115TIP3    H242761   2.895   5.221   4.275 -2.2600  0.3384  0.3794
 7116TIP3   OH242762   1.029   0.827   3.141 -0.1028 -0.3802  0.4243
 7116TIP3    H142763   1.054   0.738   3.116  0.3061 -0.5668  1.4428
 7116TIP3    H242764   1.105   0.880   3.119 -0.5109 -0.2027 -0.5855
 7117TIP3   OH242765   6.517   5.485  13.667  0.3729 -0.1340  0.3789
 7117TIP3    H142766   6.459   5.503  13.594  1.3573  0.3052 -0.3058
 7117TIP3    H242767   6.470   5.421  13.721  0.4357 -1.8999 -1.6294
 7118TIP3   OH242768   5.628   3.746   1.331  0.7495  0.1539  0.3520
 7118TIP3    H142769   5.641   3.724   1.423  1.1839  0.8504  0.4574
 7118TIP3    H242770   5.702   3.803   1.309  1.4241 -1.1407 -0.8053
 7119TIP3   OH242771   2.723   4.190  12.236 -0.0642  0.1956  0.7289
 7119TIP3    H142772   2.774   4.128  12.289  0.2421 -0.4875 -0.3563
 7119TIP3    H242773   2.668   4.134  12.181 -2.4128  0.9079  2.2543
 7120TIP3   OH242774   2.035   0.312  14.591 -0.5600 -0.2120 -0.3317
 7120TIP3    H142775   1.940   0.325  14.583 -0.2810  2.3608  0.0090
 7120TIP3    H242776   2.073   0.391  14.552  1.4861 -1.6701 -1.3579
 7121TIP3   OH242777   1.759   6.295   1.503 -0.1047  0.2132 -0.6979
 7121TIP3    H142778   1.812   6.344   1.441  1.7702 -0.6881  0.1433
 7121TIP3    H242779   1.820   6.235   1.545 -1.2033  1.1408  2.3852
 7122TIP3   OH242780   5.206   4.209  11.096 -0.2099 -0.7189 -0.5851
 7122TIP3    H142781   5.187   4.249  11.181 -0.1077 -0.0582 -0.8749
 7122TIP3    H242782   5.122   4.175  11.066 -0.3375 -0.5234 -0.4484
 7123TIP3   OH242783   5.878   1.967  12.878  0.0405 -0.6579 -0.3693
 7123TIP3    H142784   5.846   1.888  12.923  0.4609 -1.4077 -1.3658
 7123TIP3    H242785   5.967   1.944  12.850 -0.0142  0.0063 -1.0929
 7124TIP3   OH242786   6.455   0.865  10.829  0.5322 -0.2644 -0.2242
 7124TIP3    H142787   6.420   0.781  10.857 -0.2067  0.3184  0.6368
 7124TIP3    H242788   6.501   0.847  10.747 -3.0379 -0.8000 -2.2119
 7125TIP3   OH242789   3.970   4.612  15.488 -0.6152  0.6857 -0.3220
 7125TIP3    H142790   3.876   4.594  15.482 -0.3988 -0.4032 -0.5593
 7125TIP3    H242791   4.009   4.556  15.421  0.3101  0.3211  0.5227
 7126TIP3   OH242792   5.114   0.266  13.988 -0.6737 -0.2289 -0.1193
 7126TIP3    H142793   5.040   0.282  14.048  0.8268 -0.9167  1.9495
 7126TIP3    H242794   5.150   0.353  13.971 -0.1159 -0.1693  1.2942
 7127TIP3   OH242795   3.743   3.546   0.582 -0.1929  0.1623  0.1758
 7127TIP3    H142796   3.733   3.468   0.527  0.9392 -0.2117  0.4853
 7127TIP3    H242797   3.657   3.558   0.622 -0.4092 -0.8578  0.0369
 7128TIP3   OH242798   2.202   4.770  12.445 -0.0257 -0.1353  0.8124
 7128TIP3    H142799   2.181   4.707  12.376 -0.0932 -0.4497  1.1228
 7128TIP3    H242800   2.257   4.722  12.506  1.9980  0.7984 -0.2215
 7129TIP3   OH242801   3.562   6.462   5.910 -0.0099 -0.4956 -0.2975
 7129TIP3    H142802   3.476   6.493   5.882  0.2899  0.3592 -0.2926
 7129TIP3    H242803   3.543   6.396   5.977 -0.6682 -0.7276 -0.7048
 7130TIP3   OH242804   1.792   3.567  11.238 -0.1182  0.2098 -0.2204
 7130TIP3    H142805   1.765   3.658  11.231 -0.3778  0.2405  1.1142
 7130TIP3    H242806   1.733   3.520  11.180 -2.4278  0.4125  1.8972
 7131TIP3   OH242807   2.720   2.801  14.579 -0.0077 -0.0381 -0.5837
 7131TIP3    H142808   2.759   2.735  14.636  0.6116  0.8757  0.0768
 7131TIP3    H242809   2.794   2.840  14.533 -0.3033  0.6153 -0.5097
 7132TIP3   OH242810   4.720   2.122  10.987 -0.6338  0.0550  0.7355
 7132TIP3    H142811   4.737   2.214  10.967  0.0617  0.5186  3.3059
 7132TIP3    H242812   4.746   2.075  10.907 -0.3899  2.0166 -0.3696
 7133TIP3   OH242813   2.483   1.945  16.097 -0.2985  0.2395 -0.1403
 7133TIP3    H142814   2.492   1.863  16.146 -1.4395  0.5973  0.7146
 7133TIP3    H242815   2.563   1.952  16.046  0.2053 -0.9654  0.4620
 7134TIP3   OH242816   4.467   3.397  14.025  0.8009 -0.0546 -0.5472
 7134TIP3    H142817   4.375   3.381  14.002  0.3812  2.5362 -0.8452
 7134TIP3    H242818   4.478   3.491  14.012  2.8284  0.0758  1.8784
 7135TIP3   OH242819   3.217   1.074   1.644 -0.1184 -0.0872 -0.2894
 7135TIP3    H142820   3.245   1.031   1.725  1.0137  0.2074 -0.5159
 7135TIP3    H242821   3.218   1.167   1.664 -0.7453 -0.0648 -0.3611
 7136TIP3   OH242822   4.309   0.601  15.030  0.1691 -0.5246 -0.5358
 7136TIP3    H142823   4.218   0.615  15.054  0.3652 -1.1905  0.6443
 7136TIP3    H242824   4.340   0.687  15.001 -0.6467 -0.1459 -0.2958
 7137TIP3   OH242825   5.786   0.520  14.571  0.4652  0.0403  0.2445
 7137TIP3    H142826   5.693   0.514  14.591  0.2174 -1.3454 -1.2843
 7137TIP3    H242827   5.803   0.449  14.509  2.3758  0.7835 -0.1304
 7138TIP3   OH242828   4.460   0.336   0.265  0.0918 -0.2100  0.0798
 7138TIP3    H142829   4.474   0.296   0.351 -1.0025 -0.5586  0.1131
 7138TIP3    H242830   4.375   0.301   0.237  0.4093 -0.0353 -1.1056
 7139TIP3   OH242831   6.735   5.313   2.092  0.2083 -0.2338 -0.1007
 7139TIP3    H142832   6.728   5.227   2.132 -0.1709  0.7791  2.0495
 7139TIP3    H242833   6.654   5.321   2.040 -1.0114 -0.1284  1.7796
 7140TIP3   OH242834   6.732   2.614  15.937 -0.5178 -0.2408  0.2195
 7140TIP3    H142835   6.827   2.623  15.928 -0.7176 -0.0006 -2.2313
 7140TIP3    H242836   6.716   2.520  15.935 -0.3218 -0.2866  0.7842
 7141TIP3   OH242837   6.667   4.897   1.818  0.2459  0.2248  0.3711
 7141TIP3    H142838   6.653   4.920   1.726 -1.0226 -0.0073  0.4963
 7141TIP3    H242839   6.742   4.950   1.845  0.6715  0.2406 -0.8153
 7142TIP3   OH242840   5.218   5.986   4.138 -0.2355  0.1847  0.0501
 7142TIP3    H142841   5.310   5.980   4.115 -0.7138 -1.7334 -1.5096
 7142TIP3    H242842   5.218   5.999   4.233  1.6195  0.0323  0.0887
 7143TIP3   OH242843   6.398   3.351  14.952 -0.9294  0.3431  0.2093
 7143TIP3    H142844   6.347   3.271  14.940 -1.8876  1.0892 -0.6835
 7143TIP3    H242845   6.485   3.319  14.979 -1.2235 -1.0074 -0.3701
 7144TIP3   OH242846   4.558   1.941   5.234 -0.0460  0.5865 -0.2761
 7144TIP3    H142847   4.497   2.015   5.239  1.0054  1.4465  0.0330
 7144TIP3    H242848   4.598   1.948   5.148 -0.0816  0.2599 -0.3209
 7145TIP3   OH242849   3.141   5.164  14.156  0.2157 -0.1202  0.4918
 7145TIP3    H142850   3.077   5.115  14.104  2.0390 -1.3457 -0.6837
 7145TIP3    H242851   3.190   5.097  14.203  1.9227  0.6263 -0.1632
 7146TIP3   OH242852   1.311   1.947  12.525 -0.3211 -0.0550  0.6381
 7146TIP3    H142853   1.296   1.910  12.437 -0.0278 -1.2705  1.0892
 7146TIP3    H242854   1.356   2.030  12.508 -2.9997  1.2195 -0.4952
 7147TIP3   OH242855   3.036   0.691  16.517 -0.5360 -0.5075 -0.1816
 7147TIP3    H142856   3.005   0.620  16.573 -1.4141 -2.5906 -3.2135
 7147TIP3    H242857   3.130   0.696  16.534 -0.7552 -1.2092  1.3155
 7148TIP3   OH242858   4.710   6.434  14.508  0.1174  0.8537 -0.1049
 7148TIP3    H142859   4.626   6.415  14.467 -0.4643  2.6618  0.1753
 7148TIP3    H242860   4.699   6.409  14.599  0.4033 -0.3473 -0.3955
 7149TIP3   OH242861   1.862   6.706  12.687  0.0125 -0.1369 -0.5192
 7149TIP3    H142862   1.953   6.735  12.694  1.3125 -3.7824 -1.2667
 7149TIP3    H242863   1.847   6.695  12.593 -1.2959  0.5987 -0.4215
 7150TIP3   OH242864   0.835   3.657   5.590 -0.1580  0.0636 -0.1723
 7150TIP3    H142865   0.871   3.577   5.628  1.0692 -0.7448 -2.8687
 7150TIP3    H242866   0.740   3.650   5.605  0.0339 -1.4293  0.4901
 7151TIP3   OH242867   2.596   3.001   5.248 -0.3498  0.0759 -0.4411
 7151TIP3    H142868   2.623   2.914   5.220 -0.7215  0.1150 -0.9304
 7151TIP3    H242869   2.667   3.032   5.304  0.6149  0.1674 -1.6979
 7152TIP3   OH242870   1.917   4.804  11.781 -0.4530  0.0529  0.3940
 7152TIP3    H142871   1.832   4.759  11.769 -0.4174  0.4533 -1.6297
 7152TIP3    H242872   1.932   4.802  11.875 -1.2868 -2.6821  0.5178
 7153TIP3   OH242873   6.385   1.984   4.593  0.3643  0.0420 -0.1585
 7153TIP3    H142874   6.422   2.033   4.520  0.5083  0.1283 -0.0288
 7153TIP3    H242875   6.455   1.924   4.620 -0.2418 -1.1121 -1.1179
 7154TIP3   OH242876   6.674   2.521   1.359 -0.3111 -0.1197  0.0823
 7154TIP3    H142877   6.729   2.564   1.424 -0.6357  0.4480 -0.0129
 7154TIP3    H242878   6.589   2.565   1.367 -0.5654 -0.5605 -0.2010
 7155TIP3   OH242879   5.786   6.231  11.280  0.3480 -0.1560 -0.0107
 7155TIP3    H142880   5.833   6.272  11.207 -1.1303 -1.4366 -1.7383
 7155TIP3    H242881   5.705   6.282  11.286  1.0933  0.8482  1.6991
 7156TIP3   OH242882   4.526   1.038   5.657  0.2972 -0.4029 -0.4329
 7156TIP3    H142883   4.507   1.132   5.655  1.3787 -0.1512  0.5233
 7156TIP3    H242884   4.451   0.998   5.614 -1.6706  0.6963  1.8128
 7157TIP3   OH242885   3.171   0.093   4.589  0.4601 -0.4347  0.1305
 7157TIP3    H142886   3.112   0.095   4.514 -0.6324 -0.7033  0.9797
 7157TIP3    H242887   3.114   0.084   4.665  1.5325  0.2843  1.0403
 7158TIP3   OH242888   4.559   2.135  11.214 -0.2740  0.1930  0.3563
 7158TIP3    H142889   4.630   2.126  11.150 -0.4708  1.4920 -0.0507
 7158TIP3    H242890   4.480   2.137  11.161 -0.4734  0.8203  0.6816
 7159TIP3   OH242891   3.133   6.423  13.444  0.2967 -0.0168  0.0185
 7159TIP3    H142892   3.155   6.350  13.386  0.7925 -1.4513  1.9593
 7159TIP3    H242893   3.053   6.394  13.490 -1.5323  2.1242 -1.6954
 7160TIP3   OH242894   6.095   4.345   1.275  0.0337  0.1241 -0.3427
 7160TIP3    H142895   6.132   4.257   1.286  0.3127  0.3145  0.2272
 7160TIP3    H242896   6.170   4.404   1.283 -0.5105  0.5726  1.7175
 7161TIP3   OH242897   6.652   3.472  15.052  0.0029  0.0830 -0.4061
 7161TIP3    H142898   6.715   3.543  15.058  0.1474 -0.1448  0.8309
 7161TIP3    H242899   6.567   3.516  15.061  0.1508 -0.0677  2.0024
 7162TIP3   OH242900   0.848   4.373   6.209 -0.0445 -0.3338 -0.0271
 7162TIP3    H142901   0.873   4.377   6.301  1.0602 -0.4595 -0.3228
 7162TIP3    H242902   0.918   4.324   6.166 -0.0307  0.6169 -1.1197
 7163TIP3   OH242903   4.675   6.752   3.338  0.8309  0.3712 -0.0414
 7163TIP3    H142904   4.619   6.773   3.413  0.4281  0.4373 -0.3621
 7163TIP3    H242905   4.648   6.813   3.270  1.2735  0.3812 -0.2087
 7164TIP3   OH242906   6.105   0.906  15.875  0.1352 -0.1950 -0.2699
 7164TIP3    H142907   6.185   0.874  15.917  0.2710 -2.5404 -2.1855
 7164TIP3    H242908   6.127   0.995  15.845  1.0246  0.3011  1.7786
 7165TIP3   OH242909   4.399   1.769   3.164 -0.1566  0.6855  0.3039
 7165TIP3    H142910   4.444   1.736   3.242  0.7318  0.1680 -0.4165
 7165TIP3    H242911   4.413   1.864   3.167  0.8814  0.5462  0.1626
 7166TIP3   OH242912   2.449   5.256  17.084 -0.1947  0.5674 -0.0759
 7166TIP3    H142913   2.541   5.282  17.092 -0.1531  0.2358  0.5089
 7166TIP3    H242914   2.400   5.339  17.088 -0.0281  0.6143  1.2897
 7167TIP3   OH242915   0.154   4.225  12.825  0.2033  0.1765 -0.5812
 7167TIP3    H142916   0.145   4.229  12.920 -0.0947  2.1451 -0.6762
 7167TIP3    H242917   0.247   4.241  12.809  0.3482 -0.6772 -0.5968
 7168TIP3   OH242918   6.724   3.328  17.058  0.2898  0.6063 -0.6570
 7168TIP3    H142919   6.769   3.319  17.142  0.5949  1.6583 -0.7007
 7168TIP3    H242920   6.726   3.422  17.040 -1.2360  0.5764 -1.0417
 7169TIP3   OH242921   6.336   5.983  12.200  0.1353  0.2741  0.3517
 7169TIP3    H142922   6.284   5.934  12.138 -1.0003  0.0150  1.4906
 7169TIP3    H242923   6.273   6.037  12.248  0.9083  0.0218  1.6873
 7170TIP3   OH242924   2.668   5.504  16.542  0.1672 -0.4203 -0.1391
 7170TIP3    H142925   2.620   5.490  16.624 -2.1056  3.3341 -0.7248
 7170TIP3    H242926   2.731   5.573  16.562  0.5347 -0.4230 -1.2364
 7171TIP3   OH242927   1.539   4.605   3.039  0.2456  0.1806  0.2258
 7171TIP3    H142928   1.596   4.673   3.004  0.5740  0.6373  1.5860
 7171TIP3    H242929   1.541   4.535   2.974 -0.8680  1.8670 -1.6541
 7172TIP3   OH242930   3.404   4.735   4.679  0.2552  0.7366  0.0706
 7172TIP3    H142931   3.389   4.829   4.666 -3.7869  0.5244  2.3834
 7172TIP3    H242932   3.367   4.694   4.601  0.3958  0.9852 -0.1276
 7173TIP3   OH242933   4.287   3.411   4.607 -0.0542  0.2768 -0.3876
 7173TIP3    H142934   4.318   3.501   4.607  0.6761  0.0275  0.4129
 7173TIP3    H242935   4.261   3.394   4.698 -1.5223  0.1343 -0.8212
 7174TIP3   OH242936   5.408   0.250  15.228 -0.2911 -0.3909 -0.1206
 7174TIP3    H142937   5.438   0.188  15.161  1.7663  1.0635 -0.5918
 7174TIP3    H242938   5.485   0.305  15.246 -1.5605  0.8783  1.5839
 7175TIP3   OH242939   5.402   2.471   4.505 -0.3720  0.2961 -0.1429
 7175TIP3    H142940   5.390   2.566   4.511  1.6249  0.5846 -0.2088
 7175TIP3    H242941   5.328   2.440   4.453 -1.4875  1.7051  0.5726
 7176TIP3   OH242942   1.583   5.410   5.022  0.2006  0.2476 -0.0365
 7176TIP3    H142943   1.634   5.429   5.100  1.9899 -0.5809 -0.9783
 7176TIP3    H242944   1.638   5.439   4.949 -1.0409  0.1570 -1.0302
 7177TIP3   OH242945   3.326   5.085  14.664 -0.2232 -0.0300  0.3116
 7177TIP3    H142946   3.320   4.991  14.646 -1.1898  0.2253 -0.7592
 7177TIP3    H242947   3.238   5.118  14.648  0.3675  1.2518 -0.3955
 7178TIP3   OH242948   3.753   0.545   4.787 -0.6477 -0.2171  0.0863
 7178TIP3    H142949   3.790   0.570   4.872 -0.0174  1.1086 -0.5668
 7178TIP3    H242950   3.659   0.547   4.800 -0.5542  0.1335  0.7181
 7179TIP3   OH242951   0.138   5.118   4.057 -0.5081 -0.2014 -0.1365
 7179TIP3    H142952   0.181   5.202   4.077 -1.7548  0.9270 -2.0431
 7179TIP3    H242953   0.068   5.112   4.121 -1.7636  1.2868 -1.3334
 7180TIP3   OH242954   2.598   5.628  14.189  0.1656 -0.1312  0.1011
 7180TIP3    H142955   2.509   5.651  14.163  0.1072  1.5506  1.6949
 7180TIP3    H242956   2.594   5.534  14.209 -1.0943 -0.1823 -0.3494
 7181TIP3   OH242957   0.021   3.247   4.963  0.3795  0.0439  0.4131
 7181TIP3    H142958   0.027   3.310   4.891 -0.0156 -0.9260 -0.4693
 7181TIP3    H242959   0.009   3.163   4.921 -1.2757 -0.3691  1.6627
 7182TIP3   OH242960   4.548   1.015  10.597 -0.0735  0.1518 -0.2255
 7182TIP3    H142961   4.546   1.102  10.557  0.1311  0.4278  0.3597
 7182TIP3    H242962   4.593   1.028  10.681 -0.4990 -0.4189  0.0947
 7183TIP3   OH242963   4.589   4.073  16.464 -0.1006 -0.0338  0.5102
 7183TIP3    H142964   4.599   3.986  16.503 -1.3369 -0.2777  0.2891
 7183TIP3    H242965   4.495   4.085  16.457  0.0936  0.7650 -0.7442
 7184TIP3   OH242966   4.693   4.591   5.881  0.2890 -0.1218 -0.1480
 7184TIP3    H142967   4.703   4.685   5.898 -1.0645 -0.3067  1.8146
 7184TIP3    H242968   4.762   4.550   5.934 -1.2969 -0.4283  1.7422
 7185TIP3   OH242969   5.671   5.334   1.589 -0.6002 -0.2092  0.6020
 7185TIP3    H142970   5.612   5.262   1.568  0.4758 -0.8913 -0.1437
 7185TIP3    H242971   5.658   5.348   1.683 -0.3868 -1.7828  0.8887
 7186TIP3   OH242972   4.320   3.182   0.661  0.1081  0.3355  0.1154
 7186TIP3    H142973   4.401   3.146   0.697  0.1714  2.8348  2.7257
 7186TIP3    H242974   4.342   3.273   0.638 -1.2511  0.2258 -1.7281
 7187TIP3   OH242975   1.957   2.402  12.001 -0.1351  0.5877 -0.2010
 7187TIP3    H142976   1.904   2.335  12.043  1.7908  0.2629  1.8217
 7187TIP3    H242977   1.925   2.485  12.037 -0.0038  0.4707  0.1871
 7188TIP3   OH242978   4.602   5.264   0.679  0.5652  0.0423  0.5464
 7188TIP3    H142979   4.604   5.170   0.662 -0.3987 -0.0310  0.8044
 7188TIP3    H242980   4.544   5.274   0.754  0.2679  0.8856  0.2144
 7189TIP3   OH242981   0.234   4.797   2.290 -0.5762  0.1803 -0.1219
 7189TIP3    H142982   0.178   4.838   2.224 -0.1607  1.4341  0.2876
 7189TIP3    H242983   0.289   4.737   2.241 -0.2183  1.1586 -0.9336
 7190TIP3   OH242984   4.043   3.525   1.624 -0.2657 -0.4203  0.1956
 7190TIP3    H142985   3.948   3.520   1.614 -0.1382 -0.8923 -0.7942
 7190TIP3    H242986   4.068   3.605   1.578  0.1661 -1.9243 -2.2879
 7191TIP3   OH242987   5.503   3.957  11.663 -0.4806 -0.8537  0.1137
 7191TIP3    H142988   5.427   3.943  11.719 -0.1322 -0.9365  0.5603
 7191TIP3    H242989   5.558   4.018  11.712 -1.5249  1.3516 -1.3774
 7192TIP3   OH242990   6.437   0.579   4.188  0.4029  0.3881 -0.0306
 7192TIP3    H142991   6.351   0.558   4.151  0.7556  0.4114 -0.8635
 7192TIP3    H242992   6.487   0.614   4.115  0.7310  1.5408  0.7260
 7193TIP3   OH242993   5.557   5.640  13.684 -0.0708  0.2965 -0.1896
 7193TIP3    H142994   5.581   5.564  13.736 -0.7794  0.0300 -0.2391
 7193TIP3    H242995   5.640   5.678  13.656  0.2819 -1.3504 -1.4534
 7194TIP3   OH242996   3.230   0.412   1.669  0.6205  0.0289  0.4536
 7194TIP3    H142997   3.155   0.379   1.620  1.1084 -0.6313  0.1284
 7194TIP3    H242998   3.289   0.336   1.674  3.3316  1.7274 -3.2773
 7195TIP3   OH242999   1.464   4.950   3.254  0.2858 -0.2571 -0.0363
 7195TIP3    H143000   1.438   4.858   3.260 -0.8474  0.1113  0.9146
 7195TIP3    H243001   1.381   4.998   3.248  0.7822  0.8333  1.4455
 7196TIP3   OH243002   3.958   3.895   6.424 -0.0504 -0.1636 -0.2714
 7196TIP3    H143003   3.945   3.988   6.442  1.1737  0.6495 -3.2806
 7196TIP3    H243004   4.052   3.883   6.427 -0.1202 -1.0132 -1.1473
 7197TIP3   OH243005   2.422   1.055  12.370  0.4486  0.2013  0.0056
 7197TIP3    H143006   2.330   1.033  12.358  0.7633 -2.2674  1.5350
 7197TIP3    H243007   2.468   1.004  12.302  0.8731 -0.7744  0.9991
 7198TIP3   OH243008   3.895   0.129  16.932  0.1911 -0.3789 -0.4255
 7198TIP3    H143009   3.867   0.049  16.976  1.9516 -1.1267 -0.5987
 7198TIP3    H243010   3.857   0.200  16.983 -1.5470 -1.3283 -0.3859
 7199TIP3   OH243011   1.837   2.578  12.188  0.2490  0.6335 -0.5880
 7199TIP3    H143012   1.808   2.589  12.279 -0.0059  0.0657 -0.5975
 7199TIP3    H243013   1.758   2.592  12.136  0.4311  1.1295 -0.7355
 7200TIP3   OH243014   3.485   4.533   1.615  0.9806 -0.2171  0.7677
 7200TIP3    H143015   3.438   4.480   1.550 -0.8819 -0.1336  1.9999
 7200TIP3    H243016   3.562   4.565   1.569 -2.2318  3.0826 -2.6527
 7201TIP3   OH243017   1.387   1.907   0.458  0.4145 -0.3324  0.0605
 7201TIP3    H143018   1.420   1.841   0.398  1.5252  0.8705 -0.6831
 7201TIP3    H243019   1.338   1.969   0.402  0.7048  0.3133  0.5136
 7202TIP3   OH243020   2.653   6.346  11.195 -0.0644 -0.4895 -0.2672
 7202TIP3    H143021   2.673   6.304  11.112  0.7338 -1.2327  0.2904
 7202TIP3    H243022   2.559   6.362  11.192 -0.1195 -0.9485 -1.1103
 7203TIP3   OH243023   5.816   6.222  13.331 -0.6844  0.6341  0.0656
 7203TIP3    H143024   5.852   6.216  13.243  2.3246  0.4558  1.2524
 7203TIP3    H243025   5.806   6.316  13.347  0.0316  0.7121  0.0400
 7204TIP3   OH243026   0.361   2.503   1.859 -0.2041  0.0549  0.6186
 7204TIP3    H143027   0.296   2.446   1.900 -2.7427  2.0668 -0.3846
 7204TIP3    H243028   0.350   2.587   1.904 -0.5206  1.2787 -1.6592
 7205TIP3   OH243029   6.584   1.308   4.684 -0.0179 -0.4030  0.3553
 7205TIP3    H143030   6.587   1.338   4.775  0.8523  1.4779 -0.2702
 7205TIP3    H243031   6.502   1.343   4.650  0.0083 -0.4817  0.2135
 7206TIP3   OH243032   0.518   3.857   6.343 -0.1959 -0.1249  0.6251
 7206TIP3    H143033   0.427   3.829   6.356  0.0715 -1.9751 -1.2034
 7206TIP3    H243034   0.516   3.951   6.358 -2.9850  0.3273 -2.0642
 7207TIP3   OH243035   2.485   1.737  16.274 -0.0688 -0.1652  0.5108
 7207TIP3    H143036   2.473   1.662  16.214 -1.3489 -0.7276  1.4446
 7207TIP3    H243037   2.398   1.750  16.313  0.0242  2.1319 -0.0045
 7208TIP3   OH243038   4.892   1.468  16.449 -0.2545 -0.2810 -0.3318
 7208TIP3    H143039   4.810   1.471  16.400 -0.7411  0.2512  0.5078
 7208TIP3    H243040   4.866   1.469  16.541  0.6822 -0.2440 -0.0584
 7209TIP3   OH243041   1.015   1.135  15.742 -0.5127  0.2674  0.0873
 7209TIP3    H143042   1.020   1.041  15.724 -0.5214  0.2138  0.3550
 7209TIP3    H243043   0.986   1.140  15.834 -1.4711  0.5402 -0.2248
 7210TIP3   OH243044   6.368   2.912  15.668 -0.3633  0.3914 -0.4115
 7210TIP3    H143045   6.275   2.892  15.681 -0.1528  0.7102  1.8609
 7210TIP3    H243046   6.414   2.855  15.730  0.8784  1.0834 -0.6683
 7211TIP3   OH243047   5.817   1.164   0.453 -0.0360 -0.0559 -0.1330
 7211TIP3    H143048   5.875   1.190   0.382 -0.6338 -1.0960 -1.0136
 7211TIP3    H243049   5.867   1.102   0.505  0.0844  0.0249 -0.1532
 7212TIP3   OH243050   5.427   2.792  12.309 -0.0966 -0.2331 -0.0703
 7212TIP3    H143051   5.374   2.869  12.329  1.6366  1.2526 -1.0373
 7212TIP3    H243052   5.377   2.747  12.241 -0.3780  0.8931 -0.6320
 7213TIP3   OH243053   2.592   2.754  16.636  0.0774 -0.0914  0.5002
 7213TIP3    H143054   2.663   2.697  16.666 -0.0033 -0.1941  0.4953
 7213TIP3    H243055   2.594   2.829  16.697 -0.5318 -0.6285  1.1965
 7214TIP3   OH243056   4.025   0.929   0.614 -0.2866  0.5853 -0.0792
 7214TIP3    H143057   4.010   0.855   0.556 -1.5079 -0.2756  1.2794
 7214TIP3    H243058   3.969   0.911   0.690  1.2110  1.6990  1.3303
 7215TIP3   OH243059   1.028   2.614  12.543  0.2222  0.0953  0.4177
 7215TIP3    H143060   0.997   2.524  12.529  1.5095 -0.3717  0.4149
 7215TIP3    H243061   0.981   2.666  12.478 -0.4933 -0.5947  0.3767
 7216TIP3   OH243062   1.166   1.420   4.779  0.0738 -0.1414  0.7328
 7216TIP3    H143063   1.196   1.493   4.832  0.6769 -0.3609  0.7002
 7216TIP3    H243064   1.092   1.383   4.827 -0.8486  1.0676  0.2830
 7217TIP3   OH243065   6.097   4.277   4.572  0.1018 -0.2456 -0.3173
 7217TIP3    H143066   6.182   4.282   4.529  0.2478 -0.5187 -0.0645
 7217TIP3    H243067   6.071   4.368   4.585  0.8158 -0.1594  0.4958
 7218TIP3   OH243068   3.443   4.053  14.658 -0.2216 -0.1587  0.3382
 7218TIP3    H143069   3.370   4.032  14.717  0.4216  0.6589  1.4349
 7218TIP3    H243070   3.463   4.145  14.676 -0.3861  0.2632 -1.5718
 7219TIP3   OH243071   6.280   4.629  14.913 -0.9357  0.7946  0.8229
 7219TIP3    H143072   6.335   4.560  14.949 -2.0766  0.0126  1.1132
 7219TIP3    H243073   6.194   4.588  14.902 -0.8779  1.3390 -1.7977
 7220TIP3   OH243074   3.916   5.326   6.161 -0.5427  0.0378 -0.0355
 7220TIP3    H143075   3.954   5.315   6.073 -0.1354  0.8258  0.0394
 7220TIP3    H243076   3.987   5.302   6.220 -0.4018  0.7805  0.0975
 7221TIP3   OH243077   5.090   3.504   2.609  0.5642  0.8703 -0.1136
 7221TIP3    H143078   4.997   3.526   2.614  0.1891 -0.3035 -1.6113
 7221TIP3    H243079   5.121   3.547   2.530  1.2426  1.0577  0.2521
 7222TIP3   OH243080   3.830   4.953   0.380 -0.3739 -0.1085  0.0557
 7222TIP3    H143081   3.838   4.858   0.388 -2.1797 -0.3781 -1.0406
 7222TIP3    H243082   3.917   4.982   0.352  0.3589 -1.3577  0.9875
 7223TIP3   OH243083   0.242   6.331   2.060 -0.3014 -0.8831 -0.1071
 7223TIP3    H143084   0.313   6.270   2.078  2.2984  1.5582 -1.7948
 7223TIP3    H243085   0.195   6.291   1.986  1.5706 -0.7354 -1.4094
 7224TIP3   OH243086   1.632   5.509  12.732 -0.0758 -0.7394 -0.0848
 7224TIP3    H143087   1.723   5.527  12.709 -0.0460 -1.0414 -0.2096
 7224TIP3    H243088   1.610   5.430  12.682 -0.4721 -0.5428 -0.2185
 7225TIP3   OH243089   4.823   3.611   3.591 -0.3118 -0.0017  0.0354
 7225TIP3    H143090   4.885   3.680   3.613 -0.6640  0.2735  0.1718
 7225TIP3    H243091   4.862   3.566   3.517 -0.9030  1.4404 -1.1845
 7226TIP3   OH243092   3.141   4.479   4.985 -0.1112 -0.1013  0.5926
 7226TIP3    H143093   3.064   4.428   4.958 -0.2855 -0.5555  1.9216
 7226TIP3    H243094   3.104   4.557   5.026  0.1467  0.0892  0.4610
 7227TIP3   OH243095   1.154   1.162  16.218  0.3818  0.4075  0.2968
 7227TIP3    H143096   1.193   1.082  16.253 -0.8307 -0.4981 -0.4211
 7227TIP3    H243097   1.187   1.231  16.276  1.2101 -0.6336  1.0909
 7228TIP3   OH243098   5.140   2.142   5.492 -0.1367 -0.2775 -0.0023
 7228TIP3    H143099   5.178   2.230   5.484  0.2682 -0.4869 -0.3504
 7228TIP3    H243100   5.202   2.093   5.545  0.9061 -1.0978 -1.9286
 7229TIP3   OH243101   4.551   1.450   0.435 -0.6247 -0.3545  0.1481
 7229TIP3    H143102   4.583   1.526   0.386  1.6315 -1.6202 -0.4309
 7229TIP3    H243103   4.559   1.474   0.527  1.4048 -0.3725 -0.0031
 7230TIP3   OH243104   0.596   3.516  15.113 -0.4118 -0.5236  0.0491
 7230TIP3    H143105   0.687   3.526  15.083 -0.5753  0.2902 -0.1976
 7230TIP3    H243106   0.587   3.423  15.133  0.3407 -0.6928 -0.3847
 7231TIP3   OH243107   3.663   3.796  10.650  0.2747  0.4456  0.0590
 7231TIP3    H143108   3.599   3.727  10.633  1.1275 -0.3765  0.1129
 7231TIP3    H243109   3.632   3.871  10.600 -1.0569  0.2511  0.5835
 7232TIP3   OH243110   5.226   3.358  15.563  0.4188  0.5111  0.5473
 7232TIP3    H143111   5.227   3.430  15.501  0.8397  0.5624  0.6128
 7232TIP3    H243112   5.293   3.298  15.532 -0.4471 -0.2165  0.0640
 7233TIP3   OH243113   4.220   4.836  12.994  0.2946 -0.1917  0.0400
 7233TIP3    H143114   4.147   4.776  12.980  0.6571 -0.8612  1.0406
 7233TIP3    H243115   4.296   4.780  13.004  0.4999  0.3814  1.8474
 7234TIP3   OH243116   4.849   0.652  16.842 -0.1999  0.0605 -0.3836
 7234TIP3    H143117   4.773   0.662  16.899  0.4364  0.4487  0.4159
 7234TIP3    H243118   4.881   0.564  16.860 -0.6284 -0.2014 -0.9188
 7235TIP3   OH243119   6.475   6.462  17.035  0.1542 -0.6563 -0.1543
 7235TIP3    H143120   6.561   6.457  17.076 -0.1992 -1.1119  0.5399
 7235TIP3    H243121   6.472   6.387  16.976  1.4297  1.0942 -2.5375
 7236TIP3   OH243122   4.034   2.552   2.749  0.3940 -0.0494  0.0527
 7236TIP3    H143123   4.001   2.568   2.837 -0.5838  1.4572 -0.5536
 7236TIP3    H243124   4.046   2.640   2.712  1.7244 -0.6480 -0.9775
 7237TIP3   OH243125   4.282   4.597  14.864 -0.3405  0.4857 -0.1778
 7237TIP3    H143126   4.256   4.649  14.789  1.9313  1.0933 -0.5821
 7237TIP3    H243127   4.329   4.522  14.827 -0.2971  0.1290  0.5743
 7238TIP3   OH243128   3.089   4.573  13.875  0.0909 -0.4910  0.1567
 7238TIP3    H143129   3.095   4.599  13.967 -1.6235 -0.0347  0.1555
 7238TIP3    H243130   3.122   4.483  13.874 -0.8706 -0.8815  1.4082
 7239TIP3   OH243131   3.838   5.366   3.380 -0.1632 -0.1093 -0.3255
 7239TIP3    H143132   3.743   5.376   3.379 -0.2391 -0.4634  1.2106
 7239TIP3    H243133   3.864   5.401   3.465  1.0678 -0.0859 -0.7091
 7240TIP3   OH243134   1.669   6.526  14.406 -0.9192 -0.2709  0.2003
 7240TIP3    H143135   1.647   6.607  14.451  2.9296  0.1507  1.5367
 7240TIP3    H243136   1.665   6.458  14.473 -2.0038 -0.8673 -0.4391
 7241TIP3   OH243137   1.719   2.593  11.846  0.3621  0.2424 -0.2286
 7241TIP3    H143138   1.692   2.513  11.890  2.0366 -0.5305 -0.5587
 7241TIP3    H243139   1.674   2.663  11.893 -0.9662 -0.8744  0.1835
 7242TIP3   OH243140   3.408   6.708  11.581 -0.3939  0.7683  0.2772
 7242TIP3    H143141   3.405   6.652  11.659 -1.4240 -0.0612 -0.3527
 7242TIP3    H243142   3.483   6.676  11.531 -1.2935 -0.3965 -0.3363
 7243TIP3   OH243143   3.535   3.422  15.812 -0.0094  0.0480 -0.0073
 7243TIP3    H143144   3.449   3.393  15.783 -0.6083  1.1034  0.6937
 7243TIP3    H243145   3.517   3.479  15.887  1.3057  0.1210  0.2650
 7244TIP3   OH243146   2.865   1.062   6.428  0.1524  0.0619 -0.2096
 7244TIP3    H143147   2.845   1.029   6.516 -1.9212 -0.0749 -0.7266
 7244TIP3    H243148   2.917   0.993   6.388  0.9235  0.0270  0.8156
 7245TIP3   OH243149   3.065   4.834   5.725  0.1833 -0.3042  0.3425
 7245TIP3    H143150   3.155   4.838   5.692 -0.5783 -0.4748 -1.8346
 7245TIP3    H243151   3.051   4.920   5.765  0.8675  0.2234 -0.5284
 7246TIP3   OH243152   5.673   4.153  13.955  0.1926  0.0056  0.2204
 7246TIP3    H143153   5.730   4.200  14.015  3.0749 -3.0276 -0.0077
 7246TIP3    H243154   5.672   4.063  13.988 -2.2479 -0.6160 -1.4010
 7247TIP3   OH243155   4.649   3.086  17.091  0.4979  0.3737  0.4090
 7247TIP3    H143156   4.591   3.017  17.059  1.7277 -0.5498  0.1528
 7247TIP3    H243157   4.721   3.088  17.028  1.7047  0.2071  1.7607
 7248TIP3   OH243158   6.342   4.066  16.284 -0.0282  0.0026  0.0317
 7248TIP3    H143159   6.290   4.092  16.208  1.1947  2.0028 -0.1415
 7248TIP3    H243160   6.304   4.113  16.357 -0.6560 -1.2614  0.5413
 7249TIP3   OH243161   4.157   0.813  14.281  0.0875  0.6789 -0.3000
 7249TIP3    H143162   4.213   0.844  14.210  0.1043 -0.2910 -0.7314
 7249TIP3    H243163   4.218   0.777  14.346  0.0395  0.9095 -0.1290
 7250TIP3   OH243164   3.228   6.000  11.383  0.0741  0.0753 -0.5237
 7250TIP3    H143165   3.278   5.947  11.321 -0.9166 -1.8683  0.2938
 7250TIP3    H243166   3.295   6.047  11.434  0.8933  2.2007 -3.4086
 7251TIP3   OH243167   2.817   1.371  12.026  0.0268 -0.8001  0.2859
 7251TIP3    H143168   2.728   1.396  12.051 -0.2815 -0.9449 -0.6637
 7251TIP3    H243169   2.841   1.303  12.088 -0.8255 -1.3180  0.0479
 7252TIP3   OH243170   5.896   0.175   3.870 -0.1520 -0.2219  0.0568
 7252TIP3    H143171   5.928   0.240   3.933  1.0065 -1.6995  1.0130
 7252TIP3    H243172   5.966   0.167   3.805  0.1098 -1.1803  0.4461
 7253TIP3   OH243173   2.757   2.984   2.922 -0.1206  0.2105  0.2674
 7253TIP3    H143174   2.670   2.979   2.962 -1.3804 -0.0529 -2.3917
 7253TIP3    H243175   2.773   2.896   2.888  1.3672  0.1605  1.0644
 7254TIP3   OH243176   1.498   3.874   5.899  0.4136  0.6236 -0.4729
 7254TIP3    H143177   1.544   3.807   5.950  0.2512  0.5131 -0.4731
 7254TIP3    H243178   1.417   3.890   5.948 -1.0335 -1.4324 -2.1213
 7255TIP3   OH243179   2.984   5.543  11.320  0.6577  0.0938  0.0420
 7255TIP3    H143180   3.006   5.633  11.294  1.4360 -0.0281  0.2739
 7255TIP3    H243181   2.972   5.496  11.238  0.1194  0.4410 -0.0801
 7256TIP3   OH243182   3.906   4.274   0.770 -0.0143  0.0555  0.5952
 7256TIP3    H143183   3.863   4.326   0.839 -0.4210 -0.9111  1.0800
 7256TIP3    H243184   3.908   4.185   0.805 -1.9833 -0.8370 -1.4217
 7257TIP3   OH243185   3.974   0.717  14.786 -0.3834  0.1134 -0.5311
 7257TIP3    H143186   3.927   0.794  14.753 -1.0985 -0.3686 -0.6677
 7257TIP3    H243187   4.048   0.706  14.727 -1.3417 -0.4132 -1.6599
 7258TIP3   OH243188   3.437   5.005  16.757 -1.0920 -0.5265  0.1385
 7258TIP3    H143189   3.364   4.971  16.705 -0.6343 -0.1685 -0.7478
 7258TIP3    H243190   3.401   5.013  16.846 -1.9246 -0.9942 -0.1499
 7259TIP3   OH243191   2.047   1.109   4.363  0.2635 -0.0769  0.2256
 7259TIP3    H143192   1.957   1.110   4.395  0.0204  2.1086 -0.4567
 7259TIP3    H243193   2.039   1.081   4.272  0.0469  1.9539 -0.4025
 7260TIP3   OH243194   6.662   4.019   1.023  0.1921 -0.1088 -0.6555
 7260TIP3    H143195   6.719   3.987   1.093 -0.4486  0.9899  0.3770
 7260TIP3    H243196   6.628   3.940   0.982  1.0116 -0.7648 -0.0983
 7261TIP3   OH243197   5.118   0.612   3.190 -0.1663  0.1376  0.7081
 7261TIP3    H143198   5.131   0.584   3.099  1.0791  0.3577  0.8147
 7261TIP3    H243199   5.024   0.625   3.197 -0.0205  2.6417 -1.3083
 7262TIP3   OH243200   6.779   6.302   3.893  0.3774  0.0301  0.5069
 7262TIP3    H143201   6.861   6.308   3.942  0.7103 -0.1429 -0.0269
 7262TIP3    H243202   6.805   6.286   3.803 -0.1680  2.5760 -0.1526
 7263TIP3   OH243203   4.133   6.259   2.982 -0.3658  0.2688 -0.1509
 7263TIP3    H143204   4.171   6.341   3.016  2.7185  0.2362 -3.1123
 7263TIP3    H243205   4.200   6.193   3.000 -1.0584 -0.7761 -1.3520
 7264TIP3   OH243206   5.009   6.304  16.498  0.1251  0.3940 -0.4353
 7264TIP3    H143207   5.035   6.215  16.523 -1.0971 -0.4271 -1.9975
 7264TIP3    H243208   4.989   6.347  16.580  3.0670  0.0022  0.5527
 7265TIP3   OH243209   0.870   1.343   6.512  0.0678 -0.1891  0.3014
 7265TIP3    H143210   0.920   1.299   6.581 -1.2644 -3.3738 -0.6470
 7265TIP3    H243211   0.908   1.311   6.431  0.1914  1.8274 -0.4629
 7266TIP3   OH243212   2.570   6.038  17.196  0.1928  0.5067  0.3917
 7266TIP3    H143213   2.478   6.018  17.180 -0.4010  1.0323  2.8840
 7266TIP3    H243214   2.611   5.952  17.209  0.3676  0.1808 -2.0222
 7267TIP3   OH243215   3.468   4.178   4.794  0.3232  0.3235  0.5527
 7267TIP3    H143216   3.534   4.247   4.789  3.0318 -2.0124  2.7068
 7267TIP3    H243217   3.508   4.103   4.750 -0.9227 -1.1400  1.8679
 7268TIP3   OH243218   3.326   5.238   4.774 -0.0615 -0.4816 -1.0439
 7268TIP3    H143219   3.392   5.307   4.767 -1.4513  0.8217 -1.6353
 7268TIP3    H243220   3.289   5.249   4.862  3.3637 -3.9064  0.9479
 7269TIP3   OH243221   3.821   6.538  12.272  0.4588 -0.0788 -0.1298
 7269TIP3    H143222   3.820   6.528  12.176 -0.9596 -1.3173 -0.0147
 7269TIP3    H243223   3.908   6.509  12.298  0.3478 -1.1982 -0.9258
 7270TIP3   OH243224   5.645   3.715   2.284  0.6119  0.5801 -0.7580
 7270TIP3    H143225   5.564   3.749   2.322 -1.1683 -0.2558 -3.6771
 7270TIP3    H243226   5.689   3.792   2.248  0.9565  0.9805  0.4946
 7271TIP3   OH243227   0.151   5.772  16.458 -0.1439 -0.0840  0.5349
 7271TIP3    H143228   0.210   5.847  16.464 -1.5863  1.0873  0.5108
 7271TIP3    H243229   0.063   5.811  16.454 -0.8223 -1.7130 -1.0831
 7272TIP3   OH243230   3.903   3.805  12.177  1.0967 -0.3388 -0.7708
 7272TIP3    H143231   3.838   3.804  12.107  1.6093 -0.6302 -1.2533
 7272TIP3    H243232   3.976   3.856  12.141  1.4575 -0.6874 -0.5436
 7273TIP3   OH243233   4.150   5.135  13.498  0.0769  0.1047  0.0777
 7273TIP3    H143234   4.064   5.104  13.470 -0.6500 -0.0484  2.3546
 7273TIP3    H243235   4.192   5.166  13.418 -2.6104  1.4557 -0.8615
 7274TIP3   OH243236   0.026   4.049   2.594 -0.0898 -0.3389  0.0199
 7274TIP3    H143237   0.113   4.083   2.617  0.0677 -1.5313  1.2739
 7274TIP3    H243238   0.016   4.069   2.501  0.3479  2.3309  0.5238
 7275TIP3   OH243239   4.447   3.166  11.569 -0.4495  0.4578  0.1557
 7275TIP3    H143240   4.467   3.167  11.663 -0.2294  1.5619  0.1039
 7275TIP3    H243241   4.354   3.142  11.566 -0.1307 -0.8586  0.5840
 7276TIP3   OH243242   0.102   0.398  12.821  0.3094  0.5737 -0.3898
 7276TIP3    H143243   0.090   0.401  12.726  0.2408 -2.7095 -0.5362
 7276TIP3    H243244   0.187   0.356  12.834 -0.0738  0.1789  0.9938
 7277TIP3   OH243245   6.459   0.016   2.635 -0.0503 -0.0801 -0.5709
 7277TIP3    H143246   6.480  -0.033   2.556 -0.3270 -0.8808 -0.1652
 7277TIP3    H243247   6.459  -0.051   2.705 -2.6699  0.0763 -0.3652
 7278TIP3   OH243248   2.359   2.855   4.483  0.1550  0.0846  0.2208
 7278TIP3    H143249   2.370   2.808   4.565  3.3085 -0.0148 -0.2070
 7278TIP3    H243250   2.361   2.948   4.508 -0.8736  0.0500  0.4597
 7279TIP3   OH243251   0.083   0.289  14.501 -0.0408  1.2233  0.1709
 7279TIP3    H143252   0.167   0.306  14.543  0.6085  0.8112 -0.9363
 7279TIP3    H243253   0.054   0.375  14.471  0.6741  1.1727 -0.6929
 7280TIP3   OH243254   4.306   3.982   3.684  0.2065  0.3361  0.0291
 7280TIP3    H143255   4.289   3.890   3.706 -0.3459  0.3757 -0.2300
 7280TIP3    H243256   4.394   3.981   3.646 -1.2489 -0.7019 -3.5361
 7281TIP3   OH243257   2.799   4.050  15.756 -0.2202  0.4717 -0.1461
 7281TIP3    H143258   2.863   3.997  15.707 -1.3370  0.3638 -1.5138
 7281TIP3    H243259   2.838   4.138  15.758  0.2682  0.2656 -0.4275
 7282TIP3   OH243260   4.414   3.267   2.019 -0.0341  0.4897 -0.1592
 7282TIP3    H143261   4.372   3.335   1.965  1.0387  0.4750 -1.0343
 7282TIP3    H243262   4.488   3.237   1.966 -0.2566 -1.0749  0.4062
 7283TIP3   OH243263   1.807   3.402   4.693 -0.5679  0.1232  0.2557
 7283TIP3    H143264   1.823   3.466   4.623 -0.3737 -1.3640 -1.0857
 7283TIP3    H243265   1.868   3.330   4.675  0.0005  0.0159  2.3857
 7284TIP3   OH243266   0.468   5.807   3.903  0.0742  0.3417  0.1919
 7284TIP3    H143267   0.500   5.751   3.974  1.7810  0.3740 -0.5090
 7284TIP3    H243268   0.460   5.748   3.828  2.0648  1.0352 -0.6029
 7285TIP3   OH243269   4.629   0.273   4.842 -0.3213 -0.4362 -0.1120
 7285TIP3    H143270   4.580   0.241   4.767  1.1215  0.5533 -1.4998
 7285TIP3    H243271   4.688   0.202   4.865  0.0077 -0.3275 -0.6163
 7286TIP3   OH243272   4.338   0.711  15.663 -0.1070  0.2141  0.4990
 7286TIP3    H143273   4.398   0.785  15.666 -0.4236  0.5303 -0.8375
 7286TIP3    H243274   4.366   0.655  15.736  0.7998  1.1255  0.8626
 7287TIP3   OH243275   6.078   4.031  10.639  0.3906 -0.9767  0.2811
 7287TIP3    H143276   6.005   3.997  10.587 -0.5297 -2.1777  2.2970
 7287TIP3    H243277   6.045   4.113  10.676 -0.0420 -1.6287  1.3677
 7288TIP3   OH243278   6.588   2.001   1.977  0.0847  0.4584 -0.8775
 7288TIP3    H143279   6.557   2.091   1.985  0.9681  0.6844  0.2064
 7288TIP3    H243280   6.681   2.006   1.999 -0.5539 -1.2162  2.5691
 7289TIP3   OH243281   0.658   5.922   4.584 -0.1670 -0.2957  0.2034
 7289TIP3    H143282   0.706   5.840   4.567  2.6599  0.7602  2.6060
 7289TIP3    H243283   0.673   5.939   4.677  0.4464  3.6353 -0.5387
 7290TIP3   OH243284   3.721   1.955   4.230  0.5174  0.4046 -0.0014
 7290TIP3    H143285   3.751   1.954   4.139  0.1075  0.7051 -0.1372
 7290TIP3    H243286   3.674   1.873   4.241  4.2731 -1.7130  1.1720
 7291TIP3   OH243287   4.009   1.622  11.474  0.6277 -0.4028  0.4415
 7291TIP3    H143288   4.013   1.639  11.568 -0.6550 -0.7551  0.5686
 7291TIP3    H243289   3.992   1.707  11.434 -1.8107 -0.6903  0.7757
 7292TIP3   OH243290   6.661   6.310   1.576 -0.2232 -0.4591 -0.0081
 7292TIP3    H143291   6.612   6.228   1.567  1.1161 -1.3523  0.6471
 7292TIP3    H243292   6.657   6.329   1.670  1.9690 -1.3653  0.2921
 7293TIP3   OH243293   1.663   4.704  12.916  0.2583 -0.2377  0.0891
 7293TIP3    H143294   1.590   4.659  12.958  0.2392  3.5265  4.4575
 7293TIP3    H243295   1.741   4.662  12.953  0.2581  0.6195  1.0698
 7294TIP3   OH243296   2.539   3.501  14.830  0.0694  0.5809 -0.0347
 7294TIP3    H143297   2.517   3.552  14.752  0.1811  1.2783  0.3773
 7294TIP3    H243298   2.631   3.479  14.818 -0.0786  0.1465 -0.3945
 7295TIP3   OH243299   5.270   2.552   3.698 -0.0321 -0.2138  0.2399
 7295TIP3    H143300   5.180   2.545   3.669 -0.6196  3.4853  0.8996
 7295TIP3    H243301   5.321   2.565   3.618 -0.5260  0.9325  0.0971
 7296TIP3   OH243302   5.231   0.782  14.533 -0.3216 -0.0273 -0.3380
 7296TIP3    H143303   5.142   0.783  14.496 -1.2628  1.7407  1.8406
 7296TIP3    H243304   5.249   0.690  14.551 -0.8622 -0.6405 -2.7276
 7297TIP3   OH243305   6.142   3.212  14.724 -0.6080 -0.2103 -0.5146
 7297TIP3    H143306   6.165   3.167  14.805 -0.4701 -2.2471 -1.6257
 7297TIP3    H243307   6.047   3.225  14.730 -0.8357 -1.6960 -0.6481
 7298TIP3   OH243308   0.163   4.042   0.238 -0.1436  0.0303 -0.3280
 7298TIP3    H143309   0.249   4.084   0.235 -1.5621  3.2397  1.0351
 7298TIP3    H243310   0.106   4.101   0.190 -1.6004 -2.1208 -1.2990
 7299TIP3   OH243311   2.772   6.317   4.321 -0.4189  0.1394  0.5106
 7299TIP3    H143312   2.760   6.412   4.311  2.2816  0.7911  2.6169
 7299TIP3    H243313   2.738   6.298   4.409 -1.4634 -0.9669 -0.1265
 7300TIP3   OH243314   0.723   2.727  15.238  0.3422  0.7399 -0.7059
 7300TIP3    H143315   0.747   2.683  15.319 -1.1847 -1.0244 -1.1888
 7300TIP3    H243316   0.702   2.817  15.265  1.6742  0.6874  0.5558
 7301TIP3   OH243317   1.593   1.976   0.215 -0.1294 -0.2993  0.0194
 7301TIP3    H143318   1.611   2.015   0.129  0.5445 -0.6753 -0.0089
 7301TIP3    H243319   1.507   1.935   0.205  0.3701 -1.1718 -0.7612
 7302TIP3   OH243320   5.829   3.416   1.856 -0.4603  0.3817  0.4983
 7302TIP3    H143321   5.790   3.476   1.919 -0.0216  1.0694  0.1226
 7302TIP3    H243322   5.774   3.338   1.860 -1.0987  0.8463  0.9082
 7303TIP3   OH243323   1.443   4.824  16.915  0.0868 -0.0381  0.7867
 7303TIP3    H143324   1.386   4.755  16.948  0.2333 -0.2483  0.5973
 7303TIP3    H243325   1.483   4.787  16.836  0.7124 -0.0037  1.0871
 7304TIP3   OH243326   2.256   6.248   5.018  0.2623 -0.3324 -0.2804
 7304TIP3    H143327   2.163   6.252   5.042  0.2578 -1.3326 -0.1302
 7304TIP3    H243328   2.302   6.269   5.100  0.1682  0.5115 -0.4380
 7305TIP3   OH243329   0.162   1.645  14.185  0.1847  0.4014  0.2322
 7305TIP3    H143330   0.228   1.709  14.211 -0.2048  1.4487 -1.2761
 7305TIP3    H243331   0.138   1.670  14.096 -2.6799  0.4145  0.9484
 7306TIP3   OH243332   6.275   3.134  11.966 -0.1147 -0.3233 -0.2871
 7306TIP3    H143333   6.332   3.083  11.909 -0.7526 -0.8564 -0.4498
 7306TIP3    H243334   6.335   3.180  12.025  0.4884 -0.7271 -0.5825
 7307TIP3   OH243335   0.170   5.247  11.879 -0.1736  0.0632  0.7658
 7307TIP3    H143336   0.188   5.333  11.841  1.6509 -0.6864 -0.1405
 7307TIP3    H243337   0.235   5.238  11.948  0.0469 -0.8448  0.4415
 7308TIP3   OH243338   2.449   1.154   5.819  0.2442 -0.2754 -0.1294
 7308TIP3    H143339   2.511   1.125   5.752  1.9430  1.6207  0.5487
 7308TIP3    H243340   2.410   1.073   5.852  2.9402 -1.5956 -0.0300
 7309TIP3   OH243341   1.904   2.945   3.618  0.5788 -0.3381 -0.1297
 7309TIP3    H143342   1.881   2.853   3.629 -0.3203  0.0486  1.5298
 7309TIP3    H243343   1.997   2.949   3.637  0.4142 -0.7708  0.8082
 7310TIP3   OH243344   1.583   6.758  14.052 -0.1696  0.2877 -0.1177
 7310TIP3    H143345   1.522   6.826  14.023  0.4308  0.0683 -1.9830
 7310TIP3    H243346   1.663   6.806  14.075  0.4229  0.1862 -1.9163
 7311TIP3   OH243347   3.158   0.745   5.200 -0.5297 -0.1008  0.5319
 7311TIP3    H143348   3.215   0.723   5.274  0.1501 -2.1020 -0.5387
 7311TIP3    H243349   3.217   0.745   5.125 -1.0986  2.4909  0.0272
 7312TIP3   OH243350   5.297   2.197  13.210  0.3822 -0.3134 -0.4317
 7312TIP3    H143351   5.367   2.148  13.252 -1.6252 -1.9129  1.1187
 7312TIP3    H243352   5.324   2.204  13.118  3.1201  0.1622  0.3770
 7313TIP3   OH243353   2.634   2.017  15.640  0.2699 -0.0329  0.0352
 7313TIP3    H143354   2.683   1.942  15.607  0.2681 -0.8887  1.9218
 7313TIP3    H243355   2.655   2.089  15.580  1.2080 -1.2338 -1.0818
 7314TIP3   OH243356   0.004   2.505  15.334  0.0265 -0.1622 -0.5294
 7314TIP3    H143357   0.008   2.474  15.243 -0.4714 -0.2552 -0.5182
 7314TIP3    H243358   0.078   2.461  15.377  1.0505  0.8702 -1.1920
 7315TIP3   OH243359   3.953   3.733   2.130  0.0060  0.4772 -0.0722
 7315TIP3    H143360   3.967   3.653   2.079 -0.1223  0.5979 -0.2935
 7315TIP3    H243361   3.906   3.702   2.208  0.6921  0.2119  0.2413
 7316TIP3   OH243362   5.671   2.250  14.038 -0.2191 -0.1543 -0.0067
 7316TIP3    H143363   5.659   2.250  14.133 -2.6331 -2.7956 -0.2508
 7316TIP3    H243364   5.584   2.269  14.004  0.2238 -1.1534 -1.7210
 7317TIP3   OH243365   1.435   3.163  16.844 -0.7967  0.2548 -0.5142
 7317TIP3    H143366   1.361   3.164  16.906  0.7096 -1.6552  1.3808
 7317TIP3    H243367   1.418   3.087  16.789  0.8002 -1.5181  1.3348
 7318TIP3   OH243368   5.693   4.687   4.096 -0.0844  0.2588 -0.4143
 7318TIP3    H143369   5.635   4.616   4.123  1.0960 -1.0423 -1.2678
 7318TIP3    H243370   5.668   4.705   4.005  0.4269  0.1270 -0.5790
 7319TIP3   OH243371   2.954   1.797   5.944  0.1132  0.0702  0.0040
 7319TIP3    H143372   2.907   1.745   6.009 -1.8228  0.4939 -1.0305
 7319TIP3    H243373   2.958   1.885   5.983  3.0413 -0.6898  1.5764
 7320TIP3   OH243374   5.335   2.426   0.487 -0.5295  0.1518 -0.6283
 7320TIP3    H143375   5.408   2.370   0.514  0.3667  1.2263 -0.7281
 7320TIP3    H243376   5.259   2.369   0.487  0.5975 -1.4183 -2.1188
 7321TIP3   OH243377   6.394   3.631   2.729  0.1087  0.5716  0.0278
 7321TIP3    H143378   6.461   3.697   2.708  1.0344 -0.4578 -0.3166
 7321TIP3    H243379   6.439   3.569   2.787 -0.5686 -0.0778 -0.1338
 7322TIP3   OH243380   0.232   1.659  13.270 -0.3555  0.2695 -0.5603
 7322TIP3    H143381   0.162   1.659  13.335  1.5207 -1.5216  1.5875
 7322TIP3    H243382   0.296   1.721  13.305  1.9105 -2.7061  0.8457
 7323TIP3   OH243383   5.801   6.706  16.078  0.2699 -0.5680  0.3880
 7323TIP3    H143384   5.823   6.796  16.101 -0.8348  0.1298 -1.2466
 7323TIP3    H243385   5.868   6.679  16.016 -0.7708 -0.0122 -1.0140
 7324TIP3   OH243386   4.670   6.505   1.135 -0.2998  0.5961 -0.0497
 7324TIP3    H143387   4.694   6.465   1.052  0.7659 -0.2085  0.6180
 7324TIP3    H243388   4.583   6.471   1.154  0.0325 -0.3346 -0.1614
 7325TIP3   OH243389   3.942   5.399  14.588  0.2413 -0.1119 -0.4072
 7325TIP3    H143390   3.987   5.481  14.565  0.6654  0.5985  2.7144
 7325TIP3    H243391   3.856   5.427  14.619  0.0806 -0.9172 -0.1273
 7326TIP3   OH243392   5.913   4.733  15.555 -0.1980  0.0040 -0.9583
 7326TIP3    H143393   5.990   4.784  15.532  0.8868 -2.3428 -2.6919
 7326TIP3    H243394   5.946   4.647  15.578 -2.4577 -2.0801 -4.9314
 7327TIP3   OH243395   6.024   1.031  11.902 -0.2965  0.4351  0.2627
 7327TIP3    H143396   5.948   1.045  11.846  0.3800 -0.2937 -0.8744
 7327TIP3    H243397   6.011   0.943  11.938  1.4446 -0.9246 -2.3010
 7328TIP3   OH243398   6.495   5.969   2.594 -0.2943 -0.6395 -0.4002
 7328TIP3    H143399   6.522   5.951   2.504  1.3332 -0.3573  0.0142
 7328TIP3    H243400   6.459   6.058   2.591  0.9772 -0.1230 -0.5272
 7329TIP3   OH243401   2.843   4.470  11.778 -0.4859 -0.4922  0.3593
 7329TIP3    H143402   2.886   4.550  11.809  0.8140 -1.1661  0.3389
 7329TIP3    H243403   2.787   4.499  11.706  3.0149 -0.0943 -2.3835
 7330TIP3   OH243404   0.593   0.210  11.491 -0.5774  0.1481  0.3313
 7330TIP3    H143405   0.680   0.244  11.512  0.1104 -1.4855  0.1943
 7330TIP3    H243406   0.533   0.269  11.537  0.6561  0.3480  1.7308
 7331TIP3   OH243407   6.659   3.357  15.622 -0.1842 -0.2982  0.1485
 7331TIP3    H143408   6.627   3.269  15.640  1.8221 -1.5063 -1.9353
 7331TIP3    H243409   6.728   3.371  15.688  1.0281 -1.1842 -0.9158
 7332TIP3   OH243410   1.654   5.532  14.343 -0.2030  0.0933 -0.3842
 7332TIP3    H143411   1.568   5.568  14.364 -0.6980 -2.3543  2.1930
 7332TIP3    H243412   1.641   5.486  14.260 -0.1937  3.4889 -2.3414
 7333TIP3   OH243413   2.199   3.092  16.452  0.0407  0.7421 -0.0946
 7333TIP3    H143414   2.194   3.021  16.516  3.0471 -0.8173 -1.5153
 7333TIP3    H243415   2.108   3.121  16.443 -0.9751 -1.5130  2.0555
 7334TIP3   OH243416   2.927   3.445   1.221  0.3682  0.0288  0.3030
 7334TIP3    H143417   2.993   3.390   1.181  0.5110 -0.5789  1.3511
 7334TIP3    H243418   2.885   3.389   1.286 -0.9674  0.4960 -0.1320
 7335TIP3   OH243419   3.494   4.716  14.497 -0.1678  0.5458  0.1056
 7335TIP3    H143420   3.523   4.625  14.502  0.3322  0.6645 -0.6363
 7335TIP3    H243421   3.573   4.767  14.514 -0.0635  0.8592 -1.2781
 7336TIP3   OH243422   4.367   2.554  16.690  0.0025  0.4670  0.3953
 7336TIP3    H143423   4.455   2.590  16.678  0.6992 -1.4916 -0.5688
 7336TIP3    H243424   4.360   2.538  16.784  0.7396  0.5139  0.4671
 7337TIP3   OH243425   3.779   4.901   4.806  0.0871  0.5784 -0.5455
 7337TIP3    H143426   3.793   4.928   4.715  0.4596 -0.6057 -0.8581
 7337TIP3    H243427   3.831   4.962   4.858 -0.2419  1.3477 -1.1194
 7338TIP3   OH243428   4.388   0.646   5.097  0.3430 -0.6814  0.4332
 7338TIP3    H143429   4.325   0.576   5.115 -0.2332 -0.4840 -0.8157
 7338TIP3    H243430   4.350   0.696   5.025  0.8635  0.7821  1.1445
 7339TIP3   OH243431   4.779   0.545   3.408  0.3252  0.0135  0.3473
 7339TIP3    H143432   4.802   0.545   3.314 -0.7283 -0.5536  0.0842
 7339TIP3    H243433   4.811   0.460   3.439  1.0413  0.3711  0.6005
 7340TIP3   OH243434   4.146   0.665  12.639  0.0616  0.8286 -0.0881
 7340TIP3    H143435   4.087   0.662  12.563  1.1179  2.2627 -0.9864
 7340TIP3    H243436   4.187   0.579  12.640 -0.1053  0.7251 -1.0469
 7341TIP3   OH243437   4.583   3.040  12.805  0.3551  0.6288 -0.2229
 7341TIP3    H143438   4.511   3.042  12.741  2.6237  0.9389 -2.8710
 7341TIP3    H243439   4.543   3.071  12.887 -3.2410 -2.1643 -0.8029
 7342TIP3   OH243440   0.218   5.464   5.071 -0.5880  0.8889 -0.2789
 7342TIP3    H143441   0.170   5.483   5.152  0.3005  0.5018  0.3499
 7342TIP3    H243442   0.180   5.523   5.006 -1.6146  0.8947  0.3097
 7343TIP3   OH243443   6.063   2.162   1.200 -0.3865 -0.4284 -0.0155
 7343TIP3    H143444   6.145   2.165   1.249 -0.7574  0.1432  0.5630
 7343TIP3    H243445   5.995   2.179   1.265 -0.7954  1.5384 -0.9415
 7344TIP3   OH243446   1.236   6.178   5.576  0.2501  0.3279 -0.4107
 7344TIP3    H143447   1.225   6.203   5.484  0.7429  2.0751 -0.0209
 7344TIP3    H243448   1.306   6.113   5.575 -0.7779 -0.7815 -1.4306
 7345TIP3   OH243449   0.608   0.926   4.981  0.1075  0.4723  0.1676
 7345TIP3    H143450   0.531   0.879   5.012  0.4601  0.4798  1.0800
 7345TIP3    H243451   0.682   0.879   5.020  0.5259  0.9733 -0.0148
 7346TIP3   OH243452   6.133   5.151   2.806  0.3442 -0.7792 -0.1999
 7346TIP3    H143453   6.102   5.233   2.845  0.2226 -1.0043  0.1798
 7346TIP3    H243454   6.142   5.091   2.880 -0.6087 -1.4351 -0.6047
 7347TIP3   OH243455   2.742   0.875  10.733  0.0815  0.0892 -0.3729
 7347TIP3    H143456   2.834   0.901  10.728  0.0619 -0.1677 -2.6206
 7347TIP3    H243457   2.697   0.931  10.670 -1.4162  0.5791  1.0824
 7348TIP3   OH243458   2.395   1.767  12.025 -0.1158  0.4141  0.4913
 7348TIP3    H143459   2.483   1.730  12.025 -0.1489  0.3392  1.1297
 7348TIP3    H243460   2.383   1.798  11.935 -1.0414 -3.3253 -0.7744
 7349TIP3   OH243461   4.728   3.425   2.740  0.3139 -0.9214 -0.7010
 7349TIP3    H143462   4.792   3.355   2.752 -0.2133 -1.2986 -0.0460
 7349TIP3    H243463   4.643   3.384   2.761  0.2402  0.4796  1.8435
 7350TIP3   OH243464   6.308   1.674  10.571 -0.1235  0.6470 -0.5433
 7350TIP3    H143465   6.275   1.650  10.484  0.4468 -1.3583 -0.2389
 7350TIP3    H243466   6.322   1.590  10.614  3.0337  1.5230  0.2158
 7351TIP3   OH243467   4.975   5.677   1.458  0.5733  0.5885 -0.4865
 7351TIP3    H143468   4.987   5.600   1.402 -0.9498  0.2586 -0.3843
 7351TIP3    H243469   4.898   5.656   1.511  1.3638  1.3381  0.9836
 7352TIP3   OH243470   6.608   6.660  15.924 -0.0721  0.1569 -0.6091
 7352TIP3    H143471   6.696   6.645  15.957 -0.0469 -1.8962 -1.5259
 7352TIP3    H243472   6.610   6.627  15.834 -2.2656 -1.7825 -0.0282
 7353TIP3   OH243473   6.174   2.943   5.657  0.7369  0.2813 -0.0480
 7353TIP3    H143474   6.219   2.978   5.733  0.8003  0.0299  0.0301
 7353TIP3    H243475   6.101   2.892   5.693  0.6309  0.3526 -0.1607
 7354TIP3   OH243476   0.390   0.950  16.180 -0.5713 -0.0647  0.8638
 7354TIP3    H143477   0.389   1.025  16.239 -0.4911 -1.1544  2.2883
 7354TIP3    H243478   0.309   0.902  16.200 -1.7284  0.7689 -1.5614
 7355TIP3   OH243479   0.539   6.760   2.054 -0.3155 -0.1250 -0.1968
 7355TIP3    H143480   0.448   6.787   2.063 -0.2871 -0.4248  1.0994
 7355TIP3    H243481   0.579   6.779   2.139  0.5108 -1.1567 -0.3316
 7356TIP3   OH243482   4.888   6.781  15.471  0.2821 -0.2017 -0.0712
 7356TIP3    H143483   4.840   6.802  15.391  2.6120  0.1785 -1.3880
 7356TIP3    H243484   4.910   6.688  15.463  0.5553 -0.1548  0.1182
 7357TIP3   OH243485   0.869   0.713   0.982  0.9054 -0.3108 -0.1487
 7357TIP3    H143486   0.905   0.655   1.049 -0.3678  0.7835  1.5311
 7357TIP3    H243487   0.797   0.664   0.943  0.2335 -0.1292  0.8372
 7358TIP3   OH243488   4.817   2.599  10.721  0.5964  0.2118 -0.2875
 7358TIP3    H143489   4.778   2.646  10.648 -2.1995  2.4354  2.4652
 7358TIP3    H243490   4.867   2.665  10.769 -0.4191 -0.3644  1.6328
 7359TIP3   OH243491   1.309   3.261  15.335  0.1914 -0.3049  0.3139
 7359TIP3    H143492   1.341   3.187  15.283 -0.6984 -0.0597 -0.5990
 7359TIP3    H243493   1.358   3.256  15.417  4.0403  1.2714 -1.7924
 7360TIP3   OH243494   6.539   2.590   3.485  0.3610  0.4937  0.2365
 7360TIP3    H143495   6.470   2.631   3.537 -0.4099  1.7122 -1.6872
 7360TIP3    H243496   6.494   2.525   3.431  0.6294  1.4793 -1.2281
 7361TIP3   OH243497   0.531   4.676  15.237 -0.3455 -0.5161 -0.0612
 7361TIP3    H143498   0.466   4.745  15.256 -0.4457 -0.3363 -1.0304
 7361TIP3    H243499   0.608   4.701  15.289 -0.1646  0.6768 -0.8722
 7362TIP3   OH243500   0.149   3.031   0.712  0.0391 -0.5393 -0.2958
 7362TIP3    H143501   0.069   3.014   0.662  0.0643  0.7553 -0.8249
 7362TIP3    H243502   0.215   3.051   0.645 -0.2276  2.4382  0.2412
 7363TIP3   OH243503   4.259   5.899   2.215  0.5219  0.0212 -0.0540
 7363TIP3    H143504   4.195   5.859   2.274  0.9004 -1.6995 -0.7853
 7363TIP3    H243505   4.210   5.919   2.135  0.5854  0.0017 -0.0981
 7364TIP3   OH243506   5.444   5.573  11.398  0.2806 -0.9685 -0.2091
 7364TIP3    H143507   5.349   5.566  11.390  0.4227 -1.0949 -1.7988
 7364TIP3    H243508   5.457   5.630  11.474 -1.0777  0.8710 -1.3321
 7365TIP3   OH243509   1.203   2.510  16.874 -0.3183  0.5454  0.4230
 7365TIP3    H143510   1.132   2.570  16.850 -1.2067 -1.0458 -1.0668
 7365TIP3    H243511   1.265   2.516  16.801 -0.6525 -0.6833  0.0263
 7366TIP3   OH243512   2.798   6.385   5.797  0.1865  0.2790 -0.4324
 7366TIP3    H143513   2.840   6.302   5.777  0.3890  0.0838  0.7559
 7366TIP3    H243514   2.869   6.448   5.801 -0.0529  0.6873 -2.1502
 7367TIP3   OH243515   0.240   0.625   4.552  0.3477  0.1266  0.2529
 7367TIP3    H143516   0.323   0.661   4.522  1.6829 -2.0259  1.2191
 7367TIP3    H243517   0.224   0.667   4.636 -0.6890  2.1892 -0.9533
 7368TIP3   OH243518   4.127   3.100   1.482  0.4584  0.2805 -0.1521
 7368TIP3    H143519   4.158   3.010   1.492 -0.5542 -0.2594 -1.7541
 7368TIP3    H243520   4.159   3.145   1.561  0.9637 -1.4701  0.6682
 7369TIP3   OH243521   3.585   6.373  13.394 -0.1295  0.0519 -0.1463
 7369TIP3    H143522   3.541   6.450  13.429  1.7213  1.6761 -1.2993
 7369TIP3    H243523   3.623   6.331  13.471 -1.6195 -0.0525  0.5583
 7370TIP3   OH243524   6.418   4.240  14.765  0.1901  0.1287  0.1436
 7370TIP3    H143525   6.447   4.154  14.796 -0.7794 -0.5836 -0.8656
 7370TIP3    H243526   6.478   4.302  14.806  0.6821 -1.0026  1.1662
 7371TIP3   OH243527   5.193   5.874   0.420 -0.2142  0.3705 -0.2589
 7371TIP3    H143528   5.169   5.856   0.511  1.2866 -0.1641  0.0533
 7371TIP3    H243529   5.110   5.882   0.374 -1.0106  1.7300  1.3734
 7372TIP3   OH243530   0.349   2.421   2.577 -0.4505 -0.3143  0.6791
 7372TIP3    H143531   0.347   2.517   2.576  0.0101 -0.3016 -0.6944
 7372TIP3    H243532   0.382   2.398   2.663  2.7486  0.8623 -0.1614
 7373TIP3   OH243533   1.337   6.123  15.524  0.0780 -0.2243  0.3569
 7373TIP3    H143534   1.326   6.190  15.592  3.0072 -0.3247  1.0170
 7373TIP3    H243535   1.267   6.139  15.462 -0.3797  2.2955  1.4766
 7374TIP3   OH243536   6.312   5.161  12.631 -0.5656 -0.1740  0.2348
 7374TIP3    H143537   6.324   5.198  12.544 -3.1638  1.1032  0.4042
 7374TIP3    H243538   6.295   5.068  12.615 -1.6202  0.1620 -0.6767
 7375TIP3   OH243539   5.623   2.581   1.708  0.0858 -0.1395 -0.0539
 7375TIP3    H143540   5.613   2.495   1.749  0.6536 -0.6418 -0.9494
 7375TIP3    H243541   5.684   2.628   1.765 -3.1225  1.0694  2.5517
 7376TIP3   OH243542   5.188   4.829   5.184  0.1832  0.1502 -0.0550
 7376TIP3    H143543   5.117   4.861   5.240  0.8034  3.0363 -0.8454
 7376TIP3    H243544   5.150   4.827   5.096  0.8851  1.1399 -0.3891
 7377TIP3   OH243545   5.495   4.552   3.227  0.5696  0.3761  0.0363
 7377TIP3    H143546   5.504   4.520   3.137  1.2149  2.5414 -0.7020
 7377TIP3    H243547   5.557   4.499   3.278 -0.1155 -1.1616 -0.6846
 7378TIP3   OH243548   1.763   3.512  14.795  0.0546  0.0245  0.3896
 7378TIP3    H143549   1.773   3.562  14.714  1.2326  2.4763  2.0018
 7378TIP3    H243550   1.672   3.481  14.792  0.1235 -0.0654 -1.9313
 7379TIP3   OH243551   4.942   3.699  12.897  0.0213  0.1952  0.5387
 7379TIP3    H143552   4.962   3.748  12.817 -2.9167 -1.3343 -1.2371
 7379TIP3    H243553   4.982   3.613  12.883 -1.5258 -0.4860  0.1001
 7380TIP3   OH243554   6.110   2.639   0.498  0.1644  0.0510 -0.0864
 7380TIP3    H143555   6.161   2.583   0.556  0.8533  0.3591 -0.3899
 7380TIP3    H243556   6.045   2.680   0.555 -1.7026 -2.6379 -0.2069
 7381TIP3   OH243557   0.263   1.438   5.473  0.0331 -0.0671  0.3297
 7381TIP3    H143558   0.263   1.498   5.399  0.1756 -1.1012 -0.5166
 7381TIP3    H243559   0.266   1.495   5.550  0.0246  1.0073 -0.4541
 7382TIP3   OH243560   3.093   0.519  11.922  0.5201 -0.1415  0.0581
 7382TIP3    H143561   3.089   0.441  11.978  1.8278  0.2129  0.6687
 7382TIP3    H243562   3.184   0.524  11.893  0.0050  0.0602 -1.5877
 7383TIP3   OH243563   0.783   6.622  16.511 -0.1475 -0.5055  0.0149
 7383TIP3    H143564   0.856   6.617  16.573  0.1546 -0.1731 -0.3168
 7383TIP3    H243565   0.824   6.616  16.425 -0.5233 -0.4135 -0.1688
 7384TIP3   OH243566   5.282   1.083   0.103 -0.0610 -0.2449 -0.3229
 7384TIP3    H143567   5.219   1.023   0.144 -0.6583  1.0004  0.6010
 7384TIP3    H243568   5.265   1.074   0.009 -2.1493  0.6288 -0.0537
 7385TIP3   OH243569   5.471   4.081   5.914  0.6938 -0.1473  1.4876
 7385TIP3    H143570   5.468   4.055   6.006 -0.1431  0.5728  1.6732
 7385TIP3    H243571   5.562   4.065   5.888  1.1015  0.2202  2.6171
 7386TIP3   OH243572   3.606   3.485   6.745  0.2938 -0.4276  0.2988
 7386TIP3    H143573   3.580   3.574   6.720 -0.1232 -0.3804  0.8943
 7386TIP3    H243574   3.533   3.430   6.717  0.5892 -0.6029 -0.1470
 7387TIP3   OH243575   0.968   6.708  13.062 -0.3144 -0.0217  0.5332
 7387TIP3    H143576   0.946   6.790  13.017  1.6678 -0.0963 -0.6629
 7387TIP3    H243577   1.018   6.658  12.997 -0.7494 -1.8237  1.5429
 7388TIP3   OH243578   3.623   6.222   2.242  0.4893  0.1238 -0.9412
 7388TIP3    H143579   3.543   6.275   2.242 -0.4164 -1.1838  1.7393
 7388TIP3    H243580   3.595   6.136   2.272  2.7749 -0.5308 -0.6178
 7389TIP3   OH243581   1.925   1.985   5.864  0.1130  0.6548  0.6076
 7389TIP3    H143582   1.942   1.973   5.957  1.5609  2.0329  0.5599
 7389TIP3    H243583   1.914   2.080   5.854 -0.0849  0.5124 -0.5995
 7390TIP3   OH243584   3.933   1.715   4.328  0.1702 -0.1864  0.1632
 7390TIP3    H143585   3.919   1.720   4.423 -1.7427  0.1534 -0.1193
 7390TIP3    H243586   3.974   1.798   4.306  0.4748 -0.1989  0.6691
 7391TIP3   OH243587   1.467   2.997  12.616  0.0098  0.1052 -0.5811
 7391TIP3    H143588   1.536   3.007  12.681  1.0771 -0.5030 -1.6038
 7391TIP3    H243589   1.387   2.984  12.668  1.1012 -2.1216  0.6356
 7392TIP3   OH243590   5.067   6.022  14.467  0.0252 -0.1775 -0.0429
 7392TIP3    H143591   5.113   5.943  14.496 -0.4600 -0.4829 -0.1000
 7392TIP3    H243592   5.118   6.094  14.504  0.5700 -0.5131 -0.1349
 7393TIP3   OH243593   3.637   5.308   5.120 -0.1565  0.1823 -0.1960
 7393TIP3    H143594   3.714   5.300   5.177 -0.2993  1.2190  0.1524
 7393TIP3    H243595   3.562   5.299   5.179 -0.3063 -0.3786 -0.4678
 7394TIP3   OH243596   6.429   4.900  15.424 -0.3515  0.3246  0.2628
 7394TIP3    H143597   6.525   4.896  15.420 -0.4001  0.4885 -1.3054
 7394TIP3    H243598   6.407   4.851  15.503  1.0531  0.6011  0.8403
 7395TIP3   OH243599   2.736   6.035   6.625  0.4406  0.1232  0.0374
 7395TIP3    H143600   2.665   6.011   6.566  0.9000 -4.3912  1.1241
 7395TIP3    H243601   2.816   6.007   6.580  1.0916  0.0993  1.1852
 7396TIP3   OH243602   3.858   3.287   4.485  0.2224 -0.4160  0.4426
 7396TIP3    H143603   3.856   3.383   4.487 -0.2761 -0.3523 -1.6989
 7396TIP3    H243604   3.776   3.260   4.525  0.0570  0.0652  0.4266
 7397TIP3   OH243605   3.640   2.829   1.496  0.0453 -0.3186  0.3499
 7397TIP3    H143606   3.660   2.918   1.524 -0.7392 -0.0562  0.0781
 7397TIP3    H243607   3.556   2.836   1.451 -0.6249 -1.3897  1.3909
 7398TIP3   OH243608   5.257   6.350   4.376  0.1595  0.2117 -0.4182
 7398TIP3    H143609   5.273   6.366   4.283  0.4477  0.7132 -0.2790
 7398TIP3    H243610   5.342   6.325   4.411  0.0329 -0.0566 -0.3050
 7399TIP3   OH243611   0.177   1.084  17.202 -0.0761  0.3752  0.1985
 7399TIP3    H143612   0.178   1.045  17.289 -0.4270 -0.9461 -0.3744
 7399TIP3    H243613   0.164   1.010  17.143 -1.2459  1.4186 -0.8859
 7400TIP3   OH243614   1.131   3.556   5.016 -0.1944 -0.0235  0.0888
 7400TIP3    H143615   1.196   3.524   5.078 -0.2350 -1.7632 -0.7174
 7400TIP3    H243616   1.048   3.551   5.064 -0.0294  0.0206  0.3774
 7401TIP3   OH243617   0.658   5.731  13.609 -0.2695 -0.2489 -0.3437
 7401TIP3    H143618   0.735   5.788  13.602 -0.4231  0.2926  2.0123
 7401TIP3    H243619   0.693   5.642  13.607  0.3432 -0.0142 -0.1852
 7402TIP3   OH243620   1.367   2.903  11.086 -1.0266 -0.6284 -0.3153
 7402TIP3    H143621   1.351   2.960  11.161  0.2329 -0.2355 -0.3385
 7402TIP3    H243622   1.280   2.877  11.057 -1.5828  0.5746  0.2412
 7403TIP3   OH243623   3.795   1.198  16.757 -0.1551 -0.0807  0.1108
 7403TIP3    H143624   3.806   1.259  16.684  0.3689 -1.0554 -0.6426
 7403TIP3    H243625   3.878   1.150  16.762 -1.2854 -2.2158 -0.7086
 7404TIP3   OH243626   3.097   1.002  15.090  0.4362  0.6713  0.1016
 7404TIP3    H143627   3.159   0.932  15.115 -0.7334 -0.6642 -0.6367
 7404TIP3    H243628   3.062   1.033  15.173  0.2309 -0.3231  0.4035
 7405TIP3   OH243629   2.373   0.388   0.198 -0.4464  0.1423 -0.1916
 7405TIP3    H143630   2.428   0.466   0.200  0.4572 -0.4236 -1.9067
 7405TIP3    H243631   2.424   0.324   0.148 -1.9916 -0.9061 -0.4673
 7406TIP3   OH243632   4.813   4.893  15.166 -0.3005 -0.0547 -0.4750
 7406TIP3    H143633   4.897   4.880  15.121 -0.5813 -2.2588 -0.3668
 7406TIP3    H243634   4.775   4.969  15.122  0.2511 -1.0605 -2.7651
 7407TIP3   OH243635   1.083   1.002  13.875  0.1086  0.2658  0.1286
 7407TIP3    H143636   1.028   1.039  13.944  0.8784  0.0889  0.8478
 7407TIP3    H243637   1.044   0.917  13.857  1.1330 -0.5946  1.8519
 7408TIP3   OH243638   4.222   5.113   3.673  0.4527 -0.0843  0.3670
 7408TIP3    H143639   4.138   5.138   3.711 -0.4623 -1.2762 -0.8181
 7408TIP3    H243640   4.265   5.062   3.741  0.5373  1.1429  1.2453
 7409TIP3   OH243641   2.028   6.494  10.989 -0.0212 -0.6562 -0.7289
 7409TIP3    H143642   1.932   6.497  10.990 -0.0428 -0.9686  2.3814
 7409TIP3    H243643   2.049   6.406  11.020  1.2950  0.0762  0.4623
 7410TIP3   OH243644   1.871   4.290  14.029 -0.2059  0.0799  0.7343
 7410TIP3    H143645   1.877   4.241  13.947 -0.9505  0.4359  0.4642
 7410TIP3    H243646   1.820   4.233  14.087 -0.1432  0.0656  0.7766
 7411TIP3   OH243647   0.615   6.277   1.937 -0.6144 -0.3278  0.0616
 7411TIP3    H143648   0.591   6.366   1.911  0.3133 -0.2422 -0.5355
 7411TIP3    H243649   0.672   6.246   1.866  1.6798 -0.2271  1.7866
 7412TIP3   OH243650   1.733   0.514   2.399 -0.2204  0.4505  0.8908
 7412TIP3    H143651   1.720   0.540   2.308  0.4225 -0.0491  0.6433
 7412TIP3    H243652   1.645   0.498   2.433 -0.3548 -1.7035 -0.3609
 7413TIP3   OH243653   5.560   0.627   5.241 -0.0572 -0.3089  0.1341
 7413TIP3    H143654   5.558   0.539   5.280 -1.2066  0.4661  1.8815
 7413TIP3    H243655   5.467   0.648   5.227  0.2949 -0.2014 -2.2357
 7414TIP3   OH243656   3.007   3.838   5.717 -0.4860  0.3387 -0.5584
 7414TIP3    H143657   3.071   3.798   5.776 -1.6964 -1.2401 -0.2779
 7414TIP3    H243658   2.965   3.764   5.673 -0.7101  1.4371 -2.2315
 7415TIP3   OH243659   0.868   6.490   0.230  0.0310  0.5616  0.2612
 7415TIP3    H143660   0.928   6.429   0.273  0.3116 -0.3743 -1.4378
 7415TIP3    H243661   0.797   6.434   0.197 -0.2771  1.2962 -0.3216
 7416TIP3   OH243662   6.633   4.543  13.801  0.2316 -0.2594 -0.4734
 7416TIP3    H143663   6.638   4.500  13.715 -0.4349  1.3186 -1.3161
 7416TIP3    H243664   6.705   4.503  13.851  0.5547 -1.2831 -1.7114
 7417TIP3   OH243665   1.113   2.606   3.555 -0.0994 -0.5821 -0.1921
 7417TIP3    H143666   1.180   2.633   3.618  0.2705 -0.7474 -0.5140
 7417TIP3    H243667   1.094   2.685   3.504 -0.6486 -0.3604  0.3500
 7418TIP3   OH243668   5.943   2.317  17.054  0.8598  0.1548 -0.4442
 7418TIP3    H143669   5.878   2.384  17.073 -0.1609 -0.8627 -0.2876
 7418TIP3    H243670   5.938   2.256  17.129  0.7703 -0.8533 -1.2539
 7419TIP3   OH243671   1.894   5.950  15.938  0.4666 -0.5648  0.1896
 7419TIP3    H143672   1.924   6.034  15.972 -1.6944 -0.0767  0.9204
 7419TIP3    H243673   1.921   5.886  16.004 -0.4605 -0.0816  1.0354
 7420TIP3   OH243674   0.108   1.030   1.247 -0.6141  0.8817  0.0186
 7420TIP3    H143675   0.128   1.080   1.326 -0.3390 -0.0195  0.5339
 7420TIP3    H243676   0.160   0.950   1.257 -1.4091  0.2916 -0.5625
 7421TIP3   OH243677   6.142   0.529   3.317 -0.2390 -0.5813  0.7312
 7421TIP3    H143678   6.075   0.529   3.249 -1.7278  1.5132  2.1423
 7421TIP3    H243679   6.186   0.614   3.307 -0.3990 -0.2980  2.2534
 7422TIP3   OH243680   4.780   3.485  14.426  0.1376 -0.1541 -0.5636
 7422TIP3    H143681   4.712   3.418  14.438  1.1583 -1.0312  0.4234
 7422TIP3    H243682   4.744   3.562  14.471 -0.2078 -0.6180 -0.0228
 7423TIP3   OH243683   3.078   2.596  16.953 -0.2544  0.5428 -0.3989
 7423TIP3    H143684   3.077   2.536  16.878 -0.5265  1.6281 -1.2811
 7423TIP3    H243685   3.170   2.623  16.960 -0.5675  1.9578 -1.5857
 7424TIP3   OH243686   2.199   6.199  13.633 -0.0140 -0.2558 -0.2549
 7424TIP3    H143687   2.162   6.111  13.624  0.1695 -0.3020 -0.5576
 7424TIP3    H243688   2.124   6.257  13.622  0.3609 -0.2660 -3.2320
 7425TIP3   OH243689   1.803   2.447  12.913 -0.0662  0.4085 -0.1056
 7425TIP3    H143690   1.716   2.418  12.939 -0.2780 -0.0594 -1.3277
 7425TIP3    H243691   1.862   2.401  12.972 -0.4755 -1.6532 -1.2718
 7426TIP3   OH243692   2.707   1.858  13.304  0.6627  0.1999 -0.4233
 7426TIP3    H143693   2.673   1.840  13.217 -0.6643 -0.2119  0.1722
 7426TIP3    H243694   2.725   1.952  13.304 -2.3828  0.8190 -0.1108
 7427TIP3   OH243695   4.784   6.415  12.090  0.1256  0.3796  0.2214
 7427TIP3    H143696   4.704   6.457  12.056 -0.0576  0.8889  1.2755
 7427TIP3    H243697   4.766   6.321  12.083 -0.7194  0.4912  0.7952
 7428TIP3   OH243698   1.723   4.006  15.849 -0.5752 -1.2253 -0.3733
 7428TIP3    H143699   1.684   4.017  15.936  0.2834 -1.5354  0.0470
 7428TIP3    H243700   1.779   4.083  15.839  2.1724 -3.0080  0.8482
 7429TIP3   OH243701   5.986   3.985   5.912  0.0899  0.3000  0.3343
 7429TIP3    H143702   5.978   4.002   5.818  2.2216 -0.1681  0.0478
 7429TIP3    H243703   5.901   3.949   5.937 -0.8994  1.5372 -1.1648
 7430TIP3   OH243704   2.970   2.010   5.577 -0.2630 -0.0072 -0.3459
 7430TIP3    H143705   2.948   1.990   5.486 -0.2499  0.4302 -0.4510
 7430TIP3    H243706   2.892   2.053   5.612 -0.7261 -1.3236  0.2312
 7431TIP3   OH243707   0.377   1.398  12.664  0.0199 -0.2517  0.1819
 7431TIP3    H143708   0.313   1.437  12.605  0.5283 -0.8198 -0.7463
 7431TIP3    H243709   0.324   1.350  12.728 -0.4753 -1.2804 -0.9770
 7432TIP3   OH243710   2.193   5.695   0.331  0.2589  0.0407 -0.0463
 7432TIP3    H143711   2.161   5.744   0.406  0.2301  0.4593 -0.3288
 7432TIP3    H243712   2.218   5.610   0.366 -0.2877  0.0379  0.3362
 7433TIP3   OH243713   4.995   5.591   3.683 -0.3416 -0.4389  0.6469
 7433TIP3    H143714   5.070   5.649   3.697  1.5298 -2.7550  0.5500
 7433TIP3    H243715   4.959   5.578   3.771 -0.2595  0.1556  0.7760
 7434TIP3   OH243716   5.804   2.449  13.786 -0.2058  0.2215  0.6507
 7434TIP3    H143717   5.780   2.521  13.729  1.0305 -0.1331 -0.3463
 7434TIP3    H243718   5.885   2.478  13.828 -0.8144  0.2600  1.8257
 7435TIP3   OH243719   2.003   0.577   0.671 -0.0340  0.0760 -0.3412
 7435TIP3    H143720   2.019   0.562   0.578  2.0682 -0.3482  0.0500
 7435TIP3    H243721   2.084   0.617   0.703 -0.4464 -0.4468  1.4421
 7436TIP3   OH243722   0.867   4.279   3.479  0.7197  0.5466 -0.1782
 7436TIP3    H143723   0.787   4.228   3.467  0.3158  1.4066 -1.1954
 7436TIP3    H243724   0.902   4.249   3.563  0.8643 -1.9109 -1.0675
 7437TIP3   OH243725   0.621   6.561  11.639  0.1384  0.2038  0.0220
 7437TIP3    H143726   0.562   6.594  11.708 -1.0415 -0.3352 -0.7102
 7437TIP3    H243727   0.568   6.497  11.591 -0.0979  2.6724 -3.2228
 7438TIP3   OH243728   0.408   6.288  10.444 -0.2803  0.0484 -0.9379
 7438TIP3    H143729   0.373   6.376  10.461 -0.3664 -0.1519 -0.0159
 7438TIP3    H243730   0.503   6.300  10.443 -0.2742  0.0719 -0.3086
 7439TIP3   OH243731   5.907   4.509   1.123  0.1676  0.2330  0.5545
 7439TIP3    H143732   5.975   4.566   1.087  0.4002 -0.6204 -0.3901
 7439TIP3    H243733   5.951   4.457   1.190  0.9925 -1.8058 -1.4923
 7440TIP3   OH243734   1.435   5.743  15.335  0.0686 -0.4096 -0.2056
 7440TIP3    H143735   1.425   5.657  15.292  1.1943  0.9804 -3.3913
 7440TIP3    H243736   1.529   5.759  15.334 -0.3642  2.1407 -2.2560
 7441TIP3   OH243737   3.614   5.677  13.242  0.5059 -0.3183 -0.1420
 7441TIP3    H143738   3.651   5.683  13.330  1.6907  2.2608 -0.7647
 7441TIP3    H243739   3.527   5.717  13.250  0.2862 -0.8181  0.0099
 7442TIP3   OH243740   1.359   3.431  13.655 -0.7479  0.1110 -0.4929
 7442TIP3    H143741   1.279   3.385  13.682 -0.4248 -0.1332  0.0456
 7442TIP3    H243742   1.430   3.371  13.675 -0.1683  1.5288  1.8921
 7443TIP3   OH243743   2.060   3.486  13.742 -0.1632 -0.0544 -0.0410
 7443TIP3    H143744   2.069   3.578  13.767 -0.1540  1.0684 -3.7998
 7443TIP3    H243745   1.967   3.476  13.722  0.4681  0.3174 -3.5167
 7444TIP3   OH243746   5.405   1.340   0.276 -0.5651  0.4932 -0.0690
 7444TIP3    H143747   5.319   1.374   0.253 -0.4236  0.5482 -0.5091
 7444TIP3    H243748   5.426   1.278   0.206  0.3126  1.4279 -0.6447
 7445TIP3   OH243749   4.103   2.370  15.740  0.4693 -0.0315  0.2020
 7445TIP3    H143750   4.142   2.439  15.793  0.8543 -0.3276  0.3036
 7445TIP3    H243751   4.021   2.349  15.784 -0.0040  0.8703 -0.2329
 7446TIP3   OH243752   0.544   6.690   4.780 -0.3299  0.0705  0.4409
 7446TIP3    H143753   0.455   6.707   4.750  0.0281 -0.6887 -1.0839
 7446TIP3    H243754   0.562   6.600   4.755  2.1960  1.3630 -2.7298
 7447TIP3   OH243755   0.058   6.565  12.086 -0.7568  0.5378  0.0411
 7447TIP3    H143756  -0.016   6.560  12.146 -1.9054  0.4247 -1.3568
 7447TIP3    H243757   0.026   6.525  12.005  0.9956  0.0474 -0.4212
 7448TIP3   OH243758   5.330   1.772   2.772  0.4016 -0.3208  0.4790
 7448TIP3    H143759   5.244   1.769   2.813  1.3089  0.2176  2.4904
 7448TIP3    H243760   5.361   1.682   2.774 -0.6075 -0.7311 -1.3800
 7449TIP3   OH243761   2.020   1.475  14.943  0.1400 -0.5419  0.6088
 7449TIP3    H143762   1.962   1.528  14.889 -0.5291 -1.3838  0.4889
 7449TIP3    H243763   2.102   1.471  14.893  0.5759  1.3069  1.1593
 7450TIP3   OH243764   1.640   5.054  10.815  0.3483 -0.7612 -0.5734
 7450TIP3    H143765   1.556   5.082  10.851  0.4671 -3.3744  1.9979
 7450TIP3    H243766   1.618   5.016  10.730 -1.1579 -1.6789  0.1912
 7451TIP3   OH243767   6.141   5.513  15.423  0.6425 -0.3668  0.0636
 7451TIP3    H143768   6.146   5.505  15.328  0.3676  1.7350 -0.1509
 7451TIP3    H243769   6.174   5.600  15.442  0.1338 -0.5355  1.8530
 7452TIP3   OH243770   6.524   1.047  12.093 -0.1572  0.8919 -0.7281
 7452TIP3    H143771   6.498   1.107  12.163 -0.5323  0.5342 -0.5583
 7452TIP3    H243772   6.442   1.026  12.048 -0.1216 -0.0055 -0.3806
 7453TIP3   OH243773   0.275   6.241  12.035 -0.2091  0.7093  0.6267
 7453TIP3    H143774   0.250   6.153  12.063 -2.4540  0.8082 -0.9711
 7453TIP3    H243775   0.222   6.258  11.958  1.3815  2.8573 -0.0396
 7454TIP3   OH243776   1.809   1.193   2.751 -0.3021 -0.1348 -0.1430
 7454TIP3    H143777   1.796   1.123   2.815 -0.8187  1.1702  1.2085
 7454TIP3    H243778   1.759   1.267   2.786 -1.8894  0.1221 -2.8567
 7455TIP3   OH243779   6.390   6.716  16.753 -0.5537  0.1951 -0.1780
 7455TIP3    H143780   6.483   6.699  16.741 -1.2492 -3.7131 -0.6433
 7455TIP3    H243781   6.374   6.702  16.846 -0.5690  1.7032  0.0648
 7456TIP3   OH243782   3.027   3.960  16.119 -0.3294  0.2573 -0.2071
 7456TIP3    H143783   3.075   4.040  16.098  0.2389  0.2596  1.0543
 7456TIP3    H243784   2.935   3.987  16.120 -0.0671  1.1771  1.3520
 7457TIP3   OH243785   4.370   1.681   5.195  0.0124  1.0697 -0.5489
 7457TIP3    H143786   4.284   1.639   5.193  0.2231  0.5698  0.5441
 7457TIP3    H243787   4.360   1.753   5.257  0.4575  0.8371 -0.2025
 7458TIP3   OH243788   2.945   0.509  15.185  0.0894 -0.0056 -0.1026
 7458TIP3    H143789   2.944   0.451  15.262  0.8244 -0.0108 -0.0896
 7458TIP3    H243790   2.993   0.460  15.119 -2.6767 -1.0480 -1.4240
 7459TIP3   OH243791   3.675   3.219   2.537  0.1925  0.3875 -0.0339
 7459TIP3    H143792   3.620   3.223   2.458  1.1017 -1.4148 -0.7867
 7459TIP3    H243793   3.715   3.132   2.534  0.5503  0.4488  2.2321
 7460TIP3   OH243794   1.515   4.542   2.501  0.0350  0.1481 -0.3662
 7460TIP3    H143795   1.541   4.600   2.429  0.2119  0.0152 -0.4104
 7460TIP3    H243796   1.427   4.571   2.525 -0.0957  0.0753 -0.7572
 7461TIP3   OH243797   5.830   5.036  11.676  0.6919 -0.4734  0.5094
 7461TIP3    H143798   5.813   4.973  11.746 -2.1486 -0.4759 -0.1012
 7461TIP3    H243799   5.903   5.000  11.627  0.0541 -2.5643  1.0477
 7462TIP3   OH243800   5.366   4.994  14.251 -0.0698 -0.4906  0.2843
 7462TIP3    H143801   5.361   4.915  14.305 -0.5389 -0.1699  0.7121
 7462TIP3    H243802   5.444   5.040  14.281 -0.6571 -0.0158  1.1006
 7463TIP3   OH243803   3.934   3.655  16.564  0.2255  0.2059 -0.0836
 7463TIP3    H143804   3.984   3.727  16.602  1.2263 -1.2424  1.4076
 7463TIP3    H243805   3.854   3.651  16.616  1.4184 -1.5241  1.6481
 7464TIP3   OH243806   2.502   1.992   5.481 -0.8069  0.1262 -0.0668
 7464TIP3    H143807   2.567   2.051   5.519 -1.4936 -0.2688  1.7817
 7464TIP3    H243808   2.499   2.016   5.388  1.7012  0.3807 -0.1075
 7465TIP3   OH243809   0.199   4.905  15.046 -0.0276 -0.2546 -0.0651
 7465TIP3    H143810   0.272   4.869  14.995 -1.1881  0.8437 -2.5874
 7465TIP3    H243811   0.222   4.998  15.058 -0.3443 -0.2308  0.3858
 7466TIP3   OH243812   1.788   6.233   5.327 -0.0616 -0.0904  0.4805
 7466TIP3    H143813   1.817   6.166   5.390 -0.6576 -0.3001  0.5314
 7466TIP3    H243814   1.694   6.220   5.320  0.1333 -0.6804 -1.1767
 7467TIP3   OH243815   6.275   0.296  15.134 -0.0237  0.0720  0.0281
 7467TIP3    H143816   6.347   0.270  15.077 -1.0366  0.7500 -1.5877
 7467TIP3    H243817   6.227   0.215  15.151  0.1674 -0.0979 -0.2359
 7468TIP3   OH243818   6.612   4.404  13.582 -0.0358 -0.6283 -0.3806
 7468TIP3    H143819   6.664   4.432  13.507  0.1057  1.8788  0.6145
 7468TIP3    H243820   6.522   4.403  13.549  0.2311 -1.3642 -1.0940
 7469TIP3   OH243821   4.952   2.966   6.058 -0.2219  0.4564 -0.4962
 7469TIP3    H143822   5.010   3.041   6.074  0.1093  0.2300 -0.6202
 7469TIP3    H243823   4.868   2.992   6.096  0.1934  0.4441  0.4505
 7470TIP3   OH243824   3.938   6.231   1.187  0.2159 -0.2854  0.8684
 7470TIP3    H143825   3.866   6.208   1.128  1.1909 -1.1316 -0.0164
 7470TIP3    H243826   3.982   6.304   1.144 -0.9373  1.1598  2.0958
 7471TIP3   OH243827   3.622   4.451  15.050 -0.2583 -0.0440  0.2077
 7471TIP3    H143828   3.706   4.447  15.096  0.7123 -0.8320 -1.5985
 7471TIP3    H243829   3.624   4.375  14.991 -1.9756  0.2908 -0.2878
 7472TIP3   OH243830   1.876   3.347  16.724  0.1824 -0.2201 -0.5204
 7472TIP3    H143831   1.787   3.356  16.758 -1.7117 -1.8236 -4.6701
 7472TIP3    H243832   1.899   3.435  16.694  0.4703  0.4342  1.5546
 7473TIP3   OH243833   4.922   0.085  11.284  0.1788  0.1306  0.1073
 7473TIP3    H143834   4.872   0.039  11.352 -1.7402 -1.6534 -2.3680
 7473TIP3    H243835   4.928   0.175  11.315  0.3994 -0.8768  3.1620
 7474TIP3   OH243836   3.548   1.697   1.687 -0.2642  0.1821  0.0763
 7474TIP3    H143837   3.486   1.625   1.674  0.1765 -0.2889  0.5735
 7474TIP3    H243838   3.518   1.766   1.628  0.1834 -0.9659 -1.5173
 7475TIP3   OH243839   3.444   0.392  14.525 -0.1611 -0.2006 -0.2660
 7475TIP3    H143840   3.538   0.376  14.530 -0.4540 -1.8672  0.3583
 7475TIP3    H243841   3.407   0.310  14.490 -1.6148 -0.5450  1.9313
 7476TIP3   OH243842   1.647   2.323  11.684 -0.5947 -0.2250  0.5619
 7476TIP3    H143843   1.569   2.341  11.631 -0.8262  0.5088  1.1439
 7476TIP3    H243844   1.622   2.248  11.738 -1.1630  0.4657  1.2738
 7477TIP3   OH243845   4.061   2.332   1.649 -0.0231  0.5191 -0.2287
 7477TIP3    H143846   4.032   2.316   1.559 -0.5355 -0.0418  0.0324
 7477TIP3    H243847   4.071   2.245   1.687 -1.1746  0.7635  0.6865
 7478TIP3   OH243848   6.335   5.578   2.633 -0.3884  0.0299  0.5040
 7478TIP3    H143849   6.329   5.500   2.578 -0.1075  1.0229 -0.9594
 7478TIP3    H243850   6.387   5.640   2.582 -1.5906  1.6022  1.1430
 7479TIP3   OH243851   2.829   2.847   6.663  0.7008  0.5508 -0.3145
 7479TIP3    H143852   2.872   2.762   6.664 -1.1867 -0.4180  0.3396
 7479TIP3    H243853   2.738   2.828   6.637 -0.2032  2.1292  1.5870
 7480TIP3   OH243854   5.212   2.364   4.343 -0.3029  0.4700  0.2090
 7480TIP3    H143855   5.125   2.387   4.373 -1.0103 -0.5195 -1.0188
 7480TIP3    H243856   5.237   2.288   4.396 -0.8320 -0.1854 -0.4542
 7481TIP3   OH243857   3.321   6.561   5.305 -0.1879  0.5264 -0.2013
 7481TIP3    H143858   3.398   6.588   5.255  1.0605  1.0646  1.9327
 7481TIP3    H243859   3.271   6.506   5.245  0.7905  1.8614 -2.3264
 7482TIP3   OH243860   3.898   0.542   6.052  0.4349 -0.4422  0.1366
 7482TIP3    H143861   3.948   0.530   6.133 -0.8796  0.2890  1.0710
 7482TIP3    H243862   3.846   0.462   6.045  0.5966 -0.5341 -0.0382
 7483TIP3   OH243863   2.974   2.624   2.516 -0.1186 -0.1157 -0.1114
 7483TIP3    H143864   3.013   2.538   2.532 -0.6691 -0.2792  0.3431
 7483TIP3    H243865   2.933   2.648   2.599 -1.8521 -0.3988 -0.8660
 7484TIP3   OH243866   4.578   4.145   6.409 -0.3812  0.3839 -0.6949
 7484TIP3    H143867   4.625   4.120   6.488 -2.4568 -0.5817  0.2632
 7484TIP3    H243868   4.513   4.209   6.438 -2.4007 -1.3489 -1.2571
 7485TIP3   OH243869   4.289   4.830  14.080 -0.1271  0.1305 -0.3895
 7485TIP3    H143870   4.362   4.803  14.025 -1.5565 -0.5428 -2.0202
 7485TIP3    H243871   4.328   4.849  14.165  2.1206  1.0469 -1.5935
 7486TIP3   OH243872   3.476   3.753  14.174  0.1927  0.1492  0.5170
 7486TIP3    H143873   3.443   3.785  14.257 -0.5299 -0.5751  0.5142
 7486TIP3    H243874   3.545   3.816  14.149 -0.4013  1.0270  1.0713
 7487TIP3   OH243875   5.716   4.538  13.862 -0.3059  0.1327 -0.0497
 7487TIP3    H143876   5.802   4.524  13.822 -0.7522  0.7208 -1.2377
 7487TIP3    H243877   5.658   4.554  13.788 -1.6104 -1.1213  0.6831
 7488TIP3   OH243878   6.390   0.724   3.286  0.3572 -0.0276 -0.0582
 7488TIP3    H143879   6.466   0.670   3.307  0.7478  0.5282 -0.0332
 7488TIP3    H243880   6.374   0.775   3.365 -0.0474 -0.1519 -0.0600
 7489TIP3   OH243881   0.855   5.645  16.096  0.0642  0.9787 -0.3626
 7489TIP3    H143882   0.883   5.615  16.182  1.4551  1.9811 -0.4632
 7489TIP3    H243883   0.767   5.608  16.086  0.9917 -1.5267  0.2926
 7490TIP3   OH243884   2.419   4.523   4.062 -0.0778 -0.1613  0.4998
 7490TIP3    H143885   2.391   4.518   3.971  1.1481  1.1454  0.0288
 7490TIP3    H243886   2.412   4.616   4.084 -1.0316 -0.5722  1.9552
 7491TIP3   OH243887   3.976   4.203   4.165 -0.2328  0.4961  0.0302
 7491TIP3    H143888   4.068   4.185   4.145 -0.7520 -0.2964 -1.7618
 7491TIP3    H243889   3.949   4.268   4.099 -0.8725  0.9332  0.7161
 7492TIP3   OH243890   0.038   2.873  10.931  0.9548 -0.4143 -0.3089
 7492TIP3    H143891   0.043   2.779  10.947 -0.4479 -0.8807 -2.4261
 7492TIP3    H243892   0.090   2.886  10.852  0.4582  0.4671 -0.4950
 7493TIP3   OH243893   3.282   2.594   4.884 -0.0285 -0.3377  0.2522
 7493TIP3    H143894   3.291   2.684   4.852 -0.7872  0.0613  1.1631
 7493TIP3    H243895   3.188   2.577   4.882  0.0562 -0.8768  0.7308
 7494TIP3   OH243896   3.612   0.339   0.170 -0.2730 -0.3847 -0.4795
 7494TIP3    H143897   3.639   0.265   0.224  1.1428 -0.0827 -0.7569
 7494TIP3    H243898   3.619   0.415   0.229 -1.3523 -0.4091 -0.3058
 7495TIP3   OH243899   5.621   4.588  11.203 -0.1147  0.1086 -0.0965
 7495TIP3    H143900   5.556   4.521  11.224 -0.0229 -0.5880 -1.9887
 7495TIP3    H243901   5.680   4.588  11.279 -0.5930 -1.3670  0.2982
 7496TIP3   OH243902   4.316   1.750  17.189 -0.1817  0.4538  0.0880
 7496TIP3    H143903   4.242   1.804  17.217 -0.2853 -0.1902  1.0720
 7496TIP3    H243904   4.279   1.662  17.179  0.4138  0.1642  0.4188
 7497TIP3   OH243905   1.763   4.064   3.361  0.0636  0.0519  0.7546
 7497TIP3    H143906   1.737   4.153   3.334  0.8180  0.0847  0.1225
 7497TIP3    H243907   1.682   4.013   3.355  0.0464  0.2367 -0.8661
 7498TIP3   OH243908   1.648   0.894  14.913 -0.0650 -0.3946 -0.3536
 7498TIP3    H143909   1.711   0.960  14.944  0.0715 -1.4316  1.6085
 7498TIP3    H243910   1.620   0.848  14.992 -1.1020 -1.8792 -1.5635
 7499TIP3   OH243911   2.758   5.675   2.110  0.0971  0.4267  0.2974
 7499TIP3    H143912   2.734   5.767   2.109  0.6440  0.5726 -0.2044
 7499TIP3    H243913   2.757   5.650   2.202 -0.2456  0.8801  0.4168
 7500TIP3   OH243914   5.943   6.294   2.317  0.2118  0.0554  0.2715
 7500TIP3    H143915   5.980   6.209   2.342  0.8036  0.2525  0.0764
 7500TIP3    H243916   5.964   6.352   2.390  3.2469  1.0080 -1.2711
 7501TIP3   OH243917   4.844   3.195  16.478 -0.2658 -0.0089 -0.5041
 7501TIP3    H143918   4.787   3.271  16.464  0.8084  1.1384  1.2274
 7501TIP3    H243919   4.925   3.217  16.433 -0.0326 -0.2295 -0.1942
 7502TIP3   OH243920   3.073   0.762  14.915 -0.7170  0.5175 -0.1615
 7502TIP3    H143921   3.116   0.679  14.932 -2.4456 -0.5968 -1.1046
 7502TIP3    H243922   3.065   0.804  15.001 -0.3903 -0.5731  0.3979
 7503TIP3   OH243923   6.771   0.536  14.397  0.3043 -0.1457  0.2061
 7503TIP3    H143924   6.725   0.476  14.338 -1.2566 -0.8219  2.0678
 7503TIP3    H243925   6.721   0.618  14.391  1.4397  0.4811 -1.0407
 7504TIP3   OH243926   5.863   2.636   1.840  0.1618 -0.0272 -0.1066
 7504TIP3    H143927   5.942   2.604   1.798  0.2232  0.3994 -0.3195
 7504TIP3    H243928   5.869   2.731   1.833 -0.8157 -0.0240 -0.9420
 7505TIP3   OH243929   5.934   4.762   5.046 -0.1334  0.3757 -0.3887
 7505TIP3    H143930   5.960   4.691   5.106 -1.7686  0.6889  0.7309
 7505TIP3    H243931   5.851   4.793   5.081 -0.2480  1.7551 -1.8423
 7506TIP3   OH243932   4.519   5.522  10.990 -0.4660 -0.5637  0.0172
 7506TIP3    H143933   4.488   5.478  11.070 -2.0517 -0.3242 -0.4395
 7506TIP3    H243934   4.480   5.471  10.919  2.6265 -2.0299 -0.6797
 7507TIP3   OH243935   1.394   3.420   1.897 -0.0709  0.1543  0.2569
 7507TIP3    H143936   1.487   3.407   1.916  0.2811 -0.4523 -1.7564
 7507TIP3    H243937   1.386   3.513   1.876 -0.5791  0.9735  3.8111
 7508TIP3   OH243938   1.112   3.800   0.448  0.2868 -0.2746  0.0230
 7508TIP3    H143939   1.041   3.855   0.482  1.3704  0.5556  0.9912
 7508TIP3    H243940   1.185   3.860   0.434  2.4976 -1.8164  3.9471
 7509TIP3   OH243941   3.784   5.308   0.436 -0.6094 -0.0237  0.0059
 7509TIP3    H143942   3.847   5.279   0.370 -1.2273  0.8872 -1.0265
 7509TIP3    H243943   3.717   5.355   0.385 -0.1614  2.2883  1.4727
 7510TIP3   OH243944   4.837   1.761  12.610  0.5861  0.7994 -0.1888
 7510TIP3    H143945   4.755   1.730  12.649  0.6314 -0.4638 -1.0445
 7510TIP3    H243946   4.905   1.734  12.673  0.4948  0.4034 -0.2611
 7511TIP3   OH243947   2.351   1.662  15.496 -0.3032  0.5532 -0.7265
 7511TIP3    H143948   2.306   1.734  15.541 -0.1959 -0.2386  0.6775
 7511TIP3    H243949   2.309   1.583  15.529  0.7527 -0.1064 -0.9342
 7512TIP3   OH243950   2.914   5.550  16.026  0.1665  0.3650 -0.3419
 7512TIP3    H143951   2.881   5.518  16.110  1.6271 -1.0058 -0.2673
 7512TIP3    H243952   2.844   5.531  15.964  0.3425 -1.4957  0.0058
 7513TIP3   OH243953   0.940   5.292  12.765  0.2223  0.4781 -0.2690
 7513TIP3    H143954   0.937   5.381  12.799  0.0854  0.3624  0.0243
 7513TIP3    H243955   1.031   5.265  12.774  0.3553  0.7543 -0.7870
 7514TIP3   OH243956   0.287   4.756  11.781  0.1519 -0.1645 -0.0133
 7514TIP3    H143957   0.339   4.801  11.847  0.4201 -1.6275  0.7913
 7514TIP3    H243958   0.289   4.664  11.808  1.6628 -1.0508 -2.9655
 7515TIP3   OH243959   0.122   2.170   0.219 -0.0783 -0.0543  0.1429
 7515TIP3    H143960   0.117   2.110   0.144  0.7788  1.1092 -0.8824
 7515TIP3    H243961   0.032   2.175   0.252 -0.7389  0.3888 -1.6220
 7516TIP3   OH243962   4.002   1.778  14.917 -0.1919  0.7316  0.6202
 7516TIP3    H143963   4.021   1.793  15.010  0.9815 -0.1629  0.5344
 7516TIP3    H243964   3.910   1.752  14.916  0.6802 -2.8455  2.0031
 7517TIP3   OH243965   2.230   0.482   4.623  0.0291 -0.3599 -0.1083
 7517TIP3    H143966   2.288   0.499   4.550 -0.2738 -0.6939 -0.4278
 7517TIP3    H243967   2.234   0.388   4.636 -0.3046 -0.3630 -0.0195
 7518TIP3   OH243968   5.769   1.893  16.463 -0.2201 -0.2962 -0.5479
 7518TIP3    H143969   5.856   1.867  16.431  0.8739  2.5524 -0.0746
 7518TIP3    H243970   5.768   1.864  16.555  0.7816  0.8464 -0.1616
 7519TIP3   OH243971   3.150   4.693  17.034  0.0176  0.0469  0.0004
 7519TIP3    H143972   3.114   4.740  17.110  1.5564  1.1140  0.0761
 7519TIP3    H243973   3.195   4.618  17.072 -0.7615 -0.4270  0.0064
 7520TIP3   OH243974   0.646   2.951   0.323 -0.2717  0.1693  0.4205
 7520TIP3    H143975   0.639   2.867   0.278 -0.1312  0.1943  0.3497
 7520TIP3    H243976   0.578   3.005   0.283 -0.8524 -0.1419  0.9839
 7521TIP3   OH243977   3.835   3.747   6.229 -0.6039  0.3266 -0.6300
 7521TIP3    H143978   3.862   3.816   6.290 -0.5094  0.7243 -1.1196
 7521TIP3    H243979   3.759   3.707   6.272 -1.0199  1.1176 -0.6037
 7522TIP3   OH243980   3.066   2.245   0.753  0.4295  0.5575  0.5541
 7522TIP3    H143981   3.078   2.322   0.697 -2.1528  0.3086 -0.4276
 7522TIP3    H243982   3.153   2.206   0.760  1.3487  2.2891 -0.8198
 7523TIP3   OH243983   2.398   3.078   5.415 -0.7530  0.3088  0.6321
 7523TIP3    H143984   2.463   3.140   5.449 -1.2537  0.9062  0.4969
 7523TIP3    H243985   2.444   3.031   5.345 -0.1737  0.0730  1.1567
 7524TIP3   OH243986   5.082   5.846  11.550 -0.1181 -0.2246  0.3904
 7524TIP3    H143987   5.134   5.767  11.563 -1.7618 -1.5559 -0.8828
 7524TIP3    H243988   5.139   5.903  11.498  1.1164 -0.5261  1.3989
 7525TIP3   OH243989   6.522   2.906   2.346  0.6399 -0.1209  0.2016
 7525TIP3    H143990   6.528   2.969   2.418  1.4177  0.5140 -0.4050
 7525TIP3    H243991   6.453   2.846   2.372  1.2861 -0.2241  1.7303
 7526TIP3   OH243992   2.069   3.189  15.288  0.4166 -0.8744  0.5381
 7526TIP3    H143993   2.074   3.155  15.198  1.4115  1.6632 -0.3876
 7526TIP3    H243994   1.976   3.210  15.300 -0.0378 -2.8705  0.7672
 7527TIP3   OH243995   2.345   0.619   2.276 -0.0016  0.5201  0.1160
 7527TIP3    H143996   2.390   0.685   2.223  1.0266  0.3235  0.7387
 7527TIP3    H243997   2.375   0.535   2.240 -0.2808  0.3850  0.1941
 7528TIP3   OH243998   5.831   6.787   4.327  0.1741  0.2588  0.3898
 7528TIP3    H143999   5.799   6.811   4.240  1.2304 -1.4675 -0.4915
 7528TIP3    H244000   5.913   6.741   4.311  0.8979  0.8297  2.3741
 7529TIP3   OH244001   4.002   5.196  12.504 -0.2431  0.1430  0.3869
 7529TIP3    H144002   3.937   5.218  12.437  0.9569 -0.6259 -1.0634
 7529TIP3    H244003   4.053   5.276  12.515  0.6697 -0.2324 -0.9262
 7530TIP3   OH244004   4.384   4.997  15.290  0.2866  0.0838 -0.0736
 7530TIP3    H144005   4.309   4.944  15.315  1.0649 -2.4845 -2.8367
 7530TIP3    H244006   4.452   4.973  15.353  0.2781 -1.3223 -0.5958
 7531TIP3   OH244007   3.932   5.238  13.923  0.1797  0.0976  0.0953
 7531TIP3    H144008   3.890   5.265  13.842 -1.3747  0.5720  1.0529
 7531TIP3    H244009   3.935   5.143  13.919  0.3175  0.1351 -0.6196
 7532TIP3   OH244010   1.744   1.645  12.421  0.0418  0.3252 -0.6061
 7532TIP3    H144011   1.667   1.680  12.467  0.8253 -0.6782  1.5473
 7532TIP3    H244012   1.735   1.678  12.332 -2.0811  1.4990 -0.0139
 7533TIP3   OH244013   3.959   3.513   6.151  0.0766  0.0344 -0.4744
 7533TIP3    H144014   3.949   3.529   6.057 -5.5716  0.5470  0.0480
 7533TIP3    H244015   3.925   3.592   6.193  1.5641 -0.6009  2.0031
 7534TIP3   OH244016   6.773   6.688  15.487 -0.3334  0.1434 -0.5277
 7534TIP3    H144017   6.796   6.596  15.499 -1.5821 -0.2836 -1.3341
 7534TIP3    H244018   6.790   6.729  15.572  2.5437 -0.3088 -0.8251
 7535TIP3   OH244019   6.577   1.892  12.089 -0.1288 -0.4243  0.4443
 7535TIP3    H144020   6.645   1.959  12.096 -2.0455  1.3447  2.8955
 7535TIP3    H244021   6.501   1.938  12.053 -1.0486 -1.5855  0.8606
 7536TIP3   OH244022   0.778   2.361  11.827  0.5136 -0.4151 -0.5295
 7536TIP3    H144023   0.804   2.282  11.780 -0.8470 -0.4756 -1.1972
 7536TIP3    H244024   0.725   2.410  11.765  0.5303  0.5657  0.2095
 7537TIP3   OH244025   6.344   2.608  11.552 -0.1765 -0.5292  0.2652
 7537TIP3    H144026   6.382   2.680  11.502  0.4786 -1.0221  0.0473
 7537TIP3    H244027   6.254   2.636  11.570  0.4207  0.8411  1.1867
 7538TIP3   OH244028   5.069   2.126   1.482 -0.6673 -0.1286 -0.3517
 7538TIP3    H144029   5.134   2.188   1.449 -0.8632 -0.1647 -0.8088
 7538TIP3    H244030   5.115   2.043   1.485  0.3639  0.5092  2.6937
 7539TIP3   OH244031   3.716   1.461   1.641 -0.2776 -0.6083 -0.4529
 7539TIP3    H144032   3.726   1.441   1.734 -0.2951 -1.9256 -0.7192
 7539TIP3    H244033   3.685   1.551   1.638  2.5906  0.4426  0.7012
 7540TIP3   OH244034   2.748   3.812  11.612  0.1352 -0.2886  0.2007
 7540TIP3    H144035   2.805   3.780  11.543 -1.2026 -0.0963 -1.0203
 7540TIP3    H244036   2.721   3.734  11.660  1.1688 -0.4064  0.5997
 7541TIP3   OH244037   6.563   4.392  12.825 -0.8812 -0.0093 -0.5224
 7541TIP3    H144038   6.494   4.394  12.891 -1.6312 -1.2664 -1.2292
 7541TIP3    H244039   6.518   4.410  12.742  0.1700  2.3382 -0.6256
 7542TIP3   OH244040   4.262   2.730   4.912  0.0840 -0.0920  0.0394
 7542TIP3    H144041   4.334   2.788   4.934 -0.7866  0.9767  0.1117
 7542TIP3    H244042   4.197   2.744   4.981 -0.7595 -0.0464 -0.7417
 7543TIP3   OH244043   2.655   6.587  14.357  0.2201  0.0177 -0.1243
 7543TIP3    H144044   2.700   6.602  14.440 -1.2389  2.0945  0.3487
 7543TIP3    H244045   2.643   6.492  14.352  1.9246 -0.2755  1.1651
 7544TIP3   OH244046   2.499   0.019   1.142 -0.2663 -0.2687  0.2236
 7544TIP3    H144047   2.471   0.020   1.050 -1.4498  0.8138  0.5908
 7544TIP3    H244048   2.566   0.087   1.147  1.3853 -1.8113 -0.3070
 7545TIP3   OH244049   3.829   5.738  12.870 -0.0380  0.2138 -0.1502
 7545TIP3    H144050   3.834   5.731  12.775  0.7410 -1.2614 -0.0160
 7545TIP3    H244051   3.780   5.818  12.886  2.6425  2.2830 -1.7759
 7546TIP3   OH244052   2.306   2.369  14.154  0.1138 -0.0162 -0.1523
 7546TIP3    H144053   2.389   2.337  14.118  0.3973 -0.3255  0.7557
 7546TIP3    H244054   2.240   2.309  14.120  0.4804 -0.7896  0.4876
 7547TIP3   OH244055   6.495   4.823   2.876  0.4430 -0.3742  0.3970
 7547TIP3    H144056   6.410   4.790   2.848 -0.2054 -0.1060  2.0218
 7547TIP3    H244057   6.522   4.883   2.806 -1.1650  0.3077  0.3510
 7548TIP3   OH244058   1.978   0.585   3.433 -0.2047 -0.0651 -0.0127
 7548TIP3    H144059   2.036   0.538   3.373  0.0165  0.2493 -0.0460
 7548TIP3    H244060   2.023   0.582   3.518  0.8889  1.9991 -0.4849
 7549TIP3   OH244061   0.924   4.691  14.288 -0.8304 -0.5271  0.5100
 7549TIP3    H144062   0.862   4.737  14.230  0.5141  1.5628  0.6713
 7549TIP3    H244063   0.906   4.599  14.273 -1.4324 -0.0137 -2.2781
 7550TIP3   OH244064   4.373   1.003  14.698  0.2865 -0.1228  0.7449
 7550TIP3    H144065   4.299   0.950  14.668  0.8405 -1.8262  2.2475
 7550TIP3    H244066   4.357   1.090  14.662 -0.7436 -1.2615 -1.6604
 7551TIP3   OH244067   3.337   4.475   1.051  0.2349  0.0228 -0.4378
 7551TIP3    H144068   3.395   4.402   1.027 -0.4084 -0.5276 -0.3423
 7551TIP3    H244069   3.249   4.442   1.031 -0.2838 -0.2006  2.0605
 7552TIP3   OH244070   5.536   1.211   5.749  0.1225 -0.0888 -0.4724
 7552TIP3    H144071   5.500   1.276   5.810  1.2328  0.5955 -0.5321
 7552TIP3    H244072   5.631   1.224   5.754  0.4163 -2.2904  0.1547
 7553TIP3   OH244073   1.628   2.341   1.615  0.0728  0.0034  0.2140
 7553TIP3    H144074   1.706   2.395   1.601 -0.0477  0.2517  0.5061
 7553TIP3    H244075   1.555   2.399   1.593 -0.1027  0.2574  1.4243
 7554TIP3   OH244076   2.979   2.537  12.062 -0.3066 -0.1872  0.1544
 7554TIP3    H144077   3.050   2.585  12.103 -0.1197  1.5563 -2.1461
 7554TIP3    H244078   2.900   2.584  12.086 -0.3358 -0.0391 -0.2204
 7555TIP3   OH244079   1.806   6.095  11.900 -0.2451 -0.0755 -0.6555
 7555TIP3    H144080   1.739   6.063  11.961 -1.2852  1.5365 -0.9096
 7555TIP3    H244081   1.800   6.190  11.907 -1.3895  0.2016 -4.3530
 7556TIP3   OH244082   0.669   1.436  15.405 -0.1353  0.0976  0.1542
 7556TIP3    H144083   0.630   1.462  15.321  1.0137 -0.0686 -0.4487
 7556TIP3    H244084   0.726   1.362  15.382 -1.3799 -1.2685  1.4224
 7557TIP3   OH244085   1.018   0.257   3.135  0.0257  0.6663 -0.0556
 7557TIP3    H144086   0.998   0.210   3.054 -1.6443  2.3079 -0.6218
 7557TIP3    H244087   1.068   0.194   3.187  0.3042 -0.7468 -1.9543
 7558TIP3   OH244088   4.015   2.584   4.507  0.0704  0.0906  0.2427
 7558TIP3    H144089   3.994   2.661   4.560  0.1002 -0.9265  1.7672
 7558TIP3    H244090   3.994   2.510   4.564 -1.2758 -1.0520 -1.7121
 7559TIP3   OH244091   4.172   4.673   2.013 -0.1007  0.1832  0.4714
 7559TIP3    H144092   4.230   4.749   2.014  0.3153 -0.1248  0.0374
 7559TIP3    H244093   4.212   4.613   1.949 -2.7345  1.3877 -2.3850
 7560TIP3   OH244094   2.714   4.489   2.670 -0.1083 -0.2642  0.1573
 7560TIP3    H144095   2.740   4.402   2.639 -0.9735 -0.5868  0.3235
 7560TIP3    H244096   2.786   4.546   2.642  0.3067 -0.9680 -0.2565
 7561TIP3   OH244097   6.693   3.095  11.002 -0.0890  0.1559 -0.0218
 7561TIP3    H144098   6.736   3.017  10.967 -1.7609 -0.8011 -0.0248
 7561TIP3    H244099   6.645   3.131  10.927 -0.6297  0.2473  0.3616
 7562TIP3   OH244100   2.331   5.211   4.457  0.6013  0.0113  0.7867
 7562TIP3    H144101   2.351   5.119   4.443  0.2060  0.2416 -1.4372
 7562TIP3    H244102   2.416   5.254   4.459  0.7254 -0.2102  0.3404
 7563TIP3   OH244103   1.138   2.284   2.269  0.6749  0.2766  0.4583
 7563TIP3    H144104   1.078   2.211   2.253 -0.4102  1.1599  0.3665
 7563TIP3    H244105   1.206   2.248   2.326 -0.6982 -0.4189  1.7013
 7564TIP3   OH244106   0.817   3.214  13.453  0.2783 -0.7651  0.2831
 7564TIP3    H144107   0.887   3.152  13.435  0.4183 -0.8099  0.9722
 7564TIP3    H244108   0.860   3.285  13.500  0.3631  0.4434 -1.5342
 7565TIP3   OH244109   0.589   3.594   5.697  0.1891  0.2567 -0.2643
 7565TIP3    H144110   0.536   3.670   5.672 -0.0051  0.8866  1.9035
 7565TIP3    H244111   0.526   3.524   5.710  0.1229  0.3451 -0.0963
 7566TIP3   OH244112   0.346   6.673  13.595  0.1501  0.5063  0.0033
 7566TIP3    H144113   0.411   6.692  13.662  0.5739 -0.2878 -0.1759
 7566TIP3    H244114   0.279   6.740  13.607 -0.4529 -0.4269  2.0952
 7567TIP3   OH244115   3.531   4.473   5.831 -0.0183  0.2360 -1.0312
 7567TIP3    H144116   3.501   4.507   5.747  1.8428 -1.7865 -2.5849
 7567TIP3    H244117   3.608   4.527   5.853 -1.6420  2.0299  0.3712
 7568TIP3   OH244118   5.725   4.699   1.783  1.1214  0.0183  0.4855
 7568TIP3    H144119   5.791   4.747   1.734  2.7195 -2.5579 -0.0247
 7568TIP3    H244120   5.723   4.612   1.742 -1.8777 -0.3031  1.1409
 7569TIP3   OH244121   3.149   6.719  16.994 -0.0800 -0.4610  0.2084
 7569TIP3    H144122   3.138   6.728  16.899  3.0425  1.4308 -0.0256
 7569TIP3    H244123   3.236   6.682  17.006  0.1552  0.6525  2.3420
 7570TIP3   OH244124   5.704   6.374   1.886  0.1433 -0.0857  0.1991
 7570TIP3    H144125   5.698   6.383   1.981 -0.9422 -1.2869  0.2542
 7570TIP3    H244126   5.630   6.319   1.862  0.9756 -0.6219 -1.2370
 7571TIP3   OH244127   4.770   2.170   2.587 -0.0967 -0.1368  0.1864
 7571TIP3    H144128   4.698   2.116   2.620  1.3701 -1.6742  0.9549
 7571TIP3    H244129   4.770   2.155   2.493  1.1835 -2.6685  0.5388
 7572TIP3   OH244130   4.276   2.086  16.082  0.3963 -0.4292 -1.0369
 7572TIP3    H144131   4.330   2.014  16.048 -0.4182 -1.3582 -0.4097
 7572TIP3    H244132   4.194   2.079  16.033 -0.4090 -1.1496  0.3554
 7573TIP3   OH244133   3.264   6.139   1.393  0.1000  0.1399  0.8443
 7573TIP3    H144134   3.172   6.111   1.390 -0.2294  1.0298  2.2577
 7573TIP3    H244135   3.261   6.232   1.371  0.6092  0.2787  1.3557
 7574TIP3   OH244136   2.833   4.445   0.640 -0.2950 -0.7910 -0.2761
 7574TIP3    H144137   2.899   4.381   0.612 -1.5566 -1.5814 -1.5362
 7574TIP3    H244138   2.800   4.482   0.558 -0.8736  0.1322  0.3773
 7575TIP3   OH244139   3.301   0.759  11.922 -0.4983  0.1849 -0.4384
 7575TIP3    H144140   3.377   0.760  11.980 -0.8232  0.9661 -0.0174
 7575TIP3    H244141   3.320   0.691  11.858  0.0562 -0.3926  0.3320
 7576TIP3   OH244142   3.450   2.395   1.313 -0.0155  0.3241  0.0412
 7576TIP3    H144143   3.536   2.402   1.355  0.4130 -0.9513 -0.5945
 7576TIP3    H244144   3.438   2.301   1.300 -2.6700  0.2653  2.4844
 7577TIP3   OH244145   2.515   0.372  11.761 -0.0686 -0.9406  0.1770
 7577TIP3    H144146   2.591   0.381  11.705  0.1651 -0.8910  0.4977
 7577TIP3    H244147   2.440   0.379  11.702  0.1011  1.6359  0.2139
 7578TIP3   OH244148   0.086   0.143  13.471 -0.5024  0.0526 -0.1319
 7578TIP3    H144149   0.118   0.112  13.555 -1.0230 -0.8337 -0.2579
 7578TIP3    H244150   0.126   0.230  13.461  3.2067 -1.6417 -1.0041
 7579TIP3   OH244151   2.806   2.909   5.837 -0.1966 -0.2612  0.1681
 7579TIP3    H144152   2.829   2.933   5.927 -0.4571 -0.6565  0.3464
 7579TIP3    H244153   2.796   2.992   5.791  0.1291 -0.0616  0.4570
 7580TIP3   OH244154   1.692   2.890  12.454 -0.1169  0.1038  0.2664
 7580TIP3    H144155   1.777   2.913  12.493 -0.1312  0.4997  0.0646
 7580TIP3    H244156   1.628   2.912  12.522 -0.1485  0.8750 -0.0175
 7581TIP3   OH244157   4.626   4.406   0.605  0.3539  0.0143  0.3083
 7581TIP3    H144158   4.638   4.384   0.513 -1.0208 -0.9770  0.3494
 7581TIP3    H244159   4.536   4.379   0.625  0.3516  0.9952  1.7171
 7582TIP3   OH244160   6.199   2.167  11.411 -0.6078  0.3661 -0.3500
 7582TIP3    H144161   6.233   2.209  11.333 -1.1795  0.3158 -0.6319
 7582TIP3    H244162   6.256   2.093  11.427  0.3280  1.1625  0.0680
 7583TIP3   OH244163   5.172   5.118  12.798 -0.6951 -0.2923  0.6963
 7583TIP3    H144164   5.130   5.079  12.722 -0.4584  1.4656 -0.3659
 7583TIP3    H244165   5.260   5.081  12.798 -0.5729 -0.0117 -0.1131
 7584TIP3   OH244166   3.483   3.776  15.691 -0.0958 -0.1199 -0.2219
 7584TIP3    H144167   3.520   3.699  15.648 -0.5019 -1.1436  1.2122
 7584TIP3    H244168   3.407   3.743  15.739 -0.0813  1.1205  0.6802
 7585TIP3   OH244169   1.002   4.918   4.271  0.5234  0.3997 -0.3200
 7585TIP3    H144170   1.004   4.852   4.340  0.9228  1.0805  0.3357
 7585TIP3    H244171   1.094   4.942   4.258  0.4945 -0.0620 -1.4236
 7586TIP3   OH244172   3.031   5.956   1.876  0.2869 -0.0160  0.0299
 7586TIP3    H144173   2.937   5.937   1.870 -0.0386  0.9463  1.7212
 7586TIP3    H244174   3.068   5.880   1.921  0.3692 -0.5342 -0.9103
 7587TIP3   OH244175   3.292   2.265  15.553  0.2239 -0.1591 -0.2002
 7587TIP3    H144176   3.263   2.186  15.507 -1.1028  0.1721  0.0221
 7587TIP3    H244177   3.382   2.278  15.524  0.5464 -1.8988 -0.0370
 7588TIP3   OH244178   0.565   5.507  13.377  0.0381  0.0572  0.4443
 7588TIP3    H144179   0.475   5.528  13.405 -0.5210 -0.3842 -0.9919
 7588TIP3    H244180   0.554   5.441  13.308  1.4265  0.6590 -0.3647
 7589TIP3   OH244181   0.677   6.598  13.912  0.1939  0.3490 -0.0400
 7589TIP3    H144182   0.770   6.599  13.934  0.5172  1.2760 -1.4145
 7589TIP3    H244183   0.641   6.529  13.967  1.9257 -0.9038 -0.4392
 7590TIP3   OH244184   3.167   6.184  13.339 -0.3248 -0.2837  0.1648
 7590TIP3    H144185   3.203   6.099  13.364 -0.2336 -0.3104 -0.0622
 7590TIP3    H244186   3.237   6.226  13.289 -0.7703 -0.5084 -0.6486
 7591TIP3   OH244187   4.722   0.335  15.596 -0.4813  0.7090  0.0366
 7591TIP3    H144188   4.760   0.333  15.509 -2.3503  0.7729 -0.8084
 7591TIP3    H244189   4.779   0.279  15.648 -1.6411 -2.7597 -2.2388
 7592TIP3   OH244190   4.675   6.141   3.998 -0.0828 -0.4004 -0.4463
 7592TIP3    H144191   4.617   6.194   4.052  0.5925 -2.8893  2.8547
 7592TIP3    H244192   4.639   6.052   4.003  1.4948 -1.1724 -1.9810
 7593TIP3   OH244193   3.592   4.590  14.065  0.4909 -0.4177 -0.6588
 7593TIP3    H144194   3.640   4.587  13.983  0.9392  1.1545 -0.4729
 7593TIP3    H244195   3.620   4.672  14.106 -1.3764 -0.1176  0.0547
 7594TIP3   OH244196   2.922   0.284   5.327 -0.0047 -0.3527 -0.0336
 7594TIP3    H144197   2.940   0.356   5.387 -0.0975  1.3567 -1.9867
 7594TIP3    H244198   3.002   0.273   5.277  1.1269 -3.7636  2.3023
 7595TIP3   OH244199   4.898   5.913  15.975  0.2835 -0.4395 -0.2135
 7595TIP3    H144200   4.874   5.986  16.032 -2.1766 -0.7617 -0.7680
 7595TIP3    H244201   4.971   5.946  15.922  0.3284  1.0111  0.7273
 7596TIP3   OH244202   5.063   2.172  12.897 -0.2009 -0.0150 -0.2063
 7596TIP3    H144203   5.022   2.098  12.853 -0.4205  0.2815 -0.5040
 7596TIP3    H244204   5.156   2.163  12.879 -0.4690  1.0772 -2.2173
 7597TIP3   OH244205   6.001   2.468   3.921 -0.5886  0.5100  0.0075
 7597TIP3    H144206   5.982   2.530   3.851 -1.1296 -0.7719 -1.0000
 7597TIP3    H244207   5.930   2.404   3.917  0.0163 -0.2426  0.9475
 7598TIP3   OH244208   3.145   2.181  16.846 -1.1031  0.0862 -0.7091
 7598TIP3    H144209   3.173   2.151  16.932  0.9029  1.4644 -0.8428
 7598TIP3    H244210   3.051   2.162  16.843 -0.7136 -2.2911  0.7744
 7599TIP3   OH244211   0.522   6.374  13.948 -0.1733 -0.2582 -0.2547
 7599TIP3    H144212   0.530   6.285  13.981 -1.6438  0.0986  1.1219
 7599TIP3    H244213   0.439   6.374  13.899 -0.9411  0.7308  1.0243
 7600TIP3   OH244214   0.152   5.110  14.047 -0.0464 -0.6935 -0.1240
 7600TIP3    H144215   0.080   5.150  14.096  0.8438 -0.7691  1.2522
 7600TIP3    H244216   0.215   5.084  14.113  1.4379 -0.2851 -1.3440
 7601TIP3   OH244217   1.860   0.036   2.186 -0.3633 -0.2559 -0.2784
 7601TIP3    H144218   1.797  -0.009   2.242 -0.7984 -0.7351 -1.1379
 7601TIP3    H244219   1.816   0.117   2.161  0.2740  0.4845  0.9704
 7602TIP3   OH244220   5.050   2.659   2.993 -0.2332 -0.1058  0.3911
 7602TIP3    H144221   4.973   2.611   2.963  0.0162 -1.0028  1.1458
 7602TIP3    H244222   5.029   2.751   2.977 -1.3885 -0.3527  0.4107
 7603TIP3   OH244223   6.665   4.033  11.900 -0.0218 -0.4676  0.1440
 7603TIP3    H144224   6.607   4.015  11.826  0.0670  1.3509 -0.3965
 7603TIP3    H244225   6.612   4.014  11.977 -0.5597 -1.0487 -0.3621
 7604TIP3   OH244226   4.220   1.794   0.743  0.4970  0.1162 -0.5345
 7604TIP3    H144227   4.197   1.886   0.727 -1.6753 -0.1365  0.9535
 7604TIP3    H244228   4.306   1.784   0.702  0.3618  2.5651 -1.5328
 7605TIP3   OH244229   3.021   2.758   4.503 -0.1026 -0.8917  0.0926
 7605TIP3    H144230   2.929   2.769   4.477 -0.4738  0.8239  2.0056
 7605TIP3    H244231   3.070   2.816   4.445 -0.6567  1.0371  1.5016
 7606TIP3   OH244232   4.203   5.939  12.411 -0.0369 -0.6421 -0.4188
 7606TIP3    H144233   4.109   5.921  12.414 -0.3279  0.7926 -0.5624
 7606TIP3    H244234   4.236   5.907  12.495 -0.7966 -0.3998 -0.0216
 7607TIP3   OH244235   0.937   1.651   4.430  0.1059 -0.6223 -0.4256
 7607TIP3    H144236   0.947   1.563   4.465  0.4074 -1.0352 -1.5251
 7607TIP3    H244237   1.026   1.681   4.412  0.0164 -0.0265  0.1037
 7608TIP3   OH244238   3.444   2.651  13.025  0.2062  0.5116 -0.1319
 7608TIP3    H144239   3.376   2.587  13.042 -0.4113  1.2741  0.3061
 7608TIP3    H244240   3.491   2.658  13.108  1.3583 -0.6328 -0.6755
 7609TIP3   OH244241   5.023   3.341  13.534 -0.6170  0.0705 -0.5410
 7609TIP3    H144242   4.944   3.288  13.542 -0.2942 -0.2939  0.2945
 7609TIP3    H244243   5.089   3.281  13.499  0.3459 -0.6910  2.4933
 7610TIP3   OH244244   1.214   4.093   6.706  0.3109 -0.0100 -0.3686
 7610TIP3    H144245   1.170   4.111   6.623 -2.0794  0.8177  1.0307
 7610TIP3    H244246   1.278   4.163   6.715  0.4403  0.0141 -1.3867
 7611TIP3   OH244247   4.046   2.763   0.108  0.4289  0.4869 -0.9519
 7611TIP3    H144248   4.029   2.709   0.031  0.8547 -2.1128  0.7063
 7611TIP3    H244249   3.976   2.741   0.169  0.0709  2.5601 -0.5881
 7612TIP3   OH244250   0.639   1.292  12.586  0.3997  0.5849 -0.6276
 7612TIP3    H144251   0.549   1.323  12.593  0.8155  1.7102 -0.0598
 7612TIP3    H244252   0.692   1.372  12.583  1.3953 -0.0626 -0.6794
 7613TIP3   OH244253   6.185   5.949  11.944 -0.3173  0.2786 -0.1538
 7613TIP3    H144254   6.123   5.963  11.873  0.4637  0.2770 -0.8506
 7613TIP3    H244255   6.173   6.025  12.001 -0.6882  0.4682 -0.4838
 7614TIP3   OH244256   1.737   1.031   3.664 -0.9196  0.5180 -0.0431
 7614TIP3    H144257   1.756   1.056   3.755 -1.9597 -0.0506  0.3393
 7614TIP3    H244258   1.686   1.104   3.630 -2.1067 -0.0867  0.4076
 7615TIP3   OH244259   1.572   2.149   3.734 -0.6573 -0.0730  0.5951
 7615TIP3    H144260   1.621   2.094   3.794 -0.0177 -0.6477 -0.4270
 7615TIP3    H244261   1.509   2.195   3.789 -0.1642 -0.6704  1.6756
 7616TIP3   OH244262   6.658   3.862   4.363  0.0433 -0.1454  0.0168
 7616TIP3    H144263   6.750   3.869   4.336 -0.3015  2.5016 -0.5288
 7616TIP3    H244264   6.650   3.923   4.436 -1.0655 -1.0940  0.7024
 7617TIP3   OH244265   0.632   3.304  13.262 -0.4677  0.1157 -0.2546
 7617TIP3    H144266   0.704   3.260  13.308 -0.8655 -2.0826 -1.6465
 7617TIP3    H244267   0.557   3.246  13.275 -1.3738  1.1217 -0.9294
 7618TIP3   OH244268   3.630   2.681   5.736 -0.0563  0.4004  0.2310
 7618TIP3    H144269   3.651   2.650   5.824 -2.8639  1.0128  1.1626
 7618TIP3    H244270   3.701   2.742   5.715  1.2033 -0.5378  1.6362
 7619TIP3   OH244271   5.902   3.559  14.173 -0.2076  0.3333  0.4091
 7619TIP3    H144272   5.821   3.610  14.174  0.2872  1.1395 -0.1051
 7619TIP3    H244273   5.881   3.480  14.123 -1.2743 -0.4814  2.1043
 7620TIP3   OH244274   0.443   3.749   5.906  0.6925  0.1830 -0.2299
 7620TIP3    H144275   0.457   3.717   5.996  1.4406 -1.8355 -1.0187
 7620TIP3    H244276   0.463   3.842   5.910 -1.2912  0.5575  2.1390
 7621TIP3   OH244277   2.821   0.374  14.551  0.6952 -0.1882  0.0639
 7621TIP3    H144278   2.904   0.375  14.597  0.2207 -0.2657  0.9211
 7621TIP3    H244279   2.837   0.321  14.473  1.4234 -0.2734  0.2745
 7622TIP3   OH244280   6.343   1.040   3.835  0.2773 -0.1562 -0.3752
 7622TIP3    H144281   6.380   1.114   3.882 -0.5747  0.5691 -0.8286
 7622TIP3    H244282   6.382   0.963   3.876  0.4101  0.5033  0.7572
 7623TIP3   OH244283   2.978   5.149  15.277 -0.1199 -0.0576 -0.0799
 7623TIP3    H144284   3.052   5.166  15.220 -0.6539  2.6478 -0.0493
 7623TIP3    H244285   2.901   5.154  15.219 -0.6407  2.4463  0.7532
 7624TIP3   OH244286   4.276   2.289  10.386  0.1199 -0.2476 -0.4099
 7624TIP3    H144287   4.186   2.259  10.375  0.0009 -0.2161  0.3835
 7624TIP3    H244288   4.320   2.217  10.431  0.6709 -0.5376 -1.3965
 7625TIP3   OH244289   1.273   4.352   4.073  0.0799 -0.4286 -0.6411
 7625TIP3    H144290   1.281   4.435   4.120  0.9485 -0.9524  0.1567
 7625TIP3    H244291   1.272   4.377   3.981 -1.6421  0.6066 -0.3554
 7626TIP3   OH244292   5.097   3.085   3.469 -0.6728 -0.2450 -0.1468
 7626TIP3    H144293   5.164   3.119   3.529 -1.9798 -0.0942  1.2675
 7626TIP3    H244294   5.145   3.066   3.388  0.7649  1.4633  0.2617
 7627TIP3   OH244295   3.322   0.344   3.715  0.0769 -0.3747  0.0992
 7627TIP3    H144296   3.270   0.324   3.638 -1.5241  0.7367  0.8599
 7627TIP3    H244297   3.308   0.437   3.730 -0.0917 -0.6775  2.0379
 7628TIP3   OH244298   0.924   6.700  12.226 -0.1738  0.5705  0.6675
 7628TIP3    H144299   0.833   6.685  12.201  0.3538 -2.0876  0.2293
 7628TIP3    H244300   0.919   6.726  12.319 -1.3606  0.4785  0.6385
 7629TIP3   OH244301   4.240   5.357  12.615 -0.3945 -0.2392  0.1700
 7629TIP3    H144302   4.225   5.450  12.598  0.0342 -0.2004  0.0097
 7629TIP3    H244303   4.316   5.335  12.563 -0.9024 -0.8464 -0.3254
 7630TIP3   OH244304   6.500   4.443   3.074  0.3459 -0.5867  0.5125
 7630TIP3    H144305   6.596   4.435   3.068  0.2901 -0.2062 -1.0108
 7630TIP3    H244306   6.485   4.536   3.091  0.2886 -0.8642  2.0672
 7631TIP3   OH244307   3.990   2.086  15.446 -0.4576  0.2104  0.0025
 7631TIP3    H144308   4.044   2.058  15.519 -0.9641  2.7722  1.4338
 7631TIP3    H244309   3.965   2.005  15.401  2.6148 -1.1571  0.6559
 7632TIP3   OH244310   0.944   2.174  11.624 -0.7170 -0.7248  0.6195
 7632TIP3    H144311   0.966   2.105  11.562  0.1439 -0.7773  0.9739
 7632TIP3    H244312   0.931   2.252  11.570  0.8468 -0.5795  0.4280
 7633TIP3   OH244313   1.938   1.476   0.456  0.2973  0.1133  0.0579
 7633TIP3    H144314   2.009   1.499   0.515  0.6985 -0.4338 -0.2114
 7633TIP3    H244315   1.928   1.381   0.465 -0.2550  0.1538 -0.0646
 7634TIP3   OH244316   0.278   5.936   3.566  0.1197 -0.1393 -0.2255
 7634TIP3    H144317   0.195   5.944   3.519 -0.2149  1.5284  0.6163
 7634TIP3    H244318   0.329   6.012   3.537  0.9204 -0.5335  0.1354
 7635TIP3   OH244319   0.253   4.294   1.595  0.1087 -0.3113  0.6809
 7635TIP3    H144320   0.198   4.361   1.554 -0.0879 -0.0533  1.3430
 7635TIP3    H244321   0.338   4.304   1.554 -0.1166 -0.1452  0.2475
 7636TIP3   OH244322   1.029   6.313  11.534 -0.1142 -0.5353  0.1008
 7636TIP3    H144323   1.094   6.341  11.469 -1.1735  0.7746 -0.4265
 7636TIP3    H244324   0.975   6.391  11.549 -1.9252 -1.7392  0.0714
 7637TIP3   OH244325   4.304   3.336   0.224 -0.1139 -0.2466  0.0029
 7637TIP3    H144326   4.396   3.363   0.221 -0.5796  1.3993 -0.0102
 7637TIP3    H244327   4.259   3.408   0.270 -1.2096 -1.5832  1.0787
 7638TIP3   OH244328   0.899   1.863   4.767  0.0821 -0.0832  0.1416
 7638TIP3    H144329   0.821   1.902   4.806 -0.4568 -0.2322 -0.7685
 7638TIP3    H244330   0.955   1.938   4.744 -0.2637  0.0800 -0.1749
 7639TIP3   OH244331   5.849   3.398  11.591  0.5560 -0.4042 -0.3165
 7639TIP3    H144332   5.795   3.399  11.512 -0.6954 -1.1588  0.5019
 7639TIP3    H244333   5.937   3.379  11.560  0.0664 -0.7897 -1.5117
 7640TIP3   OH244334   1.342   2.319   0.916 -0.0315 -0.0771  0.0303
 7640TIP3    H144335   1.437   2.305   0.918 -0.2357 -1.3976  2.8332
 7640TIP3    H244336   1.328   2.378   0.842  2.7471 -1.4300 -1.6445
 7641TIP3   OH244337   0.396   0.944   2.648 -0.0141 -0.3812 -0.4134
 7641TIP3    H144338   0.378   0.850   2.646  1.3229 -0.6419 -0.6365
 7641TIP3    H244339   0.485   0.950   2.684 -0.6294  0.8698  0.9341
 7642TIP3   OH244340   5.286   0.049  10.387  0.3892 -0.2455 -0.2838
 7642TIP3    H144341   5.290  -0.015  10.315  1.3668  0.8447 -1.2269
 7642TIP3    H244342   5.262  -0.003  10.464 -0.6867 -1.4417 -1.3870
 7643TIP3   OH244343   1.858   3.795  16.208  0.7303  0.0501  0.2096
 7643TIP3    H144344   1.954   3.805  16.202  0.8399 -1.2886 -0.6155
 7643TIP3    H244345   1.846   3.711  16.251 -0.0191 -1.9239 -3.6660
 7644TIP3   OH244346   5.977   5.540   5.984 -0.2677  0.5041 -0.3374
 7644TIP3    H144347   5.908   5.593   6.022 -1.4542 -0.3207 -1.2982
 7644TIP3    H244348   6.049   5.543   6.048 -0.9656  1.8477  0.3815
 7645TIP3   OH244349   2.815   1.530  16.185 -0.2733  0.3028 -0.0936
 7645TIP3    H144350   2.743   1.563  16.239 -1.0661 -0.9390 -0.3894
 7645TIP3    H244351   2.880   1.500  16.248 -0.7548 -0.1869  0.1709
 7646TIP3   OH244352   4.961   1.963  13.602 -0.1906 -0.0969 -0.0162
 7646TIP3    H144353   4.873   1.949  13.567 -0.1857  0.1568 -0.1345
 7646TIP3    H244354   4.950   2.035  13.665  0.2072  0.9864 -1.1506
 7647TIP3   OH244355   4.741   6.437  17.042  0.3038 -0.0717  0.0598
 7647TIP3    H144356   4.799   6.505  17.077  1.7128 -1.0477 -0.3387
 7647TIP3    H244357   4.661   6.445  17.095  0.1827  2.3155 -0.4251
 7648TIP3   OH244358   1.806   3.043  10.738  0.5756 -0.0188 -0.5420
 7648TIP3    H144359   1.753   2.967  10.712  1.0310 -0.3684 -0.4689
 7648TIP3    H244360   1.843   3.018  10.823  0.6116  0.3430 -0.4503
 7649TIP3   OH244361   4.185   6.487  16.917 -0.1602 -0.1666 -0.5861
 7649TIP3    H144362   4.097   6.506  16.886 -0.9667 -1.3930  0.8740
 7649TIP3    H244363   4.220   6.424  16.855 -0.0763  0.8035 -1.5258
 7650TIP3   OH244364   4.064   0.067   0.557  0.3283 -0.9405 -0.4854
 7650TIP3    H144365   4.024   0.143   0.515  2.8546 -0.1894 -1.7068
 7650TIP3    H244366   3.992   0.008   0.574 -1.5700  1.3135 -0.4241
 7651TIP3   OH244367   0.411   6.330   3.223 -0.2035  0.1287  0.0996
 7651TIP3    H144368   0.434   6.295   3.137  0.0263 -0.5041  0.4175
 7651TIP3    H244369   0.440   6.421   3.220  0.2953 -0.0370 -0.3015
 7652TIP3   OH244370   3.710   3.569  14.149  0.5400  0.1032 -0.0858
 7652TIP3    H144371   3.757   3.624  14.087 -3.4575  0.4227 -3.0499
 7652TIP3    H244372   3.644   3.626  14.187 -1.6988 -1.8078 -0.9491
 7653TIP3   OH244373   0.010   4.172   2.873  0.0934  0.5404  0.1773
 7653TIP3    H144374  -0.052   4.234   2.837  1.1184  1.6597  0.3166
 7653TIP3    H244375   0.081   4.169   2.809  0.0243 -0.5471  0.1346
 7654TIP3   OH244376   2.595   2.497   3.884 -0.2252  0.2280 -0.3693
 7654TIP3    H144377   2.534   2.424   3.870 -0.4657  1.1044 -4.3910
 7654TIP3    H244378   2.678   2.467   3.848  0.0506  1.4271 -0.7476
 7655TIP3   OH244379   0.793   2.312   2.196 -0.0958  0.1057  0.3516
 7655TIP3    H144380   0.824   2.238   2.248 -2.5469 -0.4931  1.0096
 7655TIP3    H244381   0.719   2.277   2.146 -0.7753  1.9169  0.0688
 7656TIP3   OH244382   4.850   1.820  14.589  0.1291 -0.4847  0.0748
 7656TIP3    H144383   4.795   1.802  14.513 -2.0996  1.1160  1.2621
 7656TIP3    H244384   4.794   1.800  14.664  1.5029  0.2630  1.3255
 7657TIP3   OH244385   1.510   1.761  12.513 -0.3836 -0.1382 -0.0336
 7657TIP3    H144386   1.444   1.764  12.444  0.3532  0.2680 -0.7242
 7657TIP3    H244387   1.486   1.832  12.572  0.1785  0.8428 -0.9690
 7658TIP3   OH244388   5.412   1.572  11.212 -0.2907  0.1003  0.0786
 7658TIP3    H144389   5.472   1.549  11.140 -1.2630 -0.5196 -0.5427
 7658TIP3    H244390   5.464   1.628  11.270  0.1092  1.7167 -1.7965
 7659TIP3   OH244391   3.342   4.401   1.848 -1.0275 -0.1790 -0.3990
 7659TIP3    H144392   3.323   4.307   1.852 -0.0978 -0.5003 -2.7769
 7659TIP3    H244393   3.430   4.406   1.809 -0.9865  1.6783 -0.1153
 7660TIP3   OH244394   4.380   5.678   1.791 -0.1719  0.2895  0.2414
 7660TIP3    H144395   4.426   5.595   1.805 -1.1457 -0.0926  1.2081
 7660TIP3    H244396   4.418   5.737   1.856 -0.1504  0.3298  0.1913
 7661TIP3   OH244397   0.786   2.496   1.739  0.3048  0.4219  0.2917
 7661TIP3    H144398   0.877   2.503   1.711 -0.8141 -0.0095 -3.7869
 7661TIP3    H244399   0.762   2.405   1.722 -1.5714  1.1398 -1.1550
 7662TIP3   OH244400   5.764   6.704   0.382 -0.2900 -0.4304 -0.2672
 7662TIP3    H144401   5.818   6.674   0.310  1.0942  1.1447  0.0934
 7662TIP3    H244402   5.825   6.745   0.444 -1.5707 -0.8001  1.3035
 7663TIP3   OH244403   5.558   0.866  14.843  0.6428 -0.1081  0.0585
 7663TIP3    H144404   5.542   0.950  14.800  1.1056 -0.1325 -0.1602
 7663TIP3    H244405   5.621   0.822  14.786 -0.1807 -0.9171 -0.2294
 7664TIP3   OH244406   1.213   0.165   4.107 -0.3015 -0.1097 -0.0409
 7664TIP3    H144407   1.231   0.231   4.040  0.5802 -0.4022 -0.0981
 7664TIP3    H244408   1.257   0.086   4.074  2.1593  0.3393  2.0022
 7665TIP3   OH244409   6.346   4.911   6.569  0.0654  0.4527  0.5199
 7665TIP3    H144410   6.258   4.889   6.600 -0.0150 -0.9075 -0.6522
 7665TIP3    H244411   6.365   4.995   6.611 -0.8291 -0.3761  2.6730
 7666TIP3   OH244412   5.775   2.924  15.829  0.4881 -0.7307  0.1574
 7666TIP3    H144413   5.814   2.863  15.766  1.9613 -0.7682  1.0916
 7666TIP3    H244414   5.785   2.881  15.914  0.1510  0.1407  0.6469
 7667TIP3   OH244415   1.383   3.635  14.299 -0.1226 -0.0610 -0.8771
 7667TIP3    H144416   1.440   3.713  14.299 -0.9120  0.5660  1.3528
 7667TIP3    H244417   1.406   3.590  14.380 -1.5410 -0.7462 -0.8543
 7668TIP3   OH244418   0.214   3.042  15.326 -0.3409 -0.3255  0.0001
 7668TIP3    H144419   0.265   2.988  15.265 -2.1607  1.5517 -3.3146
 7668TIP3    H244420   0.126   3.003  15.324 -0.8392  0.7880  0.0693
 7669TIP3   OH244421   3.839   0.845  12.020 -0.4965  0.3100 -0.7582
 7669TIP3    H144422   3.863   0.928  12.062 -3.2292  0.7796 -0.0474
 7669TIP3    H244423   3.920   0.794  12.019  0.5000  1.7894  1.5938
 7670TIP3   OH244424   5.596   3.412   1.330  0.2758 -0.7369  0.3373
 7670TIP3    H144425   5.519   3.447   1.376 -1.3765 -0.4564 -2.5206
 7670TIP3    H244426   5.649   3.488   1.311  0.1362 -0.6525  0.2855
 7671TIP3   OH244427   6.325   1.986  15.388 -0.3720 -0.4737  0.3186
 7671TIP3    H144428   6.261   1.994  15.317 -0.7981 -0.7537  0.6745
 7671TIP3    H244429   6.352   2.076  15.406 -3.0270 -0.0230  2.3372
 7672TIP3   OH244430   2.392   6.501  16.962  0.3423  0.0009 -0.3153
 7672TIP3    H144431   2.297   6.506  16.945  0.1462 -1.7974  0.1447
 7672TIP3    H244432   2.404   6.543  17.047 -0.3125 -1.4423  0.4982
 7673TIP3   OH244433   2.264   3.659   0.484 -0.0474 -0.1352 -0.0564
 7673TIP3    H144434   2.325   3.662   0.558  1.3785  3.0314 -1.2381
 7673TIP3    H244435   2.208   3.736   0.495 -1.1144 -0.7199 -1.2046
 7674TIP3   OH244436   3.383   1.316  16.655  0.3770  0.3855 -0.1649
 7674TIP3    H144437   3.352   1.405  16.643 -2.6658 -0.9182 -2.4008
 7674TIP3    H244438   3.464   1.311  16.604  0.6678  1.8828  0.1327
 7675TIP3   OH244439   0.806   5.905   1.287  0.3534 -0.0355 -0.5611
 7675TIP3    H144440   0.900   5.887   1.288  0.8478  2.0963 -2.6808
 7675TIP3    H244441   0.800   6.000   1.285 -1.9033 -0.1166  1.0607
 7676TIP3   OH244442   3.564   4.238   3.030 -0.4980 -0.5092  0.5279
 7676TIP3    H144443   3.511   4.277   2.961 -0.3866 -0.3400  0.5376
 7676TIP3    H244444   3.621   4.176   2.984 -0.6351 -0.6195  0.5058
 7677TIP3   OH244445   6.528   2.539  13.608  0.1595 -0.1690 -0.4336
 7677TIP3    H144446   6.467   2.468  13.628  1.1151 -1.4741 -2.0417
 7677TIP3    H244447   6.480   2.619  13.631 -2.9174 -1.0515 -3.5125
 7678TIP3   OH244448   6.565   5.240   3.625 -0.2011  0.5726 -0.3801
 7678TIP3    H144449   6.482   5.255   3.581  0.6190 -0.1850 -2.2969
 7678TIP3    H244450   6.623   5.207   3.555  2.3229  3.0952  0.4072
 7679TIP3   OH244451   1.359   4.460   2.196 -0.2672  0.5522  0.6234
 7679TIP3    H144452   1.328   4.398   2.130 -0.4481 -0.6243  1.7936
 7679TIP3    H244453   1.454   4.460   2.185 -0.3745  1.3353 -0.4711
 7680TIP3   OH244454   4.638   0.989   3.469 -0.0132 -0.0950 -0.0377
 7680TIP3    H144455   4.568   0.927   3.448 -0.1233 -0.5763  1.6730
 7680TIP3    H244456   4.603   1.043   3.539  1.0715  0.1088  0.3690
 7681TIP3   OH244457   0.270   5.294   2.717 -0.1814 -0.1098  0.4967
 7681TIP3    H144458   0.195   5.342   2.753 -0.1863 -0.8286  1.4724
 7681TIP3    H244459   0.330   5.285   2.790  1.1605  0.9966 -0.4367
 7682TIP3   OH244460   0.738   2.473  16.908  0.0828  0.0689  0.0191
 7682TIP3    H144461   0.662   2.513  16.867 -2.0649 -2.5908  1.2508
 7682TIP3    H244462   0.721   2.480  17.002  1.4869 -0.3443  0.3269
 7683TIP3   OH244463   3.201   3.458   2.662 -0.0500 -0.0346 -0.0992
 7683TIP3    H144464   3.136   3.511   2.616  0.3834 -0.3695 -1.1133
 7683TIP3    H244465   3.150   3.388   2.703 -0.5361  0.7441  0.6291
 7684TIP3   OH244466   5.622   0.885   1.410 -0.1537 -0.7014 -0.9192
 7684TIP3    H144467   5.589   0.948   1.345  0.3069 -0.2343 -0.7080
 7684TIP3    H244468   5.629   0.936   1.491  0.3400 -0.9984 -0.7751
 7685TIP3   OH244469   3.676   5.933  14.028  0.3506 -0.0061 -0.1964
 7685TIP3    H144470   3.601   5.890  13.988  0.1642 -0.7723  0.9307
 7685TIP3    H244471   3.728   5.861  14.064  1.5371  0.5278 -0.8202
 7686TIP3   OH244472   0.524   5.841   5.056  0.6704  0.3778  0.3340
 7686TIP3    H144473   0.613   5.807   5.054  0.9610  1.1219  0.8773
 7686TIP3    H244474   0.509   5.873   4.967 -0.5028 -3.4396 -0.9720
 7687TIP3   OH244475   6.445   3.137  16.439 -0.5493  0.3335  0.1108
 7687TIP3    H144476   6.353   3.110  16.448  0.3675 -2.5278  1.5066
 7687TIP3    H244477   6.480   3.080  16.371 -0.3851  3.1378 -2.2465
 7688TIP3   OH244478   6.629   5.801   4.265 -0.0091 -0.0605 -0.9776
 7688TIP3    H144479   6.708   5.750   4.247 -0.8852 -1.9347  0.2574
 7688TIP3    H244480   6.598   5.829   4.179  1.4740 -0.1349 -1.5379
 7689TIP3   OH244481   5.081   5.736   3.182 -0.0892 -0.6332 -0.3510
 7689TIP3    H144482   5.118   5.793   3.250 -0.7756 -0.3297 -0.2211
 7689TIP3    H244483   5.139   5.660   3.180 -0.4037 -0.9385  1.0224
 7690TIP3   OH244484   6.387   0.702   5.019  0.7262  0.1569  0.0476
 7690TIP3    H144485   6.396   0.790   4.984  3.2935 -0.4883 -0.9923
 7690TIP3    H244486   6.464   0.689   5.074 -1.5345 -0.0869  3.3008
 7691TIP3   OH244487   6.086   3.778  14.468  0.0027 -0.9085 -0.2329
 7691TIP3    H144488   6.138   3.769  14.548  0.0092 -0.3514 -0.1692
 7691TIP3    H244489   6.002   3.737  14.490  0.1811 -1.2050 -0.1071
 7692TIP3   OH244490   3.540   5.868   0.710 -0.8019  0.5667 -0.6118
 7692TIP3    H144491   3.493   5.853   0.628 -1.0659 -0.0597 -0.3472
 7692TIP3    H244492   3.512   5.797   0.768  1.8244 -0.8890 -1.0309
 7693TIP3   OH244493   5.334   1.570   2.398  0.8175  0.2001  0.0885
 7693TIP3    H144494   5.407   1.529   2.445 -0.5788 -2.5684 -0.0487
 7693TIP3    H244495   5.256   1.525   2.429 -0.3488 -0.3642 -3.3806
 7694TIP3   OH244496   0.077   5.666   0.407 -0.3720  0.0828 -0.3337
 7694TIP3    H144497   0.115   5.676   0.320 -0.2350 -0.5866 -0.3558
 7694TIP3    H244498  -0.017   5.679   0.394 -0.4175 -0.5953 -0.6843
 7695TIP3   OH244499   1.251   0.121   5.958 -0.0577  0.2484  0.2201
 7695TIP3    H144500   1.288   0.060   5.894 -1.8984 -1.1458  0.4398
 7695TIP3    H244501   1.295   0.099   6.040 -0.6698 -0.7729  0.2869
 7696TIP3   OH244502   0.368   4.912   4.299  0.1855  0.6131  0.0122
 7696TIP3    H144503   0.433   4.949   4.359  0.6266  0.3424 -0.2926
 7696TIP3    H244504   0.284   4.940   4.335  0.5129  2.0798 -0.3232
 7697TIP3   OH244505   1.915   6.635   1.201  0.1865  0.5878  0.0168
 7697TIP3    H144506   1.966   6.716   1.202 -2.7571  2.5459 -1.0873
 7697TIP3    H244507   1.927   6.601   1.112  0.4320  0.4882  0.0887
 7698TIP3   OH244508   2.855   0.832  12.612  1.2514  0.5631 -0.1493
 7698TIP3    H144509   2.838   0.789  12.696  0.4695  0.3120 -0.4305
 7698TIP3    H244510   2.768   0.853  12.578  1.5680  0.6879 -0.8830
 7699TIP3   OH244511   5.859   5.434  12.857 -0.0489  0.2816 -0.1513
 7699TIP3    H144512   5.817   5.475  12.782 -0.9865  0.5469  0.5168
 7699TIP3    H244513   5.951   5.427  12.831 -0.0610  1.8402 -0.6960
 7700TIP3   OH244514   6.180   5.171  13.766 -0.1713  0.6934  0.0571
 7700TIP3    H144515   6.194   5.146  13.675 -0.0681 -0.6005  0.4184
 7700TIP3    H244516   6.268   5.195  13.798 -0.2660  1.5229 -0.2771
 7701TIP3   OH244517   4.665   3.948   0.647  0.0924 -0.3598 -0.0138
 7701TIP3    H144518   4.732   3.883   0.665 -0.5090 -0.7015  1.0323
 7701TIP3    H244519   4.582   3.902   0.664 -0.3973  0.1052 -1.1041
 7702TIP3   OH244520   6.568   2.482   2.498  0.1255 -0.4453  0.1233
 7702TIP3    H144521   6.572   2.461   2.405 -1.8119  0.3969 -0.1684
 7702TIP3    H244522   6.478   2.461   2.524 -1.6803  6.0542  0.1159
 7703TIP3   OH244523   5.013   2.852  14.623  0.3355 -0.6465 -0.0487
 7703TIP3    H144524   4.952   2.908  14.670  1.1741 -1.5443  2.1692
 7703TIP3    H244525   5.045   2.907  14.551 -0.0984  1.1617  1.1078
 7704TIP3   OH244526   6.056   3.735  14.009 -0.8842  0.5476 -0.2243
 7704TIP3    H144527   5.969   3.733  14.049 -0.9006  2.7815 -0.0594
 7704TIP3    H244528   6.116   3.747  14.083 -0.6417  1.3016 -0.5332
 7705TIP3   OH244529   3.613   1.261   6.407 -0.4584 -0.4219 -0.1658
 7705TIP3    H144530   3.708   1.273   6.402 -0.3570 -0.9622  0.5492
 7705TIP3    H244531   3.577   1.348   6.386  0.1869 -0.2031 -0.3788
 7706TIP3   OH244532   2.280   2.627  15.678  0.0566 -0.5806 -0.1733
 7706TIP3    H144533   2.234   2.694  15.730 -1.8732 -0.0739 -2.4591
 7706TIP3    H244534   2.258   2.545  15.722 -2.2707 -0.2431 -0.6269
 7707TIP3   OH244535   4.782   0.084  12.779 -0.0032 -0.2973 -0.2307
 7707TIP3    H144536   4.739   0.141  12.843  0.3718 -0.1774 -0.0884
 7707TIP3    H244537   4.847   0.139  12.736 -0.7141 -0.1936 -1.1933
 7708TIP3   OH244538   2.625   4.889  15.223  0.0103 -0.0129 -0.2400
 7708TIP3    H144539   2.580   4.814  15.261  1.5373 -0.6637  0.3319
 7708TIP3    H244540   2.714   4.859  15.208  0.3905  1.3826 -0.9301
 7709TIP3   OH244541   6.094   4.522   2.832 -0.3006 -0.4901  0.5683
 7709TIP3    H144542   6.001   4.544   2.826 -0.2410 -0.4942 -0.5218
 7709TIP3    H244543   6.110   4.464   2.758  0.3984 -1.1375  1.2195
 7710TIP3   OH244544   1.702   4.889  10.344  0.3730 -0.4757  0.0197
 7710TIP3    H144545   1.768   4.949  10.379 -1.2023 -0.4368  3.0432
 7710TIP3    H244546   1.619   4.933  10.361 -0.5706 -1.3790 -2.0800
 7711TIP3   OH244547   2.331   3.371  10.669  0.4172 -0.1593  0.3381
 7711TIP3    H144548   2.353   3.282  10.695  1.5644  0.2395  0.7652
 7711TIP3    H244549   2.237   3.378  10.684  0.1762 -1.5424 -0.4653
 7712TIP3   OH244550   4.178   5.416   5.097  0.4227 -0.5875 -0.1805
 7712TIP3    H144551   4.134   5.466   5.028  0.2471 -0.2141  0.2053
 7712TIP3    H244552   4.271   5.422   5.074  0.7660  2.7951  1.7212
 7713TIP3   OH244553   0.354   2.460   5.427  0.2796  0.0381 -0.0675
 7713TIP3    H144554   0.320   2.438   5.513  0.2535  0.1830 -0.0409
 7713TIP3    H244555   0.388   2.550   5.436 -0.4267  0.3425 -0.4079
 7714TIP3   OH244556   6.781   5.129   3.038  0.3905 -0.2369  0.4901
 7714TIP3    H144557   6.756   5.219   3.017  0.1693 -0.2462  0.7107
 7714TIP3    H244558   6.702   5.090   3.075 -0.8418 -1.8229 -3.4847
 7715TIP3   OH244559   1.181   0.396   5.990  0.1777  0.1792 -0.2664
 7715TIP3    H144560   1.232   0.423   6.066  1.3780  1.3682 -1.4533
 7715TIP3    H244561   1.224   0.315   5.961 -0.2922 -0.2835  0.3372
 7716TIP3   OH244562   5.226   5.576  11.193 -0.1376  0.2761  0.1224
 7716TIP3    H144563   5.230   5.484  11.220 -0.6994  0.0205 -0.6277
 7716TIP3    H244564   5.134   5.590  11.168  0.0202  0.9344 -0.1119
 7717TIP3   OH244565   5.085   6.448  13.869  0.8624  0.0239  0.3125
 7717TIP3    H144566   4.993   6.453  13.895  0.9368  2.7964  0.1956
 7717TIP3    H244567   5.134   6.473  13.947  1.5290 -1.2561  0.3167
 7718TIP3   OH244568   2.436   0.337  16.639  0.4620  0.4578  0.3286
 7718TIP3    H144569   2.470   0.256  16.678  1.3861  0.2131 -0.9692
 7718TIP3    H244570   2.367   0.308  16.580 -0.9041  0.8303  1.6949
 7719TIP3   OH244571   2.741   2.888  16.160  0.0339  0.3606 -0.3439
 7719TIP3    H144572   2.648   2.900  16.179  0.6216  1.2126  2.1966
 7719TIP3    H244573   2.755   2.937  16.079 -1.5204  1.0706 -0.2049
 7720TIP3   OH244574   5.841   5.137  12.584 -0.3472  0.1108  0.1489
 7720TIP3    H144575   5.847   5.061  12.526 -2.3254  0.7209 -0.8879
 7720TIP3    H244576   5.872   5.210  12.531  1.5112  0.0616  1.1310
 7721TIP3   OH244577   1.362   3.443   0.827  0.3733  0.4585  0.5926
 7721TIP3    H144578   1.362   3.351   0.854 -0.1713  0.1147 -0.5267
 7721TIP3    H244579   1.291   3.482   0.877  0.1257  0.1010  0.5251
 7722TIP3   OH244580   3.534   4.414  16.191 -0.0583 -0.3097  0.4347
 7722TIP3    H144581   3.445   4.448  16.202 -0.4863 -1.1808 -0.3064
 7722TIP3    H244582   3.562   4.392  16.280 -1.0805 -1.2663  0.5283
 7723TIP3   OH244583   1.140   0.980  13.208 -0.1213  0.5112 -0.2760
 7723TIP3    H144584   1.101   1.042  13.147  0.1164  1.4310  0.4829
 7723TIP3    H244585   1.188   0.918  13.153  1.3398  2.2102 -0.9481
 7724TIP3   OH244586   2.385   2.130  15.761 -0.0506 -0.1290 -0.1882
 7724TIP3    H144587   2.315   2.082  15.716 -0.6702  1.2335 -0.6864
 7724TIP3    H244588   2.464   2.081  15.740 -0.3191  0.5017 -2.8201
 7725TIP3   OH244589   5.856   3.838   2.963 -0.1017  0.4734 -0.7531
 7725TIP3    H144590   5.831   3.764   3.019  0.5524 -1.1874 -2.5716
 7725TIP3    H244591   5.951   3.843   2.973 -0.1750  1.2561 -0.4319
 7726TIP3   OH244592   3.100   6.032   5.712 -0.1682  0.0381  0.5371
 7726TIP3    H144593   3.122   6.125   5.707  0.1314  0.0134  1.2828
 7726TIP3    H244594   3.185   5.988   5.721 -0.2864 -0.3265 -0.1528
 7727TIP3   OH244595   3.293   4.706  12.530 -0.0148  0.3425 -0.0864
 7727TIP3    H144596   3.258   4.729  12.444 -0.0131 -0.3806 -0.2788
 7727TIP3    H244597   3.381   4.745  12.530 -0.2911  0.9726 -0.1276
 7728TIP3   OH244598   3.742   3.940   0.539 -0.6656 -0.3362 -0.3532
 7728TIP3    H144599   3.679   3.869   0.548  0.0841 -0.7978  1.5082
 7728TIP3    H244600   3.822   3.906   0.579  0.8178  0.2094 -2.7499
 7729TIP3   OH244601   3.322   4.894  15.434  1.2126  0.9811  0.7240
 7729TIP3    H144602   3.269   4.937  15.501 -1.4628 -1.1562  0.0915
 7729TIP3    H244603   3.366   4.965  15.388 -0.4334  2.7817  1.8746
 7730TIP3   OH244604   3.340   4.556  11.375  0.6925  0.1428  0.3521
 7730TIP3    H144605   3.250   4.585  11.361  0.5745 -0.5119 -0.2573
 7730TIP3    H244606   3.336   4.461  11.367  1.4826  0.1332  0.0512
 7731TIP3   OH244607   4.190   2.241   4.375 -0.5523  0.0785  0.4585
 7731TIP3    H144608   4.106   2.198   4.388  0.2459 -1.4583  0.6746
 7731TIP3    H244609   4.244   2.208   4.447 -0.7851  3.7538  2.4116
 7732TIP3   OH244610   0.758   3.154   5.886 -0.0625 -0.3102  0.3453
 7732TIP3    H144611   0.684   3.179   5.942 -1.0567 -1.8403 -0.2453
 7732TIP3    H244612   0.835   3.171   5.939 -0.9550 -1.0491  1.9103
 7733TIP3   OH244613   4.570   6.784   4.226 -0.0305  0.5015 -0.1531
 7733TIP3    H144614   4.603   6.703   4.265 -1.1071  0.7071  1.2132
 7733TIP3    H244615   4.634   6.851   4.252  0.1520  0.3367 -0.1747
 7734TIP3   OH244616   0.201   5.762   1.584 -0.6617  0.1248  0.1374
 7734TIP3    H144617   0.258   5.738   1.511 -0.9933 -0.2824  0.0090
 7734TIP3    H244618   0.246   5.835   1.627 -0.1345 -0.0731 -0.0707
 7735TIP3   OH244619   3.558   2.050   6.326 -0.0432 -0.2187 -0.6807
 7735TIP3    H144620   3.561   2.135   6.370  1.5420  0.6653 -2.4410
 7735TIP3    H244621   3.593   1.988   6.391 -0.3243  0.6027  0.2696
 7736TIP3   OH244622   4.683   4.019  14.336 -0.2485  0.4820 -0.0676
 7736TIP3    H144623   4.699   4.042  14.427  1.1993 -0.0557 -0.1629
 7736TIP3    H244624   4.770   3.994  14.302 -0.7027  1.0119 -1.6831
 7737TIP3   OH244625   2.139   5.100  12.367  0.3629  0.4335 -0.0544
 7737TIP3    H144626   2.176   5.046  12.437  0.7866  0.4512 -0.2678
 7737TIP3    H244627   2.208   5.107  12.302  0.1949  0.9655 -0.1797
 7738TIP3   OH244628   1.150   0.335   5.249  0.5675  0.5262 -0.8146
 7738TIP3    H144629   1.235   0.340   5.206  1.4846 -1.2386  0.7253
 7738TIP3    H244630   1.113   0.252   5.219 -1.3408  2.0209 -2.7275
 7739TIP3   OH244631   2.250   1.588  10.854 -0.0659 -0.7449  0.0361
 7739TIP3    H144632   2.305   1.510  10.844 -1.0536 -1.4687  0.1974
 7739TIP3    H244633   2.175   1.558  10.904 -0.0760  0.5088  0.7917
 7740TIP3   OH244634   3.955   1.452   2.327 -0.0936 -0.0414  0.1459
 7740TIP3    H144635   3.951   1.547   2.341 -0.1160 -0.0925  0.4839
 7740TIP3    H244636   3.955   1.415   2.415 -2.1515 -0.4400 -0.0164
 7741TIP3   OH244637   6.664   1.921  15.793 -0.5859 -0.1986 -0.0608
 7741TIP3    H144638   6.758   1.927  15.808 -0.4241 -0.1806 -1.0465
 7741TIP3    H244639   6.642   2.001  15.744 -0.6917 -1.3043 -1.8738
 7742TIP3   OH244640   1.856   4.397   5.604 -0.1265  0.8967 -0.0364
 7742TIP3    H144641   1.846   4.489   5.582 -2.0873  0.3259 -1.7664
 7742TIP3    H244642   1.854   4.352   5.520  1.6006 -0.6736  0.7312
 7743TIP3   OH244643   2.639   1.074  14.401 -0.1987  0.4456 -0.0263
 7743TIP3    H144644   2.630   0.996  14.346 -1.6690  1.2440 -0.9241
 7743TIP3    H244645   2.566   1.069  14.462  0.5204  0.3967  0.8541
 7744TIP3   OH244646   1.733   2.088   1.360  0.0844  0.0293 -0.0314
 7744TIP3    H144647   1.744   2.111   1.268  0.6488 -1.9558 -0.4775
 7744TIP3    H244648   1.638   2.091   1.374 -0.0335 -0.1291 -0.7927
 7745TIP3   OH244649   4.686   1.893  13.210  0.1569  0.0301 -0.1246
 7745TIP3    H144650   4.729   1.921  13.129  0.8806 -0.8098 -0.0431
 7745TIP3    H244651   4.594   1.886  13.187  0.3445 -0.1025 -0.8549
 7746TIP3   OH244652   1.080   5.875   1.212 -0.5309  0.5211 -0.1075
 7746TIP3    H144653   1.160   5.883   1.160  0.0582  1.2356  0.9023
 7746TIP3    H244654   1.098   5.923   1.293 -1.0814 -1.3843  1.1951
 7747TIP3   OH244655   5.321   6.067  16.003 -0.4644  0.0137  0.2698
 7747TIP3    H144656   5.294   6.152  16.035 -0.2609  0.1679  0.0369
 7747TIP3    H244657   5.400   6.084  15.953 -1.4799 -0.0319 -1.3982
 7748TIP3   OH244658   3.570   5.659   4.327  0.4058 -0.4595  0.3212
 7748TIP3    H144659   3.605   5.606   4.399  1.0463  0.5805  0.7798
 7748TIP3    H244660   3.606   5.746   4.341  0.2270 -0.1509 -1.0536
 7749TIP3   OH244661   0.004   3.657   3.922 -0.2775 -0.1260 -0.4695
 7749TIP3    H144662   0.006   3.752   3.909 -0.2799  0.2602  1.9569
 7749TIP3    H244663   0.075   3.640   3.985 -0.8516 -1.6019 -0.1930
 7750TIP3   OH244664   2.900   4.343   5.976  0.3689 -0.3835  0.3400
 7750TIP3    H144665   2.950   4.262   5.986 -0.0078 -0.5953  0.5559
 7750TIP3    H244666   2.827   4.318   5.919 -1.0569 -0.7993  2.2848
 7751TIP3   OH244667   4.569   1.165  12.554 -0.1709  0.8270  0.2331
 7751TIP3    H144668   4.582   1.212  12.636 -2.4438  0.9678  0.5559
 7751TIP3    H244669   4.532   1.230  12.494 -2.2145 -0.1991  0.3211
 7752TIP3   OH244670   4.840   1.199   5.657  0.1839  0.1804  0.0381
 7752TIP3    H144671   4.846   1.275   5.714  2.4250  0.2213 -0.2330
 7752TIP3    H244672   4.807   1.129   5.714 -0.8358  1.0589  0.5452
 7753TIP3   OH244673   0.447   6.314  16.839 -0.4727  0.2812 -0.5414
 7753TIP3    H144674   0.509   6.357  16.780 -2.6594  4.1596 -0.2104
 7753TIP3    H244675   0.486   6.322  16.926  0.5012 -1.0873 -0.8457
 7754TIP3   OH244676   0.923   0.671   2.725  0.2374  0.0256  0.2547
 7754TIP3    H144677   0.886   0.607   2.665 -0.2339 -0.0664  0.6377
 7754TIP3    H244678   0.851   0.693   2.784  0.6694  0.1636  0.7386
 7755TIP3   OH244679   3.644   1.232   5.817  0.0039 -0.4200 -0.0053
 7755TIP3    H144680   3.723   1.285   5.808  1.3008 -2.6743 -2.3151
 7755TIP3    H244681   3.630   1.226   5.912  1.9840  0.8616  0.4026
 7756TIP3   OH244682   0.024   1.500   4.661 -0.3924 -0.5621 -0.0548
 7756TIP3    H144683  -0.058   1.450   4.656  0.1713 -1.3970 -1.2584
 7756TIP3    H244684   0.052   1.491   4.752 -0.9987 -1.2921  0.0704
 7757TIP3   OH244685   4.435   4.371   1.130 -0.1298  0.1455  0.4206
 7757TIP3    H144686   4.390   4.431   1.190 -0.2073  0.7206 -0.2081
 7757TIP3    H244687   4.496   4.322   1.186 -0.2922  0.5837  0.9861
 7758TIP3   OH244688   4.667   0.237  15.063 -0.0657 -0.5448  0.5839
 7758TIP3    H144689   4.699   0.319  15.026 -0.0704 -0.7061  0.2186
 7758TIP3    H244690   4.670   0.175  14.990 -2.6056 -0.1991  0.1414
 7759TIP3   OH244691   0.939   6.518   2.858  0.2278 -0.1878 -0.0530
 7759TIP3    H144692   0.870   6.584   2.860 -0.2752 -0.7051  0.0514
 7759TIP3    H244693   0.899   6.441   2.898  0.7711 -0.5862 -0.2673
 7760TIP3   OH244694   5.427   4.489   2.028  0.0677  0.1551  0.0631
 7760TIP3    H144695   5.353   4.540   1.994  0.3837  0.0625 -0.7724
 7760TIP3    H244696   5.485   4.478   1.953  0.3824 -0.7558  0.4345
 7761TIP3   OH244697   1.615   0.084  15.870  0.2680 -0.0954  0.8589
 7761TIP3    H144698   1.555   0.037  15.812  1.6008 -1.1503  0.2929
 7761TIP3    H244699   1.621   0.028  15.948 -1.7046  1.4358  2.1386
 7762TIP3   OH244700   1.119   3.710  14.744 -0.1065  0.0384  0.0550
 7762TIP3    H144701   1.146   3.636  14.799 -0.2995 -0.9118 -1.1004
 7762TIP3    H244702   1.065   3.764  14.802  1.2926  0.0874  1.3461
 7763TIP3   OH244703   3.947   0.551   0.073  0.5678 -0.1334  0.1548
 7763TIP3    H144704   3.999   0.539   0.153 -0.7514 -0.2885  1.0022
 7763TIP3    H244705   3.874   0.606   0.101 -0.4943 -1.0996 -0.7036
 7764TIP3   OH244706   1.992   4.171   6.084 -0.5536  0.1469 -0.4437
 7764TIP3    H144707   2.082   4.200   6.103 -1.1784  1.3361  0.7960
 7764TIP3    H244708   1.979   4.194   5.992  0.3047  0.2735 -0.5410
 7765TIP3   OH244709   4.983   1.485   1.608  0.3013 -0.3101  0.0033
 7765TIP3    H144710   5.045   1.473   1.680  0.2725 -0.7843 -0.0452
 7765TIP3    H244711   4.941   1.569   1.625  0.9349  0.0019  0.0575
 7766TIP3   OH244712   3.273   1.459   4.134  0.0687 -0.0383  0.4034
 7766TIP3    H144713   3.245   1.548   4.156 -0.6579 -0.3184  0.6202
 7766TIP3    H244714   3.222   1.403   4.192  1.7732 -0.5066  1.4673
 7767TIP3   OH244715   2.165   0.456   1.643 -0.2151 -0.2787  0.0633
 7767TIP3    H144716   2.106   0.448   1.718  0.8722 -2.0727  0.7574
 7767TIP3    H244717   2.244   0.408   1.669  1.7326  2.4065 -0.6879
 7768TIP3   OH244718   1.132   5.918   5.696 -0.0312 -0.0949  0.3873
 7768TIP3    H144719   1.119   5.938   5.789 -1.0536 -0.8592  0.4088
 7768TIP3    H244720   1.170   5.999   5.660  0.8780  0.0172  1.5680
 7769TIP3   OH244721   2.829   6.438  13.895  0.4307  0.5487  0.3051
 7769TIP3    H144722   2.772   6.407  13.824  0.1725 -0.7201  1.0497
 7769TIP3    H244723   2.854   6.358  13.942  2.3043  1.1575  0.3821
 7770TIP3   OH244724   3.422   1.158  13.263 -0.4043 -0.1530 -0.4350
 7770TIP3    H144725   3.385   1.239  13.226 -0.3838  0.9472  1.8862
 7770TIP3    H244726   3.345   1.111  13.297 -0.0547  0.6311  1.5008
 7771TIP3   OH244727   4.038   5.397  16.208 -0.0967  0.2594 -0.2219
 7771TIP3    H144728   4.129   5.418  16.188  0.3588  0.2900  1.7219
 7771TIP3    H244729   3.987   5.440  16.139  1.4956 -2.1482 -2.9813
 7772TIP3   OH244730   0.140   6.691   4.803  0.3223  0.7169  0.2647
 7772TIP3    H144731   0.128   6.740   4.884 -0.4035  0.1381  0.5131
 7772TIP3    H244732   0.138   6.757   4.734 -1.5509  0.9558  0.5275
 7773TIP3   OH244733   3.949   1.130   4.016 -0.4933  0.4506  0.0903
 7773TIP3    H144734   3.963   1.205   3.958  0.2250 -0.1331 -0.4992
 7773TIP3    H244735   3.933   1.057   3.957 -0.3903 -0.0247  0.6446
 7774TIP3   OH244736   0.921   5.757   1.783 -0.6645  0.2544  0.1279
 7774TIP3    H144737   0.897   5.849   1.781 -1.4197  0.0388 -1.3039
 7774TIP3    H244738   0.943   5.739   1.874 -3.4921  1.0920  1.0003
 7775TIP3   OH244739   0.896   0.080  10.683  0.5531  0.0523  0.0043
 7775TIP3    H144740   0.856   0.122  10.607 -0.0437  2.5103  1.5938
 7775TIP3    H244741   0.987   0.112  10.683  0.1805  1.1790  1.0479
 7776TIP3   OH244742   0.629   2.778  16.794 -0.3178 -0.0113 -0.2680
 7776TIP3    H144743   0.539   2.800  16.770 -0.3259 -0.4935 -0.6756
 7776TIP3    H244744   0.673   2.761  16.711  0.0970  0.0114 -0.0555
 7777TIP3   OH244745   3.543   3.598   6.118 -0.1629  0.5310  0.6110
 7777TIP3    H144746   3.593   3.601   6.199  1.9859  0.8677 -0.6740
 7777TIP3    H244747   3.565   3.513   6.080 -0.6288  0.6499  0.0733
 7778TIP3   OH244748   3.087   4.881  13.613  0.5944 -0.2841  0.1829
 7778TIP3    H144749   3.177   4.914  13.614  1.1563 -1.7711  1.0309
 7778TIP3    H244750   3.097   4.785  13.615 -0.9992 -0.4798 -0.5934
 7779TIP3   OH244751   4.695   0.986  15.362 -0.1770  0.4179 -0.1968
 7779TIP3    H144752   4.707   0.939  15.280 -0.2211  0.1752 -0.0653
 7779TIP3    H244753   4.662   1.072  15.336  1.0305  0.7956 -0.5048
 7780TIP3   OH244754   2.344   3.499   2.787 -0.0526  0.1956  0.3056
 7780TIP3    H144755   2.303   3.585   2.774  1.9663  1.2820  0.8204
 7780TIP3    H244756   2.335   3.483   2.881 -1.3472 -0.6500  0.0423
 7781TIP3   OH244757   0.063   3.781  15.889 -0.3530  0.0082  0.1294
 7781TIP3    H144758   0.150   3.768  15.849  0.6337  0.6633  1.9951
 7781TIP3    H244759   0.013   3.703  15.864  2.1151 -2.4430  2.4811
 7782TIP3   OH244760   1.573   0.718   1.631 -0.3273 -0.3781 -0.0917
 7782TIP3    H144761   1.592   0.801   1.676 -0.1914 -0.0718 -0.7110
 7782TIP3    H244762   1.657   0.692   1.592 -0.6141 -0.2731 -0.7761
 7783TIP3   OH244763   0.477   2.410  12.295 -0.3554  0.3050 -0.7340
 7783TIP3    H144764   0.570   2.430  12.307  0.5310 -3.0811 -1.6228
 7783TIP3    H244765   0.459   2.435  12.205 -0.5053  1.5232 -0.3849
 7784TIP3   OH244766   4.941   0.732   1.672 -0.1567 -0.3046 -0.3364
 7784TIP3    H144767   4.938   0.701   1.762  0.5317 -3.0703 -1.2043
 7784TIP3    H244768   4.982   0.818   1.678  2.3350 -1.5587  1.7545
 7785TIP3   OH244769   1.650   4.535  12.564 -0.0493 -0.1470 -0.7655
 7785TIP3    H144770   1.578   4.590  12.595  1.6162  0.8392  1.4275
 7785TIP3    H244771   1.655   4.464  12.627  0.2587 -0.7662 -1.4780
 7786TIP3   OH244772   3.977   5.180  16.841  0.1183  0.1504 -0.4237
 7786TIP3    H144773   3.887   5.161  16.815  0.7076 -1.1731 -1.5367
 7786TIP3    H244774   4.019   5.211  16.761  0.5902  1.0618  0.1584
 7787TIP3   OH244775   4.970   5.364  16.022 -0.7129  0.1221  0.0557
 7787TIP3    H144776   4.989   5.428  15.954  1.0502 -0.6804 -0.2357
 7787TIP3    H244777   4.928   5.291  15.977 -1.4624  0.4868  0.1647
 7788TIP3   OH244778   4.241   3.319   1.610 -0.3703  0.0324 -0.4496
 7788TIP3    H144779   4.175   3.384   1.632 -0.1993 -0.6674  2.3810
 7788TIP3    H244780   4.289   3.357   1.536 -0.4487  3.0082  0.9579
 7789TIP3   OH244781   5.219   4.608  13.720  0.0396  0.6495  0.1168
 7789TIP3    H144782   5.190   4.662  13.646 -0.5602  0.6871  0.3741
 7789TIP3    H244783   5.191   4.519  13.696  2.5852  0.1483 -1.1224
 7790TIP3   OH244784   6.430   4.922  16.515  0.1384 -0.2410  1.1036
 7790TIP3    H144785   6.344   4.950  16.485  1.0648  0.1935 -1.2169
 7790TIP3    H244786   6.470   4.879  16.439  2.3157  0.3319  1.8617
 7791TIP3   OH244787   2.148   4.019  11.680  0.0463  0.2322 -0.4014
 7791TIP3    H144788   2.217   3.955  11.698  0.8267  0.6459 -1.8019
 7791TIP3    H244789   2.097   3.980  11.609 -0.7550  0.2300  0.1700
 7792TIP3   OH244790   0.835   0.810   5.054  0.0490  0.2076  0.0948
 7792TIP3    H144791   0.846   0.837   4.963 -2.4918 -3.4948 -1.4313
 7792TIP3    H244792   0.842   0.715   5.052  1.3169  0.1475  4.0256
 7793TIP3   OH244793   6.038   6.528  13.123  0.3849  0.5030  0.5812
 7793TIP3    H144794   6.087   6.459  13.168  2.4312  2.1387  0.9217
 7793TIP3    H244795   6.012   6.588  13.193  1.3122  1.6892 -0.0786
 7794TIP3   OH244796   6.670   0.067  13.955 -0.0880  0.3000 -0.0672
 7794TIP3    H144797   6.738   0.133  13.967 -0.1901  0.4550 -0.3330
 7794TIP3    H244798   6.632   0.055  14.042  0.1910  0.3077  0.0566
 7795TIP3   OH244799   6.244   3.921   1.949  0.4253 -0.0286  0.4238
 7795TIP3    H144800   6.215   3.832   1.966 -0.3294  0.0834 -0.2728
 7795TIP3    H244801   6.182   3.976   1.997  0.2105  0.1694 -0.0853
 7796TIP3   OH244802   2.155   3.943  12.692 -0.4139 -1.0399 -0.0949
 7796TIP3    H144803   2.091   4.014  12.700  0.8872  0.2235 -0.7941
 7796TIP3    H244804   2.179   3.921  12.782  1.3478  1.3831  0.0387
 7797TIP3   OH244805   2.038   3.432   2.794 -0.3060  0.1067  0.3641
 7797TIP3    H144806   2.133   3.434   2.777  0.0893 -0.5890  2.3806
 7797TIP3    H244807   2.005   3.512   2.753  1.3406  1.0012  0.7449
 7798TIP3   OH244808   5.254   4.703  16.897 -0.0703 -0.1047  0.0877
 7798TIP3    H144809   5.242   4.792  16.928 -1.2848 -0.3580  0.3558
 7798TIP3    H244810   5.232   4.648  16.972 -1.4308 -0.6794 -0.7152
 7799TIP3   OH244811   4.170   5.140  16.316 -0.4851  0.2228 -0.2028
 7799TIP3    H144812   4.093   5.192  16.293  0.1083  0.4666 -1.7205
 7799TIP3    H244813   4.223   5.139  16.236  0.0014 -1.8689  0.1177
 7800TIP3   OH244814   2.820   6.304   5.440 -0.0348  0.0209 -0.4901
 7800TIP3    H144815   2.909   6.269   5.433  0.2053  0.9379 -2.5406
 7800TIP3    H244816   2.818   6.349   5.524  1.3037 -0.3488 -0.2458
 7801TIP3   OH244817   2.670   0.546  14.411  0.4515 -0.0380  0.0058
 7801TIP3    H144818   2.720   0.483  14.462 -1.4570 -1.0666  0.6866
 7801TIP3    H244819   2.675   0.514  14.321 -1.2958 -1.7646  0.4804
 7802TIP3   OH244820   0.475   3.852  11.712  0.0053  0.1440 -0.0050
 7802TIP3    H144821   0.385   3.840  11.679 -0.2212  0.2717  0.5557
 7802TIP3    H244822   0.504   3.763  11.731  0.1015  0.0770 -0.4508
 7803TIP3   OH244823   4.459   2.188   5.140 -0.0572 -0.0690 -0.0544
 7803TIP3    H144824   4.451   2.274   5.182  1.6317 -0.7445  1.7109
 7803TIP3    H244825   4.522   2.202   5.070 -0.1264  0.2457 -0.0570
 7804TIP3   OH244826   4.199   2.980   5.777  0.0548  0.0650  0.7395
 7804TIP3    H144827   4.196   2.936   5.862  0.8362 -0.1028  0.6822
 7804TIP3    H244828   4.211   3.073   5.798  1.4276 -0.1097  0.7972
 7805TIP3   OH244829   5.786   3.147  13.812 -0.1575  0.1954 -0.2621
 7805TIP3    H144830   5.734   3.097  13.749  0.4889  0.6613 -1.1703
 7805TIP3    H244831   5.816   3.224  13.764  0.5515  0.4340  0.5358
 7806TIP3   OH244832   2.574   2.531  12.705 -0.5492  0.5781 -0.7034
 7806TIP3    H144833   2.666   2.512  12.723 -0.9642 -0.5937  0.2605
 7806TIP3    H244834   2.571   2.551  12.612  0.9269  2.1695 -0.4426
 7807TIP3   OH244835   5.125   2.852  16.241  0.3470 -0.1610  0.5976
 7807TIP3    H144836   5.067   2.795  16.291 -0.9490 -0.0776 -0.7600
 7807TIP3    H244837   5.203   2.799  16.224 -0.4614 -1.2265  0.1483
 7808TIP3   OH244838   3.336   0.209   2.846  0.2649 -0.0816 -0.4494
 7808TIP3    H144839   3.271   0.279   2.850  1.7223  1.2235  1.6910
 7808TIP3    H244840   3.304   0.144   2.908  1.0016  0.5987  0.6672
 7809TIP3   OH244841   5.087   3.708   3.010  0.6101 -0.3561  0.3407
 7809TIP3    H144842   5.167   3.718   2.959  2.8936  0.2447  3.9425
 7809TIP3    H244843   5.105   3.751   3.093 -1.8989 -4.0174  2.9135
 7810TIP3   OH244844   2.731   5.392  13.520  0.0123  0.8099 -0.4829
 7810TIP3    H144845   2.701   5.310  13.481  0.8043 -0.3024  1.2125
 7810TIP3    H244846   2.824   5.378  13.538  0.5039  2.6102 -1.4849
 7811TIP3   OH244847   3.303   3.196   5.807 -0.2197  0.3808 -0.5024
 7811TIP3    H144848   3.235   3.200   5.875  0.2637 -0.3032  0.0252
 7811TIP3    H244849   3.256   3.214   5.726 -0.5935  2.5076  0.1467
 7812TIP3   OH244850   1.662   2.796   5.936  0.1988 -0.0462  0.0021
 7812TIP3    H144851   1.657   2.891   5.926 -0.3849 -0.3618 -3.0168
 7812TIP3    H244852   1.623   2.780   6.022 -1.0227  2.3189 -0.0501
 7813TIP3   OH244853   0.742   1.272   0.124  0.1212  0.0280  0.0816
 7813TIP3    H144854   0.741   1.346   0.064 -1.5402  0.0391  0.0909
 7813TIP3    H244855   0.831   1.238   0.119  1.7084  3.5868  2.0335
 7814TIP3   OH244856   0.519   0.190  13.613 -0.2601  0.1394 -0.2801
 7814TIP3    H144857   0.433   0.207  13.575 -0.7894  1.2098  1.3553
 7814TIP3    H244858   0.503   0.123  13.679  0.1013  0.5844  0.2615
 7815TIP3   OH244859   4.239   6.269   0.388 -0.4446 -0.3042 -0.6869
 7815TIP3    H144860   4.147   6.242   0.390 -0.1062 -1.4244  1.5390
 7815TIP3    H244861   4.251   6.308   0.302 -3.3107  0.9165 -0.5820
 7816TIP3   OH244862   5.637   2.641  12.616 -0.3780 -0.2648  0.0988
 7816TIP3    H144863   5.717   2.590  12.603 -0.1777  0.2091 -0.6075
 7816TIP3    H244864   5.569   2.594  12.568 -0.5330 -0.6803  0.7202
 7817TIP3   OH244865   2.005   1.959  15.248 -0.4368 -0.0502  0.1721
 7817TIP3    H144866   2.073   2.025  15.263 -0.9485  0.5829 -0.2723
 7817TIP3    H244867   2.044   1.900  15.183 -1.6111  2.3160 -2.7891
 7818TIP3   OH244868   1.341   0.650  14.008  0.1226 -0.4964 -0.5099
 7818TIP3    H144869   1.374   0.585  14.070  3.2581 -0.1760 -1.7495
 7818TIP3    H244870   1.304   0.599  13.936  1.6701 -0.9689 -1.0046
 7819TIP3   OH244871   0.045   1.870   3.117  0.3122  0.7248 -0.6608
 7819TIP3    H144872  -0.048   1.872   3.094  0.7662  0.7567 -2.5901
 7819TIP3    H244873   0.049   1.817   3.196 -0.8058 -3.5323 -3.3224
 7820TIP3   OH244874   6.205   6.439   1.090 -0.3090  0.0785 -0.1710
 7820TIP3    H144875   6.246   6.456   1.175  1.1763  0.9483 -1.0386
 7820TIP3    H244876   6.143   6.368   1.106  0.9922 -0.7340  1.3327
 7821TIP3   OH244877   4.297   1.273   6.365  0.2857 -0.0706  0.7169
 7821TIP3    H144878   4.312   1.337   6.435 -0.5942  2.3403 -1.2425
 7821TIP3    H244879   4.222   1.306   6.317  0.9358 -1.6380 -1.4701
 7822TIP3   OH244880   2.458   2.293  12.451 -0.1612 -0.6251  0.1086
 7822TIP3    H144881   2.492   2.361  12.392 -1.2780  0.2577  0.4628
 7822TIP3    H244882   2.461   2.213  12.399 -0.2890 -0.0191 -0.8502
 7823TIP3   OH244883   2.023   6.240   2.803 -0.2795  0.3700  0.2258
 7823TIP3    H144884   2.007   6.263   2.894 -1.5786  0.8009 -0.1035
 7823TIP3    H244885   2.117   6.220   2.799 -0.1640  0.6347  1.5857
 7824TIP3   OH244886   3.472   6.083   3.624  0.0784 -0.4710  0.5154
 7824TIP3    H144887   3.473   5.991   3.651  0.0843 -0.0167  2.1641
 7824TIP3    H244888   3.385   6.096   3.586 -0.9270 -0.5217  2.7261
 7825TIP3   OH244889   4.246   2.213   5.872  0.0275 -0.5484  0.3177
 7825TIP3    H144890   4.323   2.271   5.873 -0.2563 -0.1786  0.8097
 7825TIP3    H244891   4.200   2.234   5.953 -0.2093 -1.2899  0.3716
 7826TIP3   OH244892   0.976   0.122   6.053 -0.4592 -0.4814 -0.0254
 7826TIP3    H144893   0.996   0.174   6.131  0.7831 -1.3388  0.2361
 7826TIP3    H244894   1.062   0.094   6.021 -1.0521 -1.2835 -0.9064
 7827TIP3   OH244895   3.048   0.948  16.396  0.0411 -0.5194 -0.0973
 7827TIP3    H144896   2.967   0.944  16.345 -0.4585 -0.9716  0.7314
 7827TIP3    H244897   3.061   0.859  16.429  1.0457 -0.5263 -0.4767
 7828TIP3   OH244898   5.681   1.163   0.902 -0.3676 -0.1242  0.4704
 7828TIP3    H144899   5.722   1.231   0.955 -1.1421 -0.5423  1.6548
 7828TIP3    H244900   5.604   1.205   0.864 -0.5949 -0.2090  0.8330
 7829TIP3   OH244901   2.889   2.052  16.894 -0.5167 -0.3354 -0.9154
 7829TIP3    H144902   2.913   1.994  16.966 -0.9552  1.2361  0.5344
 7829TIP3    H244903   2.805   2.089  16.921 -1.5537 -1.0690 -3.0603
 7830TIP3   OH244904   6.677   0.996  15.419  0.3399  0.1036  0.6978
 7830TIP3    H144905   6.661   0.917  15.367 -1.3488 -0.2878  1.7822
 7830TIP3    H244906   6.724   0.965  15.496  0.1045  0.2293  0.8925
 7831TIP3   OH244907   0.905   2.731   0.959  0.0996 -0.2133  0.1241
 7831TIP3    H144908   0.850   2.657   0.934  0.6862 -0.4713 -0.4127
 7831TIP3    H244909   0.942   2.705   1.044 -1.9508  0.6999  1.3149
 7832TIP3   OH244910   1.715   5.140   4.945  0.4999  0.1043 -0.2539
 7832TIP3    H144911   1.668   5.175   4.869  0.6322 -0.3227 -0.5377
 7832TIP3    H244912   1.710   5.045   4.934  0.3102  0.0428  0.4051
 7833TIP3   OH244913   3.333   0.017  13.104 -0.3513 -0.3300  0.6491
 7833TIP3    H144914   3.407  -0.014  13.155 -0.2771  1.3716  1.5859
 7833TIP3    H244915   3.292  -0.063  13.071  1.5301 -1.3077  0.6179
 7834TIP3   OH244916   4.411   4.484  15.286  0.2660 -0.1453 -0.3471
 7834TIP3    H144917   4.473   4.428  15.240  0.7192 -0.3524  0.5098
 7834TIP3    H244918   4.444   4.573  15.273  1.2333 -0.3211  0.8341
 7835TIP3   OH244919   5.688   3.993  16.325 -0.6489 -0.2073 -0.2789
 7835TIP3    H144920   5.668   3.901  16.343 -1.5483 -0.2200 -1.2675
 7835TIP3    H244921   5.660   4.040  16.404 -1.6305 -0.6044 -0.3835
 7836TIP3   OH244922   3.883   4.260  15.333  0.4634 -0.4733 -0.0176
 7836TIP3    H144923   3.825   4.225  15.401  1.1725 -0.4383  0.5996
 7836TIP3    H244924   3.966   4.215  15.346  0.2890 -1.3174 -1.5765
 7837TIP3   OH244925   5.534   6.545   5.233  0.6596  0.3606  0.1148
 7837TIP3    H144926   5.582   6.610   5.183  0.1188  0.2011 -0.6120
 7837TIP3    H244927   5.565   6.556   5.323  0.7741  1.4294 -0.0550
 7838TIP3   OH244928   6.601   5.132   4.482 -0.2861 -0.0833  0.4973
 7838TIP3    H144929   6.605   5.037   4.496  0.6125 -0.0991  0.1499
 7838TIP3    H244930   6.664   5.168   4.544 -0.0671  0.2289  0.0922
 7839TIP3   OH244931   4.786   2.244  12.853 -0.3558  0.2464  0.5134
 7839TIP3    H144932   4.834   2.259  12.771 -0.3673  2.4214  0.8694
 7839TIP3    H244933   4.846   2.193  12.907  0.2460  0.0871 -0.2955
 7840TIP3   OH244934   1.271   3.530  13.167 -0.1517  0.3062  0.1215
 7840TIP3    H144935   1.216   3.515  13.244 -0.4258 -0.2535 -0.1782
 7840TIP3    H244936   1.245   3.461  13.105 -0.1708  0.9551 -0.5997
 7841TIP3   OH244937   0.836   1.300   0.827 -0.2654  0.6508 -0.5490
 7841TIP3    H144938   0.761   1.276   0.771 -1.7560 -0.1012  1.6905
 7841TIP3    H244939   0.903   1.236   0.805 -1.4742 -0.7670 -0.2297
 7842TIP3   OH244940   3.349   6.358   3.301  0.0023 -0.0860 -0.0172
 7842TIP3    H144941   3.266   6.312   3.289  0.4550 -1.0790  0.5820
 7842TIP3    H244942   3.336   6.411   3.380  0.3199 -1.1088  0.7183
 7843TIP3   OH244943   0.655   4.652   1.224  0.3903 -0.2186  0.3236
 7843TIP3    H144944   0.745   4.623   1.239 -0.4893 -1.4797  3.6266
 7843TIP3    H244945   0.641   4.641   1.130  3.3967 -0.8558 -0.0766
 7844TIP3   OH244946   1.720   4.808   3.774 -0.6107 -0.3206  0.4525
 7844TIP3    H144947   1.631   4.840   3.787 -1.6989 -2.9269 -0.3311
 7844TIP3    H244948   1.763   4.821   3.858 -1.1243  2.7330  0.3038
 7845TIP3   OH244949   6.095   1.492   4.550  0.6817 -0.2940  0.1487
 7845TIP3    H144950   6.028   1.425   4.563  1.0621 -0.4678  1.2651
 7845TIP3    H244951   6.102   1.535   4.635  3.1198 -1.3125  0.4974
 7846TIP3   OH244952   5.578   6.778  12.585  0.4282  0.2342 -0.3766
 7846TIP3    H144953   5.634   6.855  12.571 -0.1104  0.7943  0.4832
 7846TIP3    H244954   5.548   6.754  12.498  1.9438 -0.0338 -0.8492
 7847TIP3   OH244955   1.832   6.293  11.531 -0.0307 -0.0436  0.2651
 7847TIP3    H144956   1.751   6.330  11.565 -0.4420 -0.7289  0.0417
 7847TIP3    H244957   1.824   6.301  11.436 -0.0513 -0.5591  0.2244
 7848TIP3   OH244958   0.528   1.866   5.508 -0.4752 -0.4038  0.3739
 7848TIP3    H144959   0.507   1.773   5.521 -0.8450 -0.6279 -1.7187
 7848TIP3    H244960   0.451   1.913   5.540 -1.2120 -0.9165 -0.6385
 7849TIP3   OH244961   0.538   4.016   2.372  0.9436  0.5223  0.7288
 7849TIP3    H144962   0.455   3.993   2.415  0.5817  0.4415 -0.0109
 7849TIP3    H244963   0.603   3.963   2.417  0.4955  0.0866  0.8699
 7850TIP3   OH244964   5.641   6.243  14.826 -0.1464 -0.4137 -0.2788
 7850TIP3    H144965   5.602   6.156  14.839 -0.6994 -0.1032  0.1627
 7850TIP3    H244966   5.571   6.295  14.787  0.2097 -0.1892 -0.6158
 7851TIP3   OH244967   5.072   2.793   1.858  0.4020 -1.0398 -0.4745
 7851TIP3    H144968   5.094   2.817   1.768 -0.3581 -0.7956 -0.5947
 7851TIP3    H244969   5.067   2.698   1.858  1.4662 -1.1007 -0.4454
 7852TIP3   OH244970   4.202   6.353  13.349  0.4572 -0.1478  0.0650
 7852TIP3    H144971   4.153   6.390  13.275  0.4704  1.7439  0.9636
 7852TIP3    H244972   4.213   6.427  13.409  1.8011 -1.2871  1.2488
 7853TIP3   OH244973   3.527   4.752   6.100 -0.1015 -0.0123  0.8081
 7853TIP3    H144974   3.565   4.783   6.182 -0.4767  1.5655  0.4040
 7853TIP3    H244975   3.516   4.658   6.113 -1.6178  0.4440  3.1530
 7854TIP3   OH244976   3.291   6.236  12.329 -0.2118 -0.0752 -0.0793
 7854TIP3    H144977   3.204   6.275  12.319 -0.3978 -0.3935  0.2933
 7854TIP3    H244978   3.303   6.184  12.249 -0.5737 -0.4293  0.0899
 7855TIP3   OH244979   1.600   3.380   4.271 -0.5833  0.7502 -0.1418
 7855TIP3    H144980   1.595   3.445   4.341  0.1775 -0.4513  1.0478
 7855TIP3    H244981   1.588   3.431   4.191  1.3268  2.5767  0.6790
 7856TIP3   OH244982   4.017   3.101   4.611  0.1931  0.2156  0.1728
 7856TIP3    H144983   3.955   3.139   4.549  0.1775  0.2023  0.1806
 7856TIP3    H244984   4.103   3.115   4.570 -0.0611 -3.3787 -1.8305
 7857TIP3   OH244985   3.468   2.717  12.406 -0.1993 -0.0224  0.2767
 7857TIP3    H144986   3.484   2.792  12.463  1.7749 -1.1221  1.2426
 7857TIP3    H244987   3.494   2.748  12.319  0.6193  0.4246  0.6712
 7858TIP3   OH244988   3.350   5.133   5.554 -0.2790  0.6082  0.5457
 7858TIP3    H144989   3.273   5.168   5.600  0.6280  1.4404  1.4666
 7858TIP3    H244990   3.421   5.143   5.617  0.8312  1.0039 -0.7483
 7859TIP3   OH244991   2.420   2.271  15.981  0.8186  0.5230  0.8488
 7859TIP3    H144992   2.386   2.231  16.061  2.0228 -1.5619  0.3536
 7859TIP3    H244993   2.412   2.203  15.914  2.6724  1.1894 -0.0881
 7860TIP3   OH244994   2.773   1.872   1.698 -0.6203 -0.1823 -0.2613
 7860TIP3    H144995   2.740   1.953   1.737 -0.3678 -0.3323  0.2738
 7860TIP3    H244996   2.776   1.810   1.771  0.3031 -0.3321 -0.4248
 7861TIP3   OH244997   0.206   6.576  15.261 -0.4450  0.0741  0.2002
 7861TIP3    H144998   0.206   6.606  15.170  0.5468  0.9812  0.4839
 7861TIP3    H244999   0.240   6.651  15.310  1.6342 -1.3620  1.0033
 7862TIP3   OH245000   4.094   3.614   4.162 -0.2696  0.4358 -0.2478
 7862TIP3    H145001   4.127   3.564   4.237  1.1126  1.8114  0.0836
 7862TIP3    H245002   4.140   3.577   4.087 -0.0422  0.5165 -0.1467
 7863TIP3   OH245003   0.067   4.318   0.514 -0.3100 -0.1349 -0.5383
 7863TIP3    H145004  -0.025   4.295   0.517 -0.3601  0.1917  1.3034
 7863TIP3    H245005   0.081   4.355   0.427 -2.4595  2.0618  0.0226
 7864TIP3   OH245006   2.235   5.855  15.056 -0.2781 -0.6861 -0.1643
 7864TIP3    H145007   2.199   5.785  15.111  0.7890 -2.3516 -1.5408
 7864TIP3    H245008   2.193   5.843  14.971 -1.9656  1.9055  0.2343
 7865TIP3   OH245009   0.189   3.524   2.311  0.4639  0.0007  0.3107
 7865TIP3    H145010   0.259   3.467   2.279  0.6006 -0.7494  1.9304
 7865TIP3    H245011   0.183   3.505   2.404 -0.1247  1.9753  0.6885
 7866TIP3   OH245012   4.894   1.070   3.235  0.8357 -0.1083 -0.1354
 7866TIP3    H145013   4.867   1.145   3.289 -0.0447  0.1990 -0.9724
 7866TIP3    H245014   4.896   1.105   3.145  1.2972 -0.8595 -0.4193
 7867TIP3   OH245015   1.340   3.538  16.896 -0.6675  0.2638  0.6858
 7867TIP3    H145016   1.310   3.453  16.929 -1.0681  0.2842  0.3757
 7867TIP3    H245017   1.262   3.593  16.898 -0.9755 -0.0767 -1.4347
 7868TIP3   OH245018   6.659   6.634  11.368  0.2139 -0.7357 -0.1295
 7868TIP3    H145019   6.640   6.711  11.316  2.3555  0.1249  0.3242
 7868TIP3    H245020   6.747   6.648  11.402  1.1944 -3.9572 -1.1116
 7869TIP3   OH245021   0.836   6.127  14.957  0.4080 -0.3047  0.0062
 7869TIP3    H145022   0.790   6.076  15.024  0.1903 -0.6036 -0.3670
 7869TIP3    H245023   0.892   6.186  15.006  0.0957 -0.3806  0.4572
 7870TIP3   OH245024   3.394   0.465  16.548  0.0134  0.4846 -0.3298
 7870TIP3    H145025   3.360   0.424  16.469  2.1519 -0.4209 -0.8128
 7870TIP3    H245026   3.340   0.544  16.559 -3.9839 -2.2388  0.4906
 7871TIP3   OH245027   1.338   2.959   5.339  0.1182  0.4259 -0.2672
 7871TIP3    H145028   1.292   2.894   5.286  1.4485 -1.1583  0.5116
 7871TIP3    H245029   1.269   2.996   5.395 -0.8259  0.4070 -1.3769
 7872TIP3   OH245030   3.805   3.510  16.127  0.1093 -0.3722 -0.1480
 7872TIP3    H145031   3.837   3.582  16.181  2.3859 -1.8962  0.5875
 7872TIP3    H245032   3.784   3.440  16.189  1.2350 -1.5714 -1.0941
 7873TIP3   OH245033   4.449   0.468  11.872 -0.5396  0.8889  0.1530
 7873TIP3    H145034   4.516   0.520  11.917 -1.5099  1.0329  1.4512
 7873TIP3    H245035   4.376   0.464  11.933 -1.9099  1.1148 -1.4321
 7874TIP3   OH245036   1.296   2.745   4.256 -0.8180  0.0619 -0.4159
 7874TIP3    H145037   1.229   2.677   4.258 -1.2399  0.4472 -1.3567
 7874TIP3    H245038   1.359   2.718   4.323 -1.3513 -0.8697 -0.2816
 7875TIP3   OH245039   5.712   1.064   5.495  0.1180  0.0184 -0.1835
 7875TIP3    H145040   5.729   1.130   5.428 -1.0190  1.0417  0.5259
 7875TIP3    H245041   5.746   1.103   5.576 -0.6892 -0.2089  0.2669
 7876TIP3   OH245042   3.510   6.196  13.935  0.3276  0.1874 -0.3023
 7876TIP3    H145043   3.473   6.255  14.001 -0.4695 -0.8702  0.2169
 7876TIP3    H245044   3.453   6.119  13.937  0.7808 -0.1968 -1.6570
 7877TIP3   OH245045   2.657   5.837  13.972 -0.2201  0.2856 -0.3332
 7877TIP3    H145046   2.665   5.752  13.928  0.4378  0.3594 -0.3697
 7877TIP3    H245047   2.652   5.815  14.065 -0.2992  0.1937 -0.3591
 7878TIP3   OH245048   0.471   4.775   1.043 -0.1596  0.3757  0.1438
 7878TIP3    H145049   0.443   4.728   0.965  0.3342 -1.3690  0.9676
 7878TIP3    H245050   0.407   4.750   1.110  0.7689 -0.0672  0.8871
 7879TIP3   OH245051   5.863   1.310  15.427  0.0132  0.2478  0.0898
 7879TIP3    H145052   5.890   1.396  15.394  1.4637  0.6203  2.0738
 7879TIP3    H245053   5.808   1.273  15.359  0.7612  2.0523 -1.5297
 7880TIP3   OH245054   3.819   5.488   5.793  0.0338  0.2023  0.2475
 7880TIP3    H145055   3.860   5.409   5.828  0.1166 -1.2075 -2.9349
 7880TIP3    H245056   3.728   5.483   5.821  0.0917 -0.8781  0.2454
 7881TIP3   OH245057   4.535   0.307   5.094  0.4565 -0.5142  0.0689
 7881TIP3    H145058   4.579   0.316   5.010  0.4462  2.8090  0.3690
 7881TIP3    H245059   4.455   0.257   5.074  1.6347 -1.8321 -1.4313
 7882TIP3   OH245060   0.764   3.200   2.739  0.2389 -0.7844 -0.0194
 7882TIP3    H145061   0.679   3.164   2.765 -1.2302  1.5238 -1.4142
 7882TIP3    H245062   0.810   3.127   2.699 -0.8887 -2.2038  1.2090
 7883TIP3   OH245063   2.057   1.494   1.017 -0.0782 -0.3661  0.0630
 7883TIP3    H145064   2.069   1.530   1.105 -0.0418 -0.1790 -0.0172
 7883TIP3    H245065   1.963   1.505   1.000 -0.0811 -0.3818  0.0688
 7884TIP3   OH245066   1.138   3.135  12.983  0.0830  0.6329  0.1691
 7884TIP3    H145067   1.127   3.229  12.998 -0.2303  1.0047 -2.2466
 7884TIP3    H245068   1.054   3.106  12.948  0.3839 -0.4300  0.3071
 7885TIP3   OH245069   0.230   0.300  14.249  0.5714 -0.0840  0.3730
 7885TIP3    H145070   0.180   0.220  14.233 -0.1632  0.4724 -0.1512
 7885TIP3    H245071   0.176   0.350  14.311  1.0816 -0.0481  0.7877
 7886TIP3   OH245072   5.996   4.189   2.950 -0.6245 -0.2549 -0.4983
 7886TIP3    H145073   6.063   4.121   2.944  0.2866  0.5815 -0.0226
 7886TIP3    H245074   5.927   4.150   3.002 -0.0025 -0.7371 -0.0238
 7887TIP3   OH245075   0.191   4.954  16.987  0.3873 -0.3719  0.1352
 7887TIP3    H145076   0.205   4.915  17.073  0.6228  0.1518  0.3344
 7887TIP3    H245077   0.255   4.911  16.931  1.4210  0.5302  0.6044
 7888TIP3   OH245078   5.471   5.019  13.148  0.5516 -0.0639 -0.0170
 7888TIP3    H145079   5.554   4.977  13.123  1.6991  2.0342  0.1714
 7888TIP3    H245080   5.492   5.070  13.226 -0.9714  0.3463  0.1447
 7889TIP3   OH245081   1.391   2.958  12.937  0.0360  0.5397 -0.1290
 7889TIP3    H145082   1.324   2.947  12.868  0.1436 -0.2604 -0.1128
 7889TIP3    H245083   1.399   3.053  12.947 -1.5139  0.6508  0.2684
 7890TIP3   OH245084   6.388   0.143  10.712 -0.3252 -0.3797  0.2424
 7890TIP3    H145085   6.379   0.048  10.721 -0.8535 -0.5366 -1.7217
 7890TIP3    H245086   6.481   0.159  10.726 -0.1453 -1.2545  0.1086
 7891TIP3   OH245087   2.925   4.510  10.679  0.2374 -0.5536  0.2834
 7891TIP3    H145088   2.857   4.577  10.671  1.0096 -0.0269 -2.4497
 7891TIP3    H245089   3.001   4.557  10.712  1.0086  0.1417 -2.3606
 7892TIP3   OH245090   5.638   6.040  11.814  0.0224  0.2352 -0.1959
 7892TIP3    H145091   5.666   5.975  11.878  1.8148  0.8656 -0.3028
 7892TIP3    H245092   5.543   6.037  11.816  0.0833 -1.4683  0.7372
 7893TIP3   OH245093   0.004   2.453  12.888 -0.5218 -0.3224 -0.2429
 7893TIP3    H145094   0.048   2.524  12.841  1.0324 -1.4770 -0.5633
 7893TIP3    H245095  -0.078   2.439  12.840  0.1526 -0.1829 -1.4378
 7894TIP3   OH245096   5.542   4.365  14.244 -0.0320  0.2296  0.0453
 7894TIP3    H145097   5.521   4.330  14.331 -1.6576 -2.0530 -1.2088
 7894TIP3    H245098   5.484   4.440  14.234 -2.6995 -1.8338 -0.5637
 7895TIP3   OH245099   1.118   6.568  12.877 -0.5604 -0.0296 -0.0972
 7895TIP3    H145100   1.158   6.595  12.794  0.8161  1.0152  0.8788
 7895TIP3    H245101   1.093   6.476  12.862 -0.1843  0.0928 -1.6107
 7896TIP3   OH245102   2.665   4.003  16.573  0.0505 -0.0676  0.0347
 7896TIP3    H145103   2.688   4.066  16.505 -1.2013  1.2210  0.7678
 7896TIP3    H245104   2.686   3.918  16.536  2.4019  0.8218 -0.7142
 7897TIP3   OH245105   6.556   0.691  15.384 -0.0076  0.0524 -0.8249
 7897TIP3    H145106   6.512   0.742  15.452 -0.3016  0.5476 -1.3900
 7897TIP3    H245107   6.527   0.601  15.400  0.0276  0.1499 -0.2125
 7898TIP3   OH245108   4.893   3.793   2.345 -0.1019  0.0862 -0.7733
 7898TIP3    H145109   4.805   3.756   2.351 -0.1478  0.4970  1.4999
 7898TIP3    H245110   4.879   3.887   2.339  0.1890  0.1286 -0.8238
 7899TIP3   OH245111   1.112   2.393  13.761 -0.4992  0.3375 -0.3515
 7899TIP3    H145112   1.186   2.332  13.757  0.0290  0.7587  2.4603
 7899TIP3    H245113   1.066   2.371  13.842 -3.0432  0.6074 -1.6787
 7900TIP3   OH245114   5.100   5.370  10.698 -0.4286  0.5511 -0.4363
 7900TIP3    H145115   5.130   5.291  10.744 -0.5175  1.2532  0.8514
 7900TIP3    H245116   5.005   5.369  10.710 -0.1990  2.1851  1.7971
 7901TIP3   OH245117   2.642   1.274   6.632  0.0613  0.2594 -0.0802
 7901TIP3    H145118   2.678   1.363   6.629 -1.4242  0.9213  1.1063
 7901TIP3    H245119   2.698   1.228   6.695  0.2997  0.6105 -0.0298
 7902TIP3   OH245120   3.033   3.893   0.848  0.2379  0.0868 -0.1345
 7902TIP3    H145121   3.039   3.910   0.754 -0.3642 -1.7797 -0.5380
 7902TIP3    H245122   2.959   3.947   0.877 -1.1919 -1.2210 -1.2320
 7903TIP3   OH245123   2.129   2.825  15.084 -0.0102  1.1321  0.9443
 7903TIP3    H145124   2.055   2.885  15.076 -0.2970  0.7538  0.7240
 7903TIP3    H245125   2.153   2.830  15.177 -1.2873  0.1278  1.3519
 7904TIP3   OH245126   3.770   2.029   3.556 -0.3812  0.0196  0.4496
 7904TIP3    H145127   3.791   2.121   3.569 -2.4509  0.4231  1.1530
 7904TIP3    H245128   3.852   1.982   3.572  0.2871  1.5999  1.7152
 7905TIP3   OH245129   1.403   2.729  15.637 -0.5727  0.1534 -0.1841
 7905TIP3    H145130   1.363   2.651  15.598  0.5647 -0.3814 -0.3049
 7905TIP3    H245131   1.470   2.694  15.696  1.1518  1.0493 -1.5582
 7906TIP3   OH245132   4.736   6.154   0.303  0.0718  0.1561 -0.3529
 7906TIP3    H145133   4.761   6.065   0.280 -3.4183 -0.6050 -1.3666
 7906TIP3    H245134   4.702   6.147   0.392  0.6796  0.6420 -0.0822
 7907TIP3   OH245135   5.740   4.845  14.426 -0.0843 -0.0156 -0.4671
 7907TIP3    H145136   5.772   4.928  14.461 -0.7145 -0.3187  0.8727
 7907TIP3    H245137   5.783   4.779  14.480  1.2467 -0.6155 -2.2136
 7908TIP3   OH245138   2.375   3.358  11.162 -0.1140 -0.2432  0.4235
 7908TIP3    H145139   2.280   3.367  11.170 -0.0258  0.8284  0.2841
 7908TIP3    H245140   2.410   3.442  11.191  0.7432 -0.2845 -0.4501
 7909TIP3   OH245141   2.420   3.665   1.419  0.1209 -0.8456 -0.6748
 7909TIP3    H145142   2.496   3.646   1.474  0.2211 -1.7375 -1.1088
 7909TIP3    H245143   2.420   3.594   1.354 -0.3784 -0.1690 -1.4102
 7910TIP3   OH245144   3.922   3.670  15.022 -0.1526  0.1012 -0.2622
 7910TIP3    H145145   3.907   3.605  15.091  0.9323  0.3646  0.2263
 7910TIP3    H245146   3.877   3.635  14.945  0.5028 -1.2667 -0.0248
 7911TIP3   OH245147   2.572   5.683   5.894 -0.5594  0.1526 -0.2301
 7911TIP3    H145148   2.592   5.665   5.986 -1.4159  2.2130  0.3848
 7911TIP3    H245149   2.624   5.761   5.874 -2.3512  1.2181 -0.7408
 7912TIP3   OH245150   4.792   4.619   3.491 -0.4665  0.2461 -0.6312
 7912TIP3    H145151   4.736   4.601   3.415 -0.2079  0.9063 -0.9822
 7912TIP3    H245152   4.795   4.714   3.496 -0.2822  0.2022  0.0650
 7913TIP3   OH245153   1.337   6.562  14.637 -0.7023  0.4744  0.4573
 7913TIP3    H145154   1.266   6.541  14.576 -0.7402 -1.2286  1.0783
 7913TIP3    H245155   1.313   6.648  14.673 -1.5464  0.7020 -0.6359
 7914TIP3   OH245156   1.828   5.363  14.762 -0.0748 -0.0823 -0.3603
 7914TIP3    H145157   1.834   5.457  14.779  0.9476 -0.4093  1.1723
 7914TIP3    H245158   1.827   5.355  14.666  0.0539  1.4601 -0.4909
 7915TIP3   OH245159   2.362   6.681  15.535  0.2028 -0.4106  0.3631
 7915TIP3    H145160   2.365   6.719  15.448 -1.3924  0.7615  0.7979
 7915TIP3    H245161   2.385   6.753  15.594  0.0066 -0.8594  0.9940
 7916TIP3   OH245162   4.588   2.688   1.523  0.0824 -0.2558  0.0572
 7916TIP3    H145163   4.617   2.767   1.570  0.2336  0.6806 -1.5916
 7916TIP3    H245164   4.637   2.616   1.564  1.6945  0.7935  0.0187
 7917TIP3   OH245165   0.800   3.019  16.514  0.2364  0.1026  0.2730
 7917TIP3    H145166   0.756   3.061  16.588 -1.3113 -2.2663  0.7420
 7917TIP3    H245167   0.856   2.952  16.555  0.5964 -0.1404 -0.6071
 7918TIP3   OH245168   0.681   1.669  11.647  0.9324 -0.7918 -0.0176
 7918TIP3    H145169   0.701   1.659  11.740 -0.7008  0.0366  0.4458
 7918TIP3    H245170   0.725   1.750  11.622 -0.2787  0.0733  0.5593
 7919TIP3   OH245171   1.680   5.220  11.593  0.8352 -0.3423 -0.4901
 7919TIP3    H145172   1.698   5.172  11.674  0.6924 -1.2675 -1.0008
 7919TIP3    H245173   1.660   5.309  11.622 -1.1296 -1.1115  0.6757
 7920TIP3   OH245174   3.161   0.032  14.103  0.1513 -0.3295 -0.5147
 7920TIP3    H145175   3.168   0.022  14.008 -1.5856 -0.4874 -0.6410
 7920TIP3    H245176   3.136   0.123  14.116 -2.0784 -0.9238 -0.3752
 7921TIP3   OH245177   3.779   4.514  16.731 -0.5752  0.3344  0.0553
 7921TIP3    H145178   3.814   4.593  16.690  0.3690 -0.7524 -1.2876
 7921TIP3    H245179   3.697   4.542  16.771 -0.4590  1.8960 -0.7578
 7922TIP3   OH245180   2.969   3.305   5.572  0.3594 -0.2172 -0.1482
 7922TIP3    H145181   3.045   3.247   5.577 -0.3972 -1.1719  0.5191
 7922TIP3    H245182   3.003   3.386   5.533  2.1997  0.1839  2.1153
 7923TIP3   OH245183   4.590   6.515   3.008  0.2051  0.3307 -0.2618
 7923TIP3    H145184   4.683   6.497   2.995  0.2794  0.4920  0.0579
 7923TIP3    H245185   4.554   6.432   3.040  0.1814  0.1794 -0.6765
 7924TIP3   OH245186   3.327   0.861  15.093  0.3522  0.1763  0.2238
 7924TIP3    H145187   3.371   0.859  15.008 -1.0269 -1.1086 -0.4766
 7924TIP3    H245188   3.362   0.785  15.140 -2.3297 -1.8753 -0.9859
 7925TIP3   OH245189   6.039   2.772  11.991  0.1649 -0.2956 -0.1429
 7925TIP3    H145190   6.065   2.840  11.928 -0.0961 -0.4736 -0.4491
 7925TIP3    H245191   6.033   2.692  11.938  1.6698 -0.8105  0.4442
 7926TIP3   OH245192   4.453   5.781   4.464 -0.0969  0.0316 -0.1171
 7926TIP3    H145193   4.508   5.851   4.429  0.0411  0.2495  0.5283
 7926TIP3    H245194   4.378   5.826   4.503  0.2654 -0.1440  0.7897
 7927TIP3   OH245195   4.587   6.347  16.121 -0.0780  0.8562  0.5954
 7927TIP3    H145196   4.492   6.347  16.114 -0.1686  0.5312  1.6881
 7927TIP3    H245197   4.618   6.344  16.031 -1.1099 -0.8591  0.2819
 7928TIP3   OH245198   1.588   5.657   5.374 -0.5875  0.4425  0.0020
 7928TIP3    H145199   1.664   5.700   5.413 -1.4192  1.2925  0.6906
 7928TIP3    H245200   1.621   5.572   5.346  0.5837  0.7436  0.4381
 7929TIP3   OH245201   6.076   1.047   4.378 -0.1327  0.0898  0.1538
 7929TIP3    H145202   6.035   0.963   4.359  1.2525 -1.0617  2.0413
 7929TIP3    H245203   6.115   1.074   4.295  0.1835 -1.5853 -0.2602
 7930TIP3   OH245204   0.671   6.525   3.821 -0.0867 -0.1082  0.4522
 7930TIP3    H145205   0.631   6.534   3.908  0.0994  1.4691  0.3806
 7930TIP3    H245206   0.606   6.561   3.761  0.8174  1.0871  0.1820
 7931TIP3   OH245207   2.113   4.865   0.009 -0.0387  0.4929 -0.1347
 7931TIP3    H145208   2.032   4.905  -0.025  0.3450  0.3603 -1.2345
 7931TIP3    H245209   2.183   4.911  -0.037  0.4337 -1.0351 -0.9862
 7932TIP3   OH245210   5.625   0.770  12.638  0.1517  0.0242 -0.1325
 7932TIP3    H145211   5.717   0.792  12.656 -0.2395  0.4865  1.3825
 7932TIP3    H245212   5.583   0.853  12.619 -0.4708  0.1396  1.6424
 7933TIP3   OH245213   5.297   3.707   2.032  0.6009  0.1800  0.0305
 7933TIP3    H145214   5.334   3.620   2.048 -0.9671 -0.6024 -0.5439
 7933TIP3    H245215   5.236   3.721   2.103  1.0827  0.9566  0.2971
 7934TIP3   OH245216   0.198   0.756   0.425  0.0880 -0.1776  0.2922
 7934TIP3    H145217   0.113   0.712   0.420  0.6094 -1.0794 -0.7908
 7934TIP3    H245218   0.262   0.685   0.422  0.8740  0.4427  1.9614
 7935TIP3   OH245219   3.539   3.093  12.637  0.0923 -0.8250 -0.0532
 7935TIP3    H145220   3.612   3.084  12.698  0.5657  0.3359 -0.4413
 7935TIP3    H245221   3.463   3.060  12.685  0.7200 -1.2835  0.6309
 7936TIP3   OH245222   3.740   6.525   1.766  0.2769 -0.7237 -0.0177
 7936TIP3    H145223   3.764   6.618   1.770  1.4390 -1.0650  1.9978
 7936TIP3    H245224   3.781   6.492   1.687  1.6886  0.0151  0.3953
 7937TIP3   OH245225   3.620   1.198  15.759  0.5106  0.2355 -0.0134
 7937TIP3    H145226   3.635   1.212  15.666  0.5105 -0.5214 -0.1351
 7937TIP3    H245227   3.537   1.150  15.763 -0.1506  1.4047  0.4494
 7938TIP3   OH245228   3.934   4.398   0.240  0.5614  0.1051 -0.5788
 7938TIP3    H145229   3.996   4.331   0.211 -0.4259 -0.4809 -1.3451
 7938TIP3    H245230   3.911   4.373   0.330  0.8333 -0.1055 -0.5693
 7939TIP3   OH245231   6.605   0.111  13.486  0.4484  0.7324 -0.2802
 7939TIP3    H145232   6.571   0.070  13.566  0.2759  0.9472 -0.2425
 7939TIP3    H245233   6.700   0.109  13.497  0.5442 -1.6876 -1.2889
 7940TIP3   OH245234   6.198   1.515  17.009 -0.5169 -0.3162 -0.3955
 7940TIP3    H145235   6.227   1.488  16.922  0.0384 -0.5479 -0.1353
 7940TIP3    H245236   6.272   1.562  17.046 -0.6950 -0.3592  0.0197
 7941TIP3   OH245237   6.114   3.804  11.423 -0.5064 -0.6019 -0.4017
 7941TIP3    H145238   6.025   3.769  11.413 -0.2489 -1.3098 -0.2549
 7941TIP3    H245239   6.171   3.732  11.398  0.0394 -0.3383  0.0755
 7942TIP3   OH245240   1.887   5.682  14.551  0.1215 -0.2263  0.2828
 7942TIP3    H145241   1.867   5.667  14.459 -2.8560  3.1207  0.2393
 7942TIP3    H245242   1.978   5.715  14.551 -0.4528  1.4921 -1.7162
 7943TIP3   OH245243   6.659   2.596  13.919  0.6204  0.6269 -0.2231
 7943TIP3    H145244   6.577   2.601  13.869  0.2483 -0.7846  0.2097
 7943TIP3    H245245   6.669   2.682  13.958 -0.5156  0.9017 -0.5191
 7944TIP3   OH245246   4.576   3.468  12.446  0.0609 -0.0029  0.2386
 7944TIP3    H145247   4.665   3.458  12.480  0.0816  0.3133  0.2800
 7944TIP3    H245248   4.586   3.526  12.370 -0.1375  0.1994  0.3668
 7945TIP3   OH245249   0.651   6.435   4.768  0.7126  0.2073  0.2031
 7945TIP3    H145250   0.698   6.360   4.731  1.9421  1.1592 -0.1809
 7945TIP3    H245251   0.646   6.416   4.861 -2.3058 -2.1550 -0.3624
 7946TIP3   OH245252   2.497   4.979   3.854  0.1156  0.2150 -0.0584
 7946TIP3    H145253   2.481   5.070   3.830  2.3436  1.1039  1.6863
 7946TIP3    H245254   2.548   4.944   3.781 -1.6770  0.0066 -1.2535
 7947TIP3   OH245255   6.260   3.863   4.323 -0.0006 -0.1250 -0.7874
 7947TIP3    H145256   6.262   3.940   4.379 -1.5303  2.4492 -4.0517
 7947TIP3    H245257   6.329   3.878   4.258  1.0908 -2.5472 -0.2693
 7948TIP3   OH245258   2.269   5.897   2.338  0.4342 -0.0267 -0.6244
 7948TIP3    H145259   2.213   5.829   2.375  1.3738  0.1427  1.1938
 7948TIP3    H245260   2.225   5.979   2.361 -0.2242  0.0174 -2.0131
 7949TIP3   OH245261   3.820   1.435  12.789 -0.0793  0.4046 -0.0173
 7949TIP3    H145262   3.832   1.356  12.842  0.8977 -0.0171 -0.8434
 7949TIP3    H245263   3.787   1.402  12.705 -0.2292  0.9290 -0.1642
 7950TIP3   OH245264   4.425   6.531   2.787  0.1868  0.5464  0.1189
 7950TIP3    H145265   4.464   6.543   2.874  1.0111  1.5173 -0.3805
 7950TIP3    H245266   4.458   6.604   2.735 -1.1418  0.5632 -0.7298
 7951TIP3   OH245267   6.092   4.125  11.164  0.7684 -0.2771  0.1695
 7951TIP3    H145268   6.125   4.137  11.075 -0.1538  3.8210  0.2839
 7951TIP3    H245269   6.020   4.063  11.155  0.4007  0.4329 -2.0169
 7952TIP3   OH245270   4.138   3.457   1.163 -0.7093 -0.0135  0.0465
 7952TIP3    H145271   4.205   3.435   1.228 -1.2122 -2.0594 -0.1008
 7952TIP3    H245272   4.173   3.422   1.081 -1.1075  0.5796 -0.3762
 7953TIP3   OH245273   1.662   5.703  15.673  0.0083 -0.2755 -0.7086
 7953TIP3    H145274   1.744   5.740  15.707  0.4965 -0.6284 -1.4759
 7953TIP3    H245275   1.664   5.723  15.580 -1.1152  0.3083 -0.6143
 7954TIP3   OH245276   6.740   3.237   1.517  0.5734  0.7510  0.0977
 7954TIP3    H145277   6.740   3.168   1.450 -0.1740  1.4874 -0.6871
 7954TIP3    H245278   6.663   3.218   1.570  0.7355  0.6061  0.2808
 7955TIP3   OH245279   2.981   1.519   0.438  0.2417 -0.2335 -0.6021
 7955TIP3    H145280   3.018   1.508   0.525  0.1141  0.1805 -0.4959
 7955TIP3    H245281   2.887   1.505   0.449  0.1175  0.6212 -0.5231
 7956TIP3   OH245282   5.219   3.348   2.291 -0.0487  0.0316  0.4686
 7956TIP3    H145283   5.278   3.354   2.216 -0.0107  1.3487  0.6069
 7956TIP3    H245284   5.156   3.280   2.266 -1.2682  1.8638 -1.6043
 7957TIP3   OH245285   4.961   3.254   6.178 -0.3500 -0.2694 -0.2392
 7957TIP3    H145286   4.893   3.187   6.166  0.9254 -1.9261  1.3855
 7957TIP3    H245287   5.043   3.205   6.174  0.6122  1.2391  0.6991
 7958TIP3   OH245288   3.948   3.507   1.981  0.0927  0.4641  0.2413
 7958TIP3    H145289   3.988   3.502   1.894 -0.9829  0.1234 -0.2438
 7958TIP3    H245290   3.959   3.419   2.018 -0.7986  0.1667 -0.1724
 7959TIP3   OH245291   4.934   5.237  16.413 -0.3208  0.0930 -0.0911
 7959TIP3    H145292   4.969   5.322  16.386 -1.3796  0.7601  0.5925
 7959TIP3    H245293   4.849   5.231  16.370 -0.3721 -0.4843  0.0885
 7960TIP3   OH245294   0.933   0.375  17.048  0.0783  0.9290 -0.1123
 7960TIP3    H145295   0.960   0.317  16.976 -0.3550  1.6504 -0.8675
 7960TIP3    H245296   1.008   0.375  17.108  0.1284 -0.3214 -0.1513
 7961TIP3   OH245297   1.886   1.848   4.499  0.1604  0.1605  0.3105
 7961TIP3    H145298   1.974   1.880   4.517  0.5554 -0.1597 -0.9670
 7961TIP3    H245299   1.898   1.776   4.438 -1.0235  0.5442 -0.4105
 7962TIP3   OH245300   3.786   2.704   2.469 -0.0710 -0.1861  0.1934
 7962TIP3    H145301   3.800   2.611   2.483 -2.0824 -0.6363 -0.6012
 7962TIP3    H245302   3.766   2.712   2.376 -2.1789  0.6987  0.6736
 7963TIP3   OH245303   5.016   4.656  11.444 -0.2950 -0.1681 -0.6658
 7963TIP3    H145304   5.085   4.719  11.463  0.4128 -1.0571 -0.2436
 7963TIP3    H245305   5.036   4.581  11.499 -1.6600 -0.4024 -0.4681
 7964TIP3   OH245306   1.859   5.937  11.501 -0.3084 -0.9558  0.1780
 7964TIP3    H145307   1.895   6.018  11.538  0.1670 -1.3735  0.6310
 7964TIP3    H245308   1.833   5.962  11.412 -2.7660  0.4024  1.2291
 7965TIP3   OH245309   5.908   1.486  16.996  0.0612 -0.0676 -0.0833
 7965TIP3    H145310   5.989   1.537  16.997  0.4865 -0.7419  1.2295
 7965TIP3    H245311   5.937   1.396  16.984 -0.5695 -0.2040 -0.6015
 7966TIP3   OH245312   1.964   5.309  13.430 -0.4112  0.1943 -0.1686
 7966TIP3    H145313   1.944   5.402  13.439 -0.2070  0.0841  1.6187
 7966TIP3    H245314   1.879   5.268  13.410 -0.2136  0.9543 -2.6056
 7967TIP3   OH245315   6.156   6.411  13.625 -0.4764  0.0804  0.3028
 7967TIP3    H145316   6.067   6.377  13.612 -1.4448  1.9781  1.6369
 7967TIP3    H245317   6.208   6.334  13.649 -1.7739 -1.0456 -0.4405
 7968TIP3   OH245318   0.759   2.185   5.497 -0.1717 -0.2170 -0.2206
 7968TIP3    H145319   0.680   2.195   5.550  1.3180 -1.3910  2.2867
 7968TIP3    H245320   0.794   2.274   5.489 -0.7064  0.0408  0.3183
 7969TIP3   OH245321   2.234   3.813   1.561  0.4206  0.1379  0.1569
 7969TIP3    H145322   2.285   3.751   1.508  0.6539  0.9709 -0.6129
 7969TIP3    H245323   2.283   3.895   1.554 -1.0608  0.9688 -0.6612
 7970TIP3   OH245324   0.916   0.051   0.597  0.2557  0.0864  0.0083
 7970TIP3    H145325   0.987   0.065   0.533  0.9852 -0.2106  0.7444
 7970TIP3    H245326   0.840   0.030   0.543  0.6019  0.9069 -0.8218
 7971TIP3   OH245327   5.207   0.575  16.855  0.9367  0.0407  0.1737
 7971TIP3    H145328   5.261   0.508  16.898 -0.7133 -0.8663  0.8597
 7971TIP3    H245329   5.168   0.530  16.780 -0.7130  0.0241  1.0189
 7972TIP3   OH245330   4.836   3.334  13.897 -0.4187  1.1063 -0.1317
 7972TIP3    H145331   4.785   3.253  13.899  1.4133 -0.0905 -0.9174
 7972TIP3    H245332   4.841   3.361  13.988  1.1497 -1.1091  0.4965
 7973TIP3   OH245333   1.084   5.997   1.465  0.3807  0.6113 -0.0917
 7973TIP3    H145334   1.133   5.956   1.537  0.1185  0.1476 -0.1709
 7973TIP3    H245335   1.017   6.049   1.508 -1.8060 -2.1515  0.0143
 7974TIP3   OH245336   1.003   6.523  11.953 -0.3406 -0.2210 -0.4385
 7974TIP3    H145337   1.022   6.457  12.020  2.2945  0.3915 -0.5389
 7974TIP3    H245338   1.044   6.488  11.873  0.4290  1.1583 -0.6648
 7975TIP3   OH245339   1.872   5.860  14.076 -0.0208  0.5686  0.1060
 7975TIP3    H145340   1.914   5.947  14.074  0.1090  0.4917 -0.6018
 7975TIP3    H245341   1.815   5.860  14.000  0.2624 -0.1107 -0.1032
 7976TIP3   OH245342   3.877   6.107   2.568  0.3564 -0.0819 -0.0900
 7976TIP3    H145343   3.914   6.060   2.494  0.9527  1.8500 -1.0523
 7976TIP3    H245344   3.927   6.076   2.644  3.9270  2.3206 -1.3304
 7977TIP3   OH245345   2.224   3.235   4.097 -0.6357  0.1990 -0.7093
 7977TIP3    H145346   2.243   3.144   4.074 -0.2974  0.4403 -1.3544
 7977TIP3    H245347   2.182   3.228   4.183 -0.6250 -0.5692 -0.7582
 7978TIP3   OH245348   2.194   0.404   5.016  0.3513 -0.5162 -0.5864
 7978TIP3    H145349   2.117   0.460   5.007 -0.4263 -1.4054  0.4476
 7978TIP3    H245350   2.213   0.404   5.110  0.9153 -1.2256 -0.6978
 7979TIP3   OH245351   0.594   1.157   3.586 -0.1204 -0.2454 -0.0948
 7979TIP3    H145352   0.522   1.220   3.587 -0.5676 -0.7431 -0.8494
 7979TIP3    H245353   0.584   1.108   3.668 -0.0252  0.3617  0.2893
 7980TIP3   OH245354   0.791   5.000  12.439  0.2456 -0.4473 -0.1420
 7980TIP3    H145355   0.749   5.070  12.390  3.0851  0.9676 -0.6465
 7980TIP3    H245356   0.835   5.044  12.512  1.6766 -1.7367 -0.1822
 7981TIP3   OH245357   5.450   4.639  16.092  0.0218  0.4533 -0.0477
 7981TIP3    H145358   5.417   4.635  16.182 -0.4061 -1.3226 -0.2541
 7981TIP3    H245359   5.401   4.711  16.052 -1.2354 -0.0162  0.5995
 7982TIP3   OH245360   3.121   4.629  14.451  0.4003 -0.2162 -0.3468
 7982TIP3    H145361   3.098   4.608  14.541 -0.3287  1.1132 -0.2077
 7982TIP3    H245362   3.083   4.557  14.399 -0.7834 -0.0261  0.2375
 7983TIP3   OH245363   5.545   1.962  13.573  0.3531 -0.8358 -0.0239
 7983TIP3    H145364   5.549   2.057  13.584  2.4698 -0.7759 -0.8651
 7983TIP3    H245365   5.479   1.948  13.505  0.9945  0.1551 -0.8689
 7984TIP3   OH245366   5.515   6.409   0.110  0.0837 -0.8279 -0.3698
 7984TIP3    H145367   5.589   6.435   0.164  0.0053  2.2532 -1.6714
 7984TIP3    H245368   5.438   6.429   0.164  0.0687  0.4433 -0.8469
 7985TIP3   OH245369   5.334   4.601   3.763 -0.4066 -0.5423 -0.3092
 7985TIP3    H145370   5.310   4.529   3.821 -1.5464 -1.3732 -1.7558
 7985TIP3    H245371   5.251   4.626   3.721 -0.0181  1.6232  0.1666
 7986TIP3   OH245372   2.567   2.501  12.979 -0.0466 -0.1001 -0.2593
 7986TIP3    H145373   2.547   2.523  12.888  0.1146  0.4941 -0.1480
 7986TIP3    H245374   2.534   2.574  13.030 -0.6964 -0.7146  0.2216
 7987TIP3   OH245375   3.029   0.423   0.892 -0.0977 -0.7404  0.1848
 7987TIP3    H145376   3.061   0.502   0.936 -0.8684  0.1340 -0.7958
 7987TIP3    H245377   3.107   0.384   0.853  0.2741 -0.4426  0.6210
 7988TIP3   OH245378   2.973   4.505   0.884 -0.0229 -0.4053  0.0628
 7988TIP3    H145379   3.053   4.475   0.928 -0.4950 -0.8108  0.6361
 7988TIP3    H245380   2.915   4.430   0.885 -0.1758 -0.3070 -0.9434
 7989TIP3   OH245381   1.970   1.507  17.078  0.1425  0.1392 -0.1117
 7989TIP3    H145382   1.958   1.415  17.101 -0.3800  0.1160 -0.4807
 7989TIP3    H245383   1.944   1.512  16.986 -1.3238  0.9620  0.3351
 7990TIP3   OH245384   0.706   4.256   5.700 -0.1087 -0.2733  0.1855
 7990TIP3    H145385   0.737   4.190   5.638  0.1394 -0.6986  0.7623
 7990TIP3    H245386   0.784   4.308   5.720  0.1262 -1.0202  1.2365
 7991TIP3   OH245387   5.449   0.424  13.415 -0.4439 -0.2325 -0.1817
 7991TIP3    H145388   5.378   0.395  13.473  0.2894 -0.5686  0.5527
 7991TIP3    H245389   5.433   0.518  13.404  0.1613  0.1072  1.6427
 7992TIP3   OH245390   2.777   6.680   5.596  0.3294  0.0698  0.1758
 7992TIP3    H145391   2.698   6.691   5.542  1.3013  1.8369 -0.9234
 7992TIP3    H245392   2.744   6.669   5.685 -1.2670 -1.8420 -0.6082
 7993TIP3   OH245393   5.560   0.209   1.830  0.1980 -0.2142  0.0778
 7993TIP3    H145394   5.567   0.134   1.890 -3.1793  0.5729  1.5611
 7993TIP3    H245395   5.601   0.281   1.876 -1.9287  0.2619  1.2772
 7994TIP3   OH245396   4.265   4.156   1.021  0.6358  0.1149 -0.1817
 7994TIP3    H145397   4.304   4.209   1.090 -0.2849  2.1245 -1.1580
 7994TIP3    H245398   4.225   4.219   0.961  0.2964 -1.6368 -1.8839
 7995TIP3   OH245399   1.325   2.879  11.812  0.0020  0.3075  0.3525
 7995TIP3    H145400   1.246   2.868  11.760 -0.9373  1.8013  1.4393
 7995TIP3    H245401   1.353   2.969  11.795  1.9746 -0.4673 -0.6956
 7996TIP3   OH245402   1.919   2.039   3.765  0.1842  0.1466 -0.8636
 7996TIP3    H145403   1.914   2.027   3.860 -2.0618  3.0125 -0.5352
 7996TIP3    H245404   1.936   1.951   3.730  0.9937 -0.9652  2.1455
 7997TIP3   OH245405   5.550   0.368   3.967 -0.1413 -0.0193  0.2392
 7997TIP3    H145406   5.556   0.277   3.937 -0.8888  0.1989 -0.5897
 7997TIP3    H245407   5.637   0.405   3.948 -0.1603 -0.2758 -0.3796
 7998TIP3   OH245408   1.943   5.509   0.303  0.3031  0.0258  0.3559
 7998TIP3    H145409   1.957   5.462   0.385  2.0628  0.6181  0.4030
 7998TIP3    H245410   2.003   5.470   0.241 -0.6778 -0.0898 -0.5406
 7999TIP3   OH245411   5.174   3.834  14.055 -0.4559 -0.1563  0.5959
 7999TIP3    H145412   5.223   3.891  13.995  0.5646  0.4028  1.9184
 7999TIP3    H245413   5.099   3.804  14.004  0.0667  0.7833 -0.7654
 8000TIP3   OH245414   1.765   3.370   0.673 -0.6381 -0.3271  0.5536
 8000TIP3    H145415   1.689   3.427   0.673  0.0218  0.5598 -0.4646
 8000TIP3    H245416   1.821   3.404   0.603  0.3232 -1.4589  0.7591
 8001TIP3   OH245417   3.878   3.840  14.760 -0.0786 -0.3761 -0.0093
 8001TIP3    H145418   3.867   3.745  14.764 -2.0750 -0.1276  0.8724
 8001TIP3    H245419   3.829   3.867  14.682  1.1089 -0.1372 -0.6897
 8002TIP3   OH245420   1.575   5.201  12.560  0.2729  0.1184 -0.1932
 8002TIP3    H145421   1.581   5.110  12.590  0.4127 -0.4611 -1.9209
 8002TIP3    H245422   1.571   5.194  12.465  1.3251  1.9867 -0.3781
 8003TIP3   OH245423   6.672   0.178   1.651 -0.4438 -0.4448 -0.2311
 8003TIP3    H145424   6.744   0.239   1.669 -1.1335  0.2427  0.2393
 8003TIP3    H245425   6.654   0.189   1.558  0.5735 -1.1875 -0.5209
 8004TIP3   OH245426   2.507   1.593   0.488  0.6706  0.1974 -0.6179
 8004TIP3    H145427   2.508   1.662   0.554  0.9646 -1.1877  0.8534
 8004TIP3    H245428   2.453   1.628   0.417 -0.7950  1.1633  0.9398
 8005TIP3   OH245429   0.255   5.288  15.495 -0.2962  0.2039  0.9008
 8005TIP3    H145430   0.341   5.318  15.524  0.7928  1.0134 -2.8729
 8005TIP3    H245431   0.260   5.193  15.499  1.0165  0.2264  0.1844
 8006TIP3   OH245432   0.857   3.294  12.414  0.2410  0.6425 -0.1726
 8006TIP3    H145433   0.942   3.277  12.374  0.2501 -1.5189  0.6841
 8006TIP3    H245434   0.799   3.311  12.340  0.3978 -2.6936 -1.1556
 8007TIP3   OH245435   0.633   2.994  10.663 -0.1119 -0.3237  0.3508
 8007TIP3    H145436   0.656   3.007  10.755  1.6116 -0.1725 -0.0856
 8007TIP3    H245437   0.580   3.071  10.641  2.5406  1.5765  0.2555
 8008TIP3   OH245438   5.889   4.307   5.462  0.2618 -0.3360 -0.1623
 8008TIP3    H145439   5.878   4.399   5.488 -0.7444 -0.5018  0.0036
 8008TIP3    H245440   5.811   4.287   5.411 -0.1809 -1.5104  0.9488
 8009TIP3   OH245441   2.484   6.523   2.337  0.0041 -0.4539 -0.4121
 8009TIP3    H145442   2.563   6.478   2.368 -0.2458 -1.1611 -0.7918
 8009TIP3    H245443   2.463   6.585   2.406  1.0989 -0.0183 -0.4637
 8010TIP3   OH245444   1.537   0.246   1.897  0.6161  0.2876  0.1363
 8010TIP3    H145445   1.527   0.199   1.815 -0.0599 -1.6795  1.3150
 8010TIP3    H245446   1.501   0.333   1.880  0.8110  0.0144 -1.7368
 8011TIP3   OH245447   0.748   1.953   0.840  0.1308  0.3298  0.0271
 8011TIP3    H145448   0.813   1.902   0.889  1.2827 -2.2990 -3.9509
 8011TIP3    H245449   0.664   1.922   0.873  0.8351  0.0821  1.6712
 8012TIP3   OH245450   2.832   1.196   1.479 -0.2037 -0.3725  0.5243
 8012TIP3    H145451   2.885   1.275   1.480 -1.2140  0.3747 -1.4359
 8012TIP3    H245452   2.884   1.131   1.527  1.3922  0.9980  0.6867
 8013TIP3   OH245453   5.235   2.679   4.230  0.6495  0.0576  0.4968
 8013TIP3    H145454   5.147   2.677   4.192  0.6913 -1.0288  0.4447
 8013TIP3    H245455   5.280   2.749   4.183  0.1459 -0.0908 -0.2101
 8014TIP3   OH245456   3.882   4.594   5.338  0.0947 -0.7444 -0.0915
 8014TIP3    H145457   3.807   4.607   5.280  1.2785  2.0952 -1.0626
 8014TIP3    H245458   3.851   4.622   5.424  0.1200  0.6568 -0.5385
 8015TIP3   OH245459   0.040   5.834  11.580  0.4634 -0.2616 -0.7124
 8015TIP3    H145460   0.098   5.790  11.517  0.3653 -0.2312 -0.8254
 8015TIP3    H245461  -0.046   5.793  11.567  0.3394  0.0592 -0.9168
 8016TIP3   OH245462   3.700   2.543   0.292 -0.0888  0.0217 -0.6098
 8016TIP3    H145463   3.781   2.530   0.243  1.0120 -0.6883  1.3077
 8016TIP3    H245464   3.716   2.622   0.344  1.2769 -2.5927  3.2523
 8017TIP3   OH245465   0.411   5.535   3.663 -0.3333  0.4978  0.1094
 8017TIP3    H145466   0.430   5.606   3.603  0.1422 -0.3003 -0.7004
 8017TIP3    H245467   0.364   5.470   3.610  0.3720 -0.3499  0.5070
 8018TIP3   OH245468   2.850   4.974   2.534  0.1883 -0.2231  0.1423
 8018TIP3    H145469   2.786   4.965   2.605 -0.9282  0.8372 -0.7131
 8018TIP3    H245470   2.856   5.068   2.519  2.1428 -0.2898  0.3613
 8019TIP3   OH245471   3.817   3.750  13.297  0.1268  0.3707 -0.0345
 8019TIP3    H145472   3.754   3.681  13.276 -0.2022  0.6052  0.1685
 8019TIP3    H245473   3.825   3.747  13.393 -0.8559  1.4407  0.0972
 8020TIP3   OH245474   4.626   3.399   4.111  0.8789 -0.3512  0.2043
 8020TIP3    H145475   4.634   3.321   4.166 -1.6652 -0.1634  0.8930
 8020TIP3    H245476   4.613   3.365   4.022 -1.6612 -0.7605  0.7089
 8021TIP3   OH245477   1.479   3.762  12.254 -0.5531  0.0321  0.3150
 8021TIP3    H145478   1.395   3.791  12.220 -0.6625 -2.3973 -1.6209
 8021TIP3    H245479   1.544   3.808  12.201 -0.6627  1.1444  1.1409
 8022TIP3   OH245480   1.598   4.989  11.799  0.3608 -0.0413  0.5816
 8022TIP3    H145481   1.630   4.901  11.818 -1.5184 -0.8386  0.1777
 8022TIP3    H245482   1.582   5.028  11.884 -0.4910 -0.7400  0.7481
 8023TIP3   OH245483   5.006   5.026  14.114 -0.5365  0.2594  0.0880
 8023TIP3    H145484   4.984   5.002  14.204 -0.2449 -0.1178  0.0557
 8023TIP3    H245485   5.045   5.113  14.123 -1.3042  0.5952  0.2310
 8024TIP3   OH245486   1.114   1.288  14.830  0.1150 -0.8496 -0.1450
 8024TIP3    H145487   1.063   1.340  14.768  1.2876 -0.2412 -0.6188
 8024TIP3    H245488   1.187   1.345  14.856  0.3993 -1.5903  0.7405
 8025TIP3   OH245489   4.135   0.498  15.742  0.1491  0.2482  0.1987
 8025TIP3    H145490   4.230   0.482  15.743  0.0325 -0.4713 -0.2043
 8025TIP3    H245491   4.126   0.590  15.768  1.0561  0.8725 -1.6263
 8026TIP3   OH245492   4.460   3.731   1.705  0.5619  0.2192  0.0293
 8026TIP3    H145493   4.408   3.762   1.631 -0.1696 -0.4194  0.2645
 8026TIP3    H245494   4.401   3.736   1.780  1.0306  0.0653  0.4111
 8027TIP3   OH245495   5.256   0.934  14.985  0.1450 -0.4793  0.2313
 8027TIP3    H145496   5.312   1.001  14.947  0.8255 -1.4762 -0.5396
 8027TIP3    H245497   5.184   0.983  15.026  0.6091  0.7034 -0.3576
 8028TIP3   OH245498   2.212   5.151  16.843  0.6227 -0.6376  0.2767
 8028TIP3    H145499   2.281   5.086  16.827  1.6118  0.2125  1.0123
 8028TIP3    H245500   2.259   5.234  16.849 -0.5758  0.0706 -0.0839
 8029TIP3   OH245501   4.912   4.591  16.460  0.5099  0.0061  0.8198
 8029TIP3    H145502   4.962   4.511  16.477  1.6384  0.3627 -0.7046
 8029TIP3    H245503   4.824   4.560  16.440  0.6079 -0.7628  1.5212
 8030TIP3   OH245504   6.209   1.310  13.315  0.5190 -0.4675 -0.2781
 8030TIP3    H145505   6.209   1.358  13.232  1.8034 -0.0103 -0.0260
 8030TIP3    H245506   6.117   1.300  13.337  0.1205 -1.6402 -2.3642
 8031TIP3   OH245507   0.169   1.323  11.262 -0.4320 -0.4845 -0.1901
 8031TIP3    H145508   0.080   1.359  11.259  0.1579  1.0128 -0.2716
 8031TIP3    H245509   0.185   1.304  11.354 -0.2513  0.8192  0.0664
 8032TIP3   OH245510   3.204   5.639  15.147  0.0853  0.3462  0.1723
 8032TIP3    H145511   3.137   5.680  15.091 -0.0556 -0.9706 -0.6501
 8032TIP3    H245512   3.203   5.692  15.227  0.1791  2.1698 -0.9907
 8033TIP3   OH245513   3.682   2.901  14.766 -0.4928  0.1339  0.3442
 8033TIP3    H145514   3.682   2.951  14.848  0.7691 -0.8260  0.9372
 8033TIP3    H245515   3.643   2.817  14.789  1.2755 -0.7073  0.3165
 8034TIP3   OH245516   3.392   3.150  14.999 -0.2760  0.7504 -0.5087
 8034TIP3    H145517   3.382   3.068  15.048 -1.6464  0.6837 -0.8792
 8034TIP3    H245518   3.304   3.170  14.968  0.3656  1.3719 -1.9988
 8035TIP3   OH245519   0.326   0.802  12.891  0.3149 -0.4746  0.1518
 8035TIP3    H145520   0.375   0.884  12.881  0.6006 -0.4003  1.9139
 8035TIP3    H245521   0.331   0.760  12.805  1.3962  0.6744 -0.3683
 8036TIP3   OH245522   3.618   4.136   3.503  0.6941  0.2058  0.1316
 8036TIP3    H145523   3.683   4.105   3.441  2.2282  0.2805  1.6621
 8036TIP3    H245524   3.603   4.061   3.561  3.4198  1.7768  3.0232
 8037TIP3   OH245525   3.271   4.202   5.967 -0.1163 -0.1703  0.0494
 8037TIP3    H145526   3.282   4.224   5.874 -1.0303 -0.3068 -0.0883
 8037TIP3    H245527   3.361   4.200   6.001  0.1743  0.7652 -0.6282
 8038TIP3   OH245528   4.826   0.742   4.232 -0.0940  0.2158 -0.1696
 8038TIP3    H145529   4.802   0.670   4.174  0.1378 -0.2847  0.3564
 8038TIP3    H245530   4.796   0.714   4.318  1.1963  0.1679  0.2606
 8039TIP3   OH245531   5.283   3.096   5.277 -0.1589 -0.2154  0.0011
 8039TIP3    H145532   5.276   3.138   5.363  0.1061  2.8463 -1.4009
 8039TIP3    H245533   5.357   3.036   5.286  0.8588  1.1941  1.4821
 8040TIP3   OH245534   0.189   3.076  13.073 -0.1522  0.1238 -0.6288
 8040TIP3    H145535   0.263   3.117  13.028  0.9179 -0.3544  0.6368
 8040TIP3    H245536   0.171   3.134  13.147 -1.1565  0.3246 -1.0265
 8041TIP3   OH245537   4.898   1.684   3.320 -0.0504  0.5608  0.4281
 8041TIP3    H145538   4.919   1.771   3.286  2.4094 -0.9354 -2.0254
 8041TIP3    H245539   4.823   1.655   3.267  0.0564  0.5820  0.2667
 8042TIP3   OH245540   0.089   5.317   0.405  0.2481 -0.1185  0.8986
 8042TIP3    H145541   0.110   5.263   0.481  0.4087 -0.9555  0.2630
 8042TIP3    H245542   0.112   5.263   0.329 -2.6643 -0.4321  0.1844
 8043TIP3   OH245543   1.745   1.763   1.212 -0.0671  0.0403 -0.4322
 8043TIP3    H145544   1.663   1.789   1.255  0.5562  1.9730 -0.3681
 8043TIP3    H245545   1.810   1.823   1.247  0.9888 -0.1542 -2.0291
 8044TIP3   OH245546   3.282   4.710   3.362 -0.0834 -0.5786 -0.1937
 8044TIP3    H145547   3.312   4.791   3.321 -0.1709 -0.3887  0.1152
 8044TIP3    H245548   3.194   4.697   3.326 -0.8420  0.4914  1.1882
 8045TIP3   OH245549   5.696   5.365  14.339  0.3977 -0.0444 -0.2206
 8045TIP3    H145550   5.732   5.276  14.339  0.2885 -0.1073  1.3418
 8045TIP3    H245551   5.772   5.422  14.331  0.3977 -0.2797 -2.1765
 8046TIP3   OH245552   5.352   1.185  15.006 -0.2618 -0.1007 -0.4164
 8046TIP3    H145553   5.416   1.256  15.013  1.4061 -1.3245 -2.7931
 8046TIP3    H245554   5.274   1.227  14.968  0.2243  0.7526 -0.4789
 8047TIP3   OH245555   4.226   0.190   6.288 -0.5948  0.0095 -0.1141
 8047TIP3    H145556   4.171   0.209   6.364 -0.6471 -2.2856  0.4709
 8047TIP3    H245557   4.309   0.234   6.306 -0.6775 -0.3504  1.1851
 8048TIP3   OH245558   0.748   0.741  15.228 -0.3464 -0.4150 -0.1386
 8048TIP3    H145559   0.711   0.830  15.226 -3.4869 -1.6323  0.6461
 8048TIP3    H245560   0.782   0.732  15.317 -0.1345 -0.0214 -0.1779
 8049TIP3   OH245561   1.123   1.551   3.104  0.1112 -0.1218 -0.3965
 8049TIP3    H145562   1.164   1.528   3.021 -0.4708  0.0572 -0.7363
 8049TIP3    H245563   1.102   1.467   3.145  0.7082 -0.2108 -0.2782
 8050TIP3   OH245564   3.500   1.917  14.909 -0.5346 -0.1664 -0.0406
 8050TIP3    H145565   3.574   1.896  14.966 -0.2586 -0.9653 -0.6780
 8050TIP3    H245566   3.488   2.011  14.919  0.2916 -0.1048  0.3986
 8051TIP3   OH245567   5.598   2.460   5.010 -0.5149  0.2169 -0.5490
 8051TIP3    H145568   5.605   2.497   4.922 -1.3137  0.2890 -0.5847
 8051TIP3    H245569   5.610   2.366   4.996 -0.0945  0.2872 -0.6649
 8052TIP3   OH245570   4.192   0.005  15.061  0.0305 -0.1231 -0.3143
 8052TIP3    H145571   4.131  -0.012  15.132 -4.0138  1.3817 -3.1791
 8052TIP3    H245572   4.164  -0.054  14.991  1.6665  0.8335 -1.8125
 8053TIP3   OH245573   4.363   3.642   2.692 -0.3801 -0.2667 -0.6407
 8053TIP3    H145574   4.451   3.678   2.679  0.2474 -0.3546  2.7415
 8053TIP3    H245575   4.304   3.706   2.653  1.0358  1.5373  0.0900
 8054TIP3   OH245576   0.559   5.043  15.911 -0.1745  0.0217  0.2159
 8054TIP3    H145577   0.528   5.132  15.898 -0.8875  0.0019  1.6682
 8054TIP3    H245578   0.589   5.015  15.825  1.4180  2.1784  0.0127
 8055TIP3   OH245579   3.705   4.723   3.742  0.2941  0.2384 -0.0176
 8055TIP3    H145580   3.698   4.730   3.647  0.6845  1.9154  0.0578
 8055TIP3    H245581   3.655   4.645   3.764  1.3312 -0.9456 -1.7344
 8056TIP3   OH245582   3.441   0.087  15.882 -0.1233  0.1747  0.4426
 8056TIP3    H145583   3.398   0.145  15.945 -0.8714 -0.6998  0.7551
 8056TIP3    H245584   3.461   0.143  15.807  0.2472  1.0942  1.2230
 8057TIP3   OH245585   2.073   4.325  15.090 -0.0664  0.6210  0.1933
 8057TIP3    H145586   2.067   4.417  15.118  0.4282  0.5265  0.6240
 8057TIP3    H245587   2.162   4.317  15.056  0.1405  0.1085  0.8538
 8058TIP3   OH245588   1.255   4.584  12.318 -0.3702  0.3044  0.4848
 8058TIP3    H145589   1.262   4.646  12.245  1.3908 -1.1228 -0.5882
 8058TIP3    H245590   1.221   4.504  12.278  0.9354 -0.6000  1.1713
 8059TIP3   OH245591   2.855   2.832   5.461 -0.0903  0.1508 -0.2212
 8059TIP3    H145592   2.782   2.787   5.502  0.8537  0.4987  1.8703
 8059TIP3    H245593   2.839   2.924   5.477  1.3645  0.1712  1.2352
 8060TIP3   OH245594   3.076   0.607   4.788 -0.1104  0.1883  0.2566
 8060TIP3    H145595   3.156   0.611   4.735  0.8903 -0.8146  1.6446
 8060TIP3    H245596   3.006   0.590   4.725  0.9139 -0.0722 -0.8373
 8061TIP3   OH245597   2.036   3.551  12.039  0.0652  0.3440  0.2623
 8061TIP3    H145598   1.974   3.480  12.053  0.5498 -0.1145  0.1027
 8061TIP3    H245599   2.067   3.574  12.127  1.6610 -1.2327  0.1497
 8062TIP3   OH245600   4.209   5.121   0.993 -0.3025  0.4761  1.2417
 8062TIP3    H145601   4.203   5.102   1.087 -0.9633 -0.1108  1.0865
 8062TIP3    H245602   4.150   5.057   0.952 -0.1041  0.8053  0.4389
 8063TIP3   OH245603   2.869   3.936  15.135  0.3287 -0.1009  0.3418
 8063TIP3    H145604   2.952   3.963  15.094 -0.5641  1.1555 -0.6915
 8063TIP3    H245605   2.812   3.916  15.061 -0.6128  0.0094  1.0309
 8064TIP3   OH245606   0.631   5.772  11.627  0.1850  0.1357  0.0320
 8064TIP3    H145607   0.570   5.784  11.554 -0.2509 -0.6709  0.2615
 8064TIP3    H245608   0.701   5.718  11.590 -0.9391 -1.8223  0.6921
 8065TIP3   OH245609   0.331   0.341  14.631  0.1229 -0.1587 -0.3986
 8065TIP3    H145610   0.342   0.355  14.725 -0.7377  1.7865 -0.5559
 8065TIP3    H245611   0.407   0.382  14.591 -0.5944  0.9294 -0.6652
 8066TIP3   OH245612   0.287   5.451   2.510 -0.5262 -0.2431  0.1627
 8066TIP3    H145613   0.202   5.434   2.469 -0.6695  0.3366  0.2071
 8066TIP3    H245614   0.283   5.403   2.593 -0.9538  0.0641  0.3261
 8067TIP3   OH245615   2.121   5.181  15.280  0.0660  0.1606 -0.4529
 8067TIP3    H145616   2.152   5.248  15.220 -1.3784  1.3795  0.1264
 8067TIP3    H245617   2.192   5.169  15.342  0.6926  0.4980 -1.1048
 8068TIP3   OH245618   0.760   5.625  13.227  0.0265  0.2880  0.5917
 8068TIP3    H145619   0.746   5.718  13.207 -1.4468 -0.1395 -0.4681
 8068TIP3    H245620   0.713   5.610  13.309  1.7911  0.8781  1.7347
 8069TIP3   OH245621   4.858   4.519   6.306 -0.0921  0.2129  0.1004
 8069TIP3    H145622   4.832   4.436   6.346 -1.2545  0.5027 -0.0550
 8069TIP3    H245623   4.878   4.577   6.379  0.3923 -0.0905  0.2121
 8070TIP3   OH245624   0.813   5.803   5.434 -0.3615 -0.0578  0.2811
 8070TIP3    H145625   0.794   5.809   5.341 -0.4213 -0.4036  0.2719
 8070TIP3    H245626   0.855   5.718   5.445 -2.7459 -1.1846  0.9853
 8071TIP3   OH245627   4.268   5.041   1.493  0.4106  0.5973  0.2429
 8071TIP3    H145628   4.234   5.128   1.471  0.4633  1.3341  2.8521
 8071TIP3    H245629   4.190   4.992   1.521  0.6011  0.2711  0.2005
 8072TIP3   OH245630   3.212   6.542  14.589 -0.4412  0.4494 -0.1061
 8072TIP3    H145631   3.207   6.588  14.505  1.3176 -1.7862 -1.5230
 8072TIP3    H245632   3.142   6.477  14.585  1.6248 -1.8058 -1.3022
 8073TIP3   OH245633   3.921   0.206   0.314  0.2465 -0.5964 -0.3423
 8073TIP3    H145634   3.901   0.124   0.270 -0.8026 -0.6921  0.3047
 8073TIP3    H245635   3.837   0.238   0.345  0.7464  0.3598  0.0438
 8074TIP3   OH245636   5.532   2.745   1.043 -0.2087  0.1031  0.4454
 8074TIP3    H145637   5.465   2.701   1.094  0.1686 -1.2144 -0.1901
 8074TIP3    H245638   5.612   2.735   1.095  0.0146 -0.5549 -0.0224
 8075TIP3   OH245639   5.362   2.633   2.573  0.0451  0.3833  0.8193
 8075TIP3    H145640   5.269   2.640   2.595 -0.3446  0.5720 -0.8206
 8075TIP3    H245641   5.364   2.636   2.477  1.8214  1.3086  0.8687
 8076TIP3   OH245642   2.932   4.251   0.222 -0.2594  0.3381 -0.0338
 8076TIP3    H145643   2.862   4.191   0.196 -0.2649 -0.7328  2.3354
 8076TIP3    H245644   2.902   4.337   0.194 -0.7912 -0.5844 -2.4107
 8077TIP3   OH245645   3.126   3.178  17.156 -0.2341  0.4321 -0.3992
 8077TIP3    H145646   3.078   3.260  17.141 -3.6003 -0.6417  3.5624
 8077TIP3    H245647   3.069   3.111  17.118 -0.6153 -0.6007  1.9271
 8078TIP3   OH245648   5.231   2.964   3.226  0.5154  0.0436  0.6882
 8078TIP3    H145649   5.259   2.955   3.135  1.2336 -2.9519  1.1517
 8078TIP3    H245650   5.302   3.011   3.269  0.6603  0.4992 -0.0385
 8079TIP3   OH245651   0.127   3.527   3.705  0.0898 -0.1609  0.2522
 8079TIP3    H145652   0.099   3.578   3.781  0.2849  0.5653 -0.1576
 8079TIP3    H245653   0.131   3.590   3.633  0.0186 -0.8153 -0.3415
 8080TIP3   OH245654   0.992   0.054   4.236  0.2741 -0.5285 -0.2182
 8080TIP3    H145655   1.033   0.064   4.322 -1.7445 -0.0973  0.7360
 8080TIP3    H245656   1.060   0.079   4.174  1.0645  1.4124  1.3612
 8081TIP3   OH245657   1.088   3.221  12.298 -0.9364  0.4789  0.3337
 8081TIP3    H145658   1.107   3.273  12.220 -1.1754  0.9828  0.6045
 8081TIP3    H245659   1.173   3.198  12.334 -0.8040 -0.9458 -0.8492
 8082TIP3   OH245660   1.599   6.021  15.528 -0.4555 -0.1440  0.0846
 8082TIP3    H145661   1.619   6.030  15.621 -0.6066  2.1675 -0.0826
 8082TIP3    H245662   1.512   6.059  15.519 -0.4951 -0.4871 -0.9974
 8083TIP3   OH245663   2.277   5.459  15.223 -0.6173  0.4265 -0.2160
 8083TIP3    H145664   2.352   5.403  15.243 -2.2462 -1.3089  1.2509
 8083TIP3    H245665   2.268   5.452  15.128  0.4738 -0.1123 -0.2926
 8084TIP3   OH245666   2.967   1.873  15.009 -0.0613 -0.0254 -0.1680
 8084TIP3    H145667   3.059   1.847  15.003 -0.1894 -0.3687 -0.7013
 8084TIP3    H245668   2.931   1.816  15.077  0.1037  0.0575 -0.0107
 8085TIP3   OH245669   1.473   2.077   1.052 -0.8764  0.4410  0.1492
 8085TIP3    H145670   1.529   2.000   1.039 -2.0896 -0.8040  1.9785
 8085TIP3    H245671   1.521   2.149   1.011  1.7059 -0.7242  1.0059
 8086TIP3   OH245672   5.398   3.547  12.893  0.2118  0.6782  0.0773
 8086TIP3    H145673   5.452   3.478  12.853  0.8267  1.2511 -0.0998
 8086TIP3    H245674   5.404   3.530  12.987  1.8741  1.5600  0.1572
 8087TIP3   OH245675   6.666   1.028  11.849  0.2028 -0.1858  0.0627
 8087TIP3    H145676   6.644   0.967  11.919 -1.1669  1.5013  1.1730
 8087TIP3    H245677   6.612   1.105  11.868  0.2941  0.5355 -2.5071
 8088TIP3   OH245678   3.099   4.545  10.409 -0.5443 -0.2839  0.3318
 8088TIP3    H145679   3.066   4.559  10.498  1.8321 -0.6241  1.2885
 8088TIP3    H245680   3.072   4.456  10.387  1.1739 -1.1757  1.7594
 8089TIP3   OH245681   0.283   4.699   1.240  0.5236 -0.4763  0.3350
 8089TIP3    H145682   0.202   4.748   1.255  1.2895  0.5428  1.1781
 8089TIP3    H245683   0.299   4.655   1.324  2.7938  2.2338  1.3756
 8090TIP3   OH245684   4.152   1.123  13.011  0.2364  0.1464  0.1822
 8090TIP3    H145685   4.083   1.185  13.037 -0.7308 -0.8311  0.0224
 8090TIP3    H245686   4.169   1.073  13.091 -0.0625 -0.3701 -0.0736
 8091TIP3   OH245687   4.975   2.801  10.815 -0.5305  0.7859  0.1515
 8091TIP3    H145688   5.060   2.772  10.849 -0.4057  0.9729 -0.0009
 8091TIP3    H245689   4.936   2.850  10.887 -0.9174 -0.0973  0.5602
 8092TIP3   OH245690   2.598   1.564  11.927 -0.2452  0.1457 -0.2013
 8092TIP3    H145691   2.533   1.502  11.961 -1.3976  1.0451 -0.7628
 8092TIP3    H245692   2.625   1.526  11.843 -0.7912  0.2999 -0.4439
 8093TIP3   OH245693   4.804   2.562  14.178  0.4617 -0.0318  0.5204
 8093TIP3    H145694   4.817   2.470  14.159 -0.5641 -0.5766  2.3434
 8093TIP3    H245695   4.807   2.568  14.274  2.1492  2.0734  0.3866
 8094TIP3   OH245696   4.311   5.066   3.412  0.9196 -0.2015  0.2224
 8094TIP3    H145697   4.276   5.127   3.346  2.0427 -1.5638 -1.6725
 8094TIP3    H245698   4.332   5.122   3.487  1.2598  1.6453 -1.2050
 8095TIP3   OH245699   4.642   5.106  16.066  0.1377  0.2936  0.2111
 8095TIP3    H145700   4.644   5.011  16.053 -0.8491  0.1022  1.2816
 8095TIP3    H245701   4.690   5.142  15.992  0.9885 -1.0744  0.0832
 8096TIP3   OH245702   5.492   5.825  14.610 -0.2096 -0.2942  0.6227
 8096TIP3    H145703   5.451   5.858  14.530  0.3406 -0.0941  0.4227
 8096TIP3    H245704   5.566   5.884  14.625  0.7498 -1.3819  0.2941
 8097TIP3   OH245705   2.067   6.153   5.736  0.2694 -0.3896  0.3241
 8097TIP3    H145706   2.132   6.206   5.782 -0.7662  0.3902  0.9067
 8097TIP3    H245707   1.999   6.137   5.801 -0.4301 -0.6696 -0.4762
 8098TIP3   OH245708   2.012   1.818   3.987 -0.5992 -0.6195  0.6736
 8098TIP3    H145709   2.093   1.845   3.944 -1.8520 -0.6952 -1.7867
 8098TIP3    H245710   2.037   1.741   4.039  0.7215 -1.2263 -0.8119
 8099TIP3   OH245711   5.196   2.942  15.265 -0.6305 -0.6200  0.3177
 8099TIP3    H145712   5.233   2.860  15.231 -0.5736 -1.0509  1.3907
 8099TIP3    H245713   5.225   3.009  15.204  1.7340 -0.9917  1.0053
 8100TIP3   OH245714   6.663   4.898   2.190  0.0508 -0.0977  0.1536
 8100TIP3    H145715   6.657   4.903   2.286 -0.1066 -2.7097  0.3137
 8100TIP3    H245716   6.741   4.950   2.169  0.2094  0.3439  1.7211
 8101TIP3   OH245717   1.318   2.547   3.765  0.1296 -0.3275  0.2795
 8101TIP3    H145718   1.352   2.459   3.750 -0.5133 -0.4982 -0.1503
 8101TIP3    H245719   1.263   2.539   3.843 -0.4165 -0.4272 -0.1185
 8102TIP3   OH245720   1.489   2.471  11.504  0.1340  0.4412 -0.2631
 8102TIP3    H145721   1.398   2.500  11.519  0.7404  1.6879  1.1556
 8102TIP3    H245722   1.542   2.548  11.523  1.6574 -0.9991  1.6160
 8103TIP3   OH245723   6.748   6.182   0.726  0.7589 -0.1108  0.0120
 8103TIP3    H145724   6.695   6.206   0.802 -0.4450  2.7490 -1.6350
 8103TIP3    H245725   6.710   6.099   0.697 -1.8317  1.0432 -0.1262
 8104TIP3   OH245726   6.289   5.782  12.656  0.1665  0.9515  0.0755
 8104TIP3    H145727   6.343   5.812  12.728  2.1557  0.3872 -1.1305
 8104TIP3    H245728   6.348   5.732  12.601 -1.9541 -1.0011 -0.5060
 8105TIP3   OH245729   3.560   1.197  14.936  0.7904 -0.1577 -0.0322
 8105TIP3    H145730   3.512   1.182  15.017 -1.8160 -1.0052 -1.6636
 8105TIP3    H245731   3.547   1.290  14.918 -1.1746 -0.5747 -0.9716
 8106TIP3   OH245732   0.445   0.736   5.315 -0.3317  0.0769  0.2020
 8106TIP3    H145733   0.484   0.683   5.246 -0.0616  1.6823 -0.9185
 8106TIP3    H245734   0.351   0.721   5.306 -0.4396  1.6565 -1.7328
 8107TIP3   OH245735   2.008   0.869   3.074 -0.3286 -0.1413  0.1076
 8107TIP3    H145736   2.034   0.782   3.042 -0.1547 -0.4326  1.0245
 8107TIP3    H245737   2.091   0.912   3.093 -0.4513 -0.2497  0.8965
 8108TIP3   OH245738   1.519   5.605  12.397  0.2651 -0.2684 -0.2556
 8108TIP3    H145739   1.518   5.628  12.303  0.9519  0.2881 -0.1375
 8108TIP3    H245740   1.612   5.608  12.420  0.0415  0.2363  0.5919
 8109TIP3   OH245741   2.635   1.225  13.152  0.0935 -0.0333 -0.4094
 8109TIP3    H145742   2.605   1.210  13.241  1.1057 -1.8353 -0.3665
 8109TIP3    H245743   2.559   1.263  13.107 -1.2173 -1.4978  0.5436
 8110TIP3   OH245744   5.980   4.917   4.462 -0.0245 -0.1293 -0.1887
 8110TIP3    H145745   5.913   4.851   4.444  0.1782 -0.1989 -0.7104
 8110TIP3    H245746   5.955   4.955   4.546 -0.7117 -0.1677 -0.3735
 8111TIP3   OH245747   2.419   6.282   3.321  0.1356 -0.1481 -0.3259
 8111TIP3    H145748   2.358   6.283   3.394  0.3422  0.2994 -0.1532
 8111TIP3    H245749   2.375   6.330   3.251  0.2969  0.2079 -0.1886
 8112TIP3   OH245750   6.213   6.469   2.005  0.2397  0.4145  0.2784
 8112TIP3    H145751   6.231   6.503   2.093  0.0478  0.7219  0.1998
 8112TIP3    H245752   6.133   6.418   2.015  0.3978  0.1784  0.3480
 8113TIP3   OH245753   1.463   3.604  11.770 -0.0832 -0.6536  0.0195
 8113TIP3    H145754   1.389   3.621  11.828 -1.3543 -1.7157 -1.2719
 8113TIP3    H245755   1.510   3.688  11.766 -1.7839  0.3175  0.0184
 8114TIP3   OH245756   2.877   2.689  10.477  0.2454 -0.1385  0.9284
 8114TIP3    H145757   2.937   2.617  10.461 -0.9147 -1.0336  0.5659
 8114TIP3    H245758   2.800   2.648  10.517 -1.3928  0.5410 -1.4244
 8115TIP3   OH245759   0.632   0.314   4.979  0.1822  0.1242 -0.2795
 8115TIP3    H145760   0.708   0.366   5.005 -1.1972  1.2416  1.6872
 8115TIP3    H245761   0.568   0.329   5.049 -2.3884  0.3914 -2.6166
 8116TIP3   OH245762   4.912   0.527  11.947 -1.2125  0.0135 -1.0362
 8116TIP3    H145763   4.912   0.460  11.878  1.4255 -0.6729 -0.4099
 8116TIP3    H245764   4.891   0.608  11.900 -0.4756 -0.6081 -2.4872
 8117TIP3   OH245765   2.797   4.447  15.165 -0.2906  0.9473 -0.2428
 8117TIP3    H145766   2.867   4.510  15.179  1.0499 -0.7103  0.5975
 8117TIP3    H245767   2.804   4.386  15.237 -1.8611  0.0686 -0.8049
 8118TIP3   OH245768   1.009   0.238  13.643  0.0669 -0.3045  0.4719
 8118TIP3    H145769   1.022   0.230  13.737 -0.0011 -1.3367  0.3966
 8118TIP3    H245770   0.968   0.156  13.617 -0.1891  0.0957 -0.4130
 8119TIP3   OH245771   1.376   6.194   2.395  0.0332 -0.1516  0.3022
 8119TIP3    H145772   1.450   6.203   2.335  0.2416 -2.1717  0.2178
 8119TIP3    H245773   1.327   6.276   2.386  0.6569  0.0150 -1.8139
 8120TIP3   OH245774   2.832   2.122   0.025  0.0301  0.7599 -0.4793
 8120TIP3    H145775   2.846   2.035  -0.012  1.7277  0.4368  0.8400
 8120TIP3    H245776   2.760   2.110   0.088 -0.0037  0.3990 -0.5853
 8121TIP3   OH245777   5.573   1.669  14.031  0.1958  0.1555  0.4201
 8121TIP3    H145778   5.536   1.667  14.119 -0.0278  1.4445  0.3775
 8121TIP3    H245779   5.653   1.618  14.037 -1.0965 -1.8677  0.7457
 8122TIP3   OH245780   3.619   1.165   6.103 -0.8914  0.4385 -0.5265
 8122TIP3    H145781   3.547   1.175   6.165 -1.2962 -2.4866 -0.4641
 8122TIP3    H245782   3.689   1.123   6.153  0.4601  2.1826 -0.8932
 8123TIP3   OH245783   3.454   4.128  13.918  0.7270 -0.7283 -0.3281
 8123TIP3    H145784   3.369   4.088  13.902  0.0727  0.6303 -0.3018
 8123TIP3    H245785   3.514   4.083  13.858 -0.4545 -0.0914 -1.9946
 8124TIP3   OH245786   2.517   2.095   5.204 -0.2927 -0.4172  0.1843
 8124TIP3    H145787   2.606   2.108   5.236 -0.6565  0.4346  0.8512
 8124TIP3    H245788   2.475   2.180   5.213 -0.6925 -0.3884 -1.6846
 8125TIP3   OH245789   2.212   1.705   6.452  0.3935  0.5104 -0.2053
 8125TIP3    H145790   2.279   1.763   6.488  1.2629 -1.3818  1.3332
 8125TIP3    H245791   2.202   1.636   6.518 -2.2443  0.1305 -0.9403
 8126TIP3   OH245792   6.540   6.190   4.385 -0.7502 -0.0777 -0.1978
 8126TIP3    H145793   6.585   6.199   4.301 -2.6219  3.2481 -0.9551
 8126TIP3    H245794   6.561   6.102   4.415  1.0023 -0.8645 -3.5399
 8127TIP3   OH245795   1.803   5.978  14.441  0.1199 -0.2327  0.0254
 8127TIP3    H145796   1.840   6.063  14.418  0.7744 -1.1594 -2.5926
 8127TIP3    H245797   1.872   5.934  14.491 -0.3812  0.9111  1.7434
 8128TIP3   OH245798   2.916   1.111  11.851  0.2044 -0.1868 -0.6301
 8128TIP3    H145799   2.957   1.185  11.896 -2.2664  2.2514 -2.2376
 8128TIP3    H245800   2.957   1.033  11.890  0.2561  1.8796  3.6748
 8129TIP3   OH245801   4.593   3.880   4.712 -0.0428 -0.5138  0.1118
 8129TIP3    H145802   4.644   3.806   4.743  0.8934 -0.0454 -0.2831
 8129TIP3    H245803   4.634   3.956   4.753 -0.1082 -0.0834 -0.6084
 8130TIP3   OH245804   4.846   5.226   2.358  0.3356  0.1307  0.2419
 8130TIP3    H145805   4.826   5.236   2.265  2.3020  0.6061 -0.1397
 8130TIP3    H245806   4.822   5.135   2.377 -0.3958  0.1271 -0.6304
 8131TIP3   OH245807   4.533   4.334  14.441  0.6351  0.2526 -0.3451
 8131TIP3    H145808   4.537   4.425  14.412 -0.0326  0.1151 -0.8998
 8131TIP3    H245809   4.443   4.306  14.421  0.8503 -0.5444 -0.2480
 8132TIP3   OH245810   3.554   1.941   2.719 -0.7446  0.0436 -0.2724
 8132TIP3    H145811   3.639   1.969   2.685 -0.2353 -1.8917 -0.6854
 8132TIP3    H245812   3.492   1.964   2.649 -0.5099  1.1759 -0.1051
 8133TIP3   OH245813   1.765   4.188   1.969  0.2212 -0.0624  0.3491
 8133TIP3    H145814   1.750   4.165   2.061 -0.7877 -1.0252 -0.0504
 8133TIP3    H245815   1.691   4.151   1.922 -0.4119  2.2764 -0.5999
 8134TIP3   OH245816   1.629   0.730   0.510 -0.1190  0.1701 -0.1115
 8134TIP3    H145817   1.708   0.744   0.457 -0.3855 -0.6853 -0.7609
 8134TIP3    H245818   1.568   0.796   0.479  0.5842  1.3258  0.9167
 8135TIP3   OH245819   1.691   4.760  13.785  0.3150 -0.2383 -0.1464
 8135TIP3    H145820   1.606   4.722  13.807 -0.4202  0.9124 -0.9903
 8135TIP3    H245821   1.673   4.818  13.711  2.0211 -0.7957 -1.0209
 8136TIP3   OH245822   6.671   1.446   1.359  0.1804  0.0420  0.2210
 8136TIP3    H145823   6.720   1.395   1.424  0.8730  1.3762  0.7634
 8136TIP3    H245824   6.738   1.493   1.309 -0.4127 -0.0593 -0.6875
 8137TIP3   OH245825   0.287   2.752   6.687  0.2635 -0.2468  0.1024
 8137TIP3    H145826   0.245   2.794   6.762  2.2016  0.2728  0.9490
 8137TIP3    H245827   0.262   2.660   6.694 -0.0932 -0.0921  1.0368
 8138TIP3   OH245828   1.383   5.478   1.360  0.5013 -0.2683  0.5802
 8138TIP3    H145829   1.345   5.483   1.448  0.1527  1.1410  0.3639
 8138TIP3    H245830   1.356   5.392   1.327 -0.6254 -0.1959  1.2785
 8139TIP3   OH245831   4.920   4.937  13.599  0.2582 -0.3656  0.3695
 8139TIP3    H145832   4.922   4.962  13.691 -0.2516  1.6579 -0.1478
 8139TIP3    H245833   4.940   5.018  13.552 -1.3609 -0.9456 -1.3683
 8140TIP3   OH245834   4.061   4.550   6.604 -0.0067 -0.2063 -0.1786
 8140TIP3    H145835   4.107   4.543   6.688  1.7817  1.5638 -0.9734
 8140TIP3    H245836   4.034   4.460   6.584  0.9199 -0.8827  1.5315
 8141TIP3   OH245837   1.865   0.970  12.127 -0.6132  0.1527  0.0079
 8141TIP3    H145838   1.882   1.034  12.196  2.0185 -1.8217  1.2703
 8141TIP3    H245839   1.837   0.891  12.174  0.7062 -1.0641 -1.2064
 8142TIP3   OH245840   3.275   2.059  13.038 -0.2354 -0.0071  0.3574
 8142TIP3    H145841   3.292   1.976  13.083  0.4379  0.7093  1.4396
 8142TIP3    H245842   3.256   2.034  12.947  0.7886 -1.2798  0.4862
 8143TIP3   OH245843   5.568   4.395   3.026 -0.2349  0.5974 -0.0058
 8143TIP3    H145844   5.503   4.432   2.967  0.4683  0.7233 -0.7093
 8143TIP3    H245845   5.606   4.322   2.977  0.3204  0.6737  0.3069
 8144TIP3   OH245846   1.564   2.977  10.917 -0.1076  0.3631  0.2763
 8144TIP3    H145847   1.500   2.947  10.982 -0.5280  0.5929 -0.0228
 8144TIP3    H245848   1.557   2.914  10.846  1.2467 -0.5987  0.9829
 8145TIP3   OH245849   4.091   5.776   4.578 -0.1198 -0.2135 -0.2128
 8145TIP3    H145850   4.158   5.758   4.644 -0.1561  1.6892  0.3857
 8145TIP3    H245851   4.064   5.866   4.596 -0.4817  0.1671 -2.5407
 8146TIP3   OH245852   2.759   2.716  17.133  0.5879 -0.1871 -0.3872
 8146TIP3    H145853   2.739   2.708  17.227  0.2309  0.8338 -0.3740
 8146TIP3    H245854   2.773   2.626  17.104 -0.3721 -0.5964  0.4068
 8147TIP3   OH245855   6.404   2.573   4.283  0.7068 -0.2608  0.3841
 8147TIP3    H145856   6.394   2.663   4.250  1.2546 -0.8834 -1.5765
 8147TIP3    H245857   6.462   2.582   4.359  0.9012  1.0237  0.1010
 8148TIP3   OH245858   5.557   3.722   5.910  0.5208  0.1194  0.9178
 8148TIP3    H145859   5.491   3.713   5.842  2.0357 -0.0926 -0.5522
 8148TIP3    H245860   5.557   3.637   5.955  1.3284 -0.6455 -0.5078
 8149TIP3   OH245861   4.297   4.928  11.502 -0.1470  0.4238 -0.0344
 8149TIP3    H145862   4.343   4.935  11.586  0.9594 -1.7923 -0.4152
 8149TIP3    H245863   4.361   4.958  11.437 -0.0991 -0.2695 -0.3158
 8150TIP3   OH245864   2.365   5.974  11.828 -0.5619 -0.1759  0.4610
 8150TIP3    H145865   2.405   5.907  11.883 -1.5918 -1.4643 -0.3113
 8150TIP3    H245866   2.434   6.039  11.815  0.8600 -1.7059  0.2025
 8151TIP3   OH245867   4.811   4.918   5.701 -0.5868  0.2905 -0.2175
 8151TIP3    H145868   4.900   4.882   5.707 -1.1167 -0.7869  1.2233
 8151TIP3    H245869   4.754   4.842   5.709 -1.6968  1.2809  1.5034
 8152TIP3   OH245870   0.653   4.951   3.304 -0.1493 -0.3260 -0.2243
 8152TIP3    H145871   0.700   4.907   3.374 -0.1411 -1.3891 -0.8855
 8152TIP3    H245872   0.596   5.014   3.348 -0.3544 -1.1888  0.7428
 8153TIP3   OH245873   4.822   4.844  11.918 -0.2103 -0.0279  0.0075
 8153TIP3    H145874   4.798   4.799  11.837 -2.1915 -0.3400  0.7319
 8153TIP3    H245875   4.763   4.808  11.983 -0.4568  2.1450  1.0319
 8154TIP3   OH245876   5.470   3.478  11.278  0.3884 -0.1331  0.4001
 8154TIP3    H145877   5.414   3.403  11.302 -0.8941  1.0170  1.0970
 8154TIP3    H245878   5.431   3.512  11.198  0.4317  0.3319  0.5759
 8155TIP3   OH245879   4.550   6.269  11.210  0.5990  0.3066  0.4104
 8155TIP3    H145880   4.541   6.182  11.170  0.8338  0.9640 -1.1334
 8155TIP3    H245881   4.644   6.277  11.228  1.1267  1.5478 -2.6057
 8156TIP3   OH245882   1.453   5.474  15.541  0.2071 -0.5196  0.2283
 8156TIP3    H145883   1.472   5.563  15.512 -1.5595 -0.4556 -0.7959
 8156TIP3    H245884   1.370   5.452  15.499  0.3887 -2.4874  0.8351
 8157TIP3   OH245885   5.597   3.769  11.234  0.1082  0.1204  0.0466
 8157TIP3    H145886   5.523   3.735  11.184 -0.5890  1.2262  0.3008
 8157TIP3    H245887   5.661   3.795  11.168  0.1529 -0.5750 -0.1836
 8158TIP3   OH245888   4.259   1.005  13.244 -0.0721  0.6293 -0.2575
 8158TIP3    H145889   4.322   1.054  13.297  1.1053 -0.0157 -1.0279
 8158TIP3    H245890   4.192   0.976  13.306  0.5163  1.1330  0.6224
 8159TIP3   OH245891   3.928   1.492  17.025  0.0709  0.1860 -0.2779
 8159TIP3    H145892   3.878   1.423  16.981  0.6177 -1.3512  1.4277
 8159TIP3    H245893   3.864   1.537  17.080  0.1819 -0.6437  0.5561
 8160TIP3   OH245894   4.916   6.690  13.526 -0.1406  0.0854 -0.3536
 8160TIP3    H145895   4.906   6.596  13.541  1.1036 -0.1730 -1.0478
 8160TIP3    H245896   4.996   6.713  13.574  0.0823  0.5991 -0.9585
 8161TIP3   OH245897   4.005   4.160  11.730 -0.0553 -0.2777 -1.0833
 8161TIP3    H145898   3.964   4.243  11.705  1.4242  0.3971 -1.3501
 8161TIP3    H245899   4.002   4.108  11.649 -2.0826 -0.9727 -0.5927
 8162TIP3   OH245900   0.755   6.464   4.256  0.4745 -0.1410 -0.1267
 8162TIP3    H145901   0.694   6.462   4.330  0.7006 -1.0265  0.0427
 8162TIP3    H245902   0.699   6.468   4.179  0.1980 -0.5312  0.0476
 8163TIP3   OH245903   6.277   1.687  11.031 -0.3467 -0.3086  0.1088
 8163TIP3    H145904   6.258   1.781  11.028  1.7377  0.0691 -2.2349
 8163TIP3    H245905   6.347   1.679  11.095 -0.4593 -0.2826  0.2376
 8164TIP3   OH245906   4.915   2.639   3.860 -0.2387  0.1375  0.5937
 8164TIP3    H145907   4.902   2.729   3.831 -0.9845 -0.1254  0.0645
 8164TIP3    H245908   4.923   2.589   3.779  0.6352 -0.2130  0.8901
 8165TIP3   OH245909   2.717   4.099  14.920  0.7908  0.0316 -0.1120
 8165TIP3    H145910   2.651   4.108  14.851 -0.4293 -0.0120  1.0209
 8165TIP3    H245911   2.722   4.186  14.960  1.6806  0.1230 -0.4361
 8166TIP3   OH245912   3.562   3.585  15.492  1.1063 -0.0253  0.0325
 8166TIP3    H145913   3.552   3.502  15.445  3.8185 -0.5965  0.4046
 8166TIP3    H245914   3.651   3.582  15.528  0.6055  2.2763  1.5616
 8167TIP3   OH245915   2.840   4.804  14.502  0.2456 -0.2240  0.2658
 8167TIP3    H145916   2.902   4.740  14.467  0.1229 -0.8454  1.1589
 8167TIP3    H245917   2.760   4.791  14.450  0.9074  0.7146 -1.0151
 8168TIP3   OH245918   0.481   3.984  11.965 -0.3145 -0.2536 -0.1853
 8168TIP3    H145919   0.461   3.925  11.893 -0.9941 -0.1249 -0.1018
 8168TIP3    H245920   0.504   3.926  12.038 -1.5120 -0.4403  0.0580
 8169TIP3   OH245921   4.256   1.942   2.424 -0.3550  0.2534  0.5078
 8169TIP3    H145922   4.178   1.894   2.452 -0.6056 -1.2230 -2.5215
 8169TIP3    H245923   4.230   2.034   2.425 -2.2592 -0.2508 -0.7720
 8170TIP3   OH245924   2.869   3.632  10.306 -0.8674  0.1112  0.7576
 8170TIP3    H145925   2.940   3.570  10.289  0.0187  1.5228 -0.9115
 8170TIP3    H245926   2.913   3.716  10.315 -2.1665  0.6893  1.8208
 8171TIP3   OH245927   2.909   3.483  14.235 -0.2153 -0.3813 -0.0054
 8171TIP3    H145928   2.889   3.397  14.198 -2.0614  0.1184 -0.2107
 8171TIP3    H245929   2.908   3.542  14.160 -1.4280  0.2194  0.4740
 8172TIP3   OH245930   1.154   5.860   3.442  0.1790 -0.1623  0.2850
 8172TIP3    H145931   1.099   5.917   3.388  0.1090 -0.8026 -0.3218
 8172TIP3    H245932   1.181   5.789   3.383  0.2763 -0.7522  1.0264
 8173TIP3   OH245933   2.628   4.851   0.391 -0.2926  0.5785 -0.1949
 8173TIP3    H145934   2.679   4.789   0.339 -1.9377 -1.1541  0.2247
 8173TIP3    H245935   2.671   4.852   0.477  1.2317  1.9319 -0.9631
 8174TIP3   OH245936   5.971   1.376  16.170  0.0100 -0.5143  0.4791
 8174TIP3    H145937   5.981   1.465  16.203 -1.4042  0.0636 -0.6333
 8174TIP3    H245938   6.055   1.357  16.129  0.7624 -0.1742  1.8023
 8175TIP3   OH245939   4.280   1.642   0.392  0.6521 -0.1389 -0.0188
 8175TIP3    H145940   4.283   1.571   0.329 -1.4558 -0.7308  0.5238
 8175TIP3    H245941   4.320   1.606   0.471 -0.6195 -0.8310  0.3288
 8176TIP3   OH245942   4.570   1.262  12.814  0.5874 -0.5337  0.3723
 8176TIP3    H145943   4.582   1.291  12.904 -0.1536 -1.2605  0.7047
 8176TIP3    H245944   4.491   1.207  12.816  0.9685 -1.1331 -0.5780
 8177TIP3   OH245945   4.882   6.437   4.589  0.0355 -0.3563 -0.8575
 8177TIP3    H145946   4.949   6.487   4.635 -0.4398 -0.8231  0.3559
 8177TIP3    H245947   4.822   6.408   4.658 -1.1371 -0.3673 -1.8632
 8178TIP3   OH245948   1.017   6.580  16.742  0.7539 -0.0342 -0.5978
 8178TIP3    H145949   1.038   6.491  16.716  0.4550 -0.1119 -0.5668
 8178TIP3    H245950   1.097   6.630  16.723  1.1060 -0.4132 -0.1010
 8179TIP3   OH245951   3.971   2.964  15.791 -0.3380 -0.0011 -0.1193
 8179TIP3    H145952   3.907   2.994  15.727 -1.4644 -1.3865  0.3254
 8179TIP3    H245953   4.053   2.956  15.742 -0.9673 -0.1087 -1.1571
 8180TIP3   OH245954   6.565   0.209   1.403 -0.0627  0.2305 -0.9796
 8180TIP3    H145955   6.561   0.159   1.321  0.6771  0.2583 -1.0375
 8180TIP3    H245956   6.553   0.300   1.377  0.4301  0.2646 -1.0869
 8181TIP3   OH245957   4.395   0.179   5.516 -0.3421  0.0689 -0.0308
 8181TIP3    H145958   4.369   0.212   5.602  0.4911  1.5524 -0.3305
 8181TIP3    H245959   4.328   0.211   5.456 -1.9821 -2.5714  0.3110
 8182TIP3   OH245960   0.246   4.976   5.630  0.3741 -0.0740 -0.0370
 8182TIP3    H145961   0.197   5.049   5.592  0.1675 -0.2575 -0.1311
 8182TIP3    H245962   0.258   4.999   5.722  1.5099  0.7078 -0.3739
 8183TIP3   OH245963   0.302   0.057  13.980  0.3827 -1.0283 -0.0380
 8183TIP3    H145964   0.245   0.034  14.052 -0.2702 -0.8738 -0.5003
 8183TIP3    H245965   0.326   0.149  13.996  0.5002 -1.0941  0.1559
 8184TIP3   OH245966   3.882   4.249  15.721 -0.1403 -0.0190 -0.0913
 8184TIP3    H145967   3.843   4.336  15.727  0.1060  0.0875 -0.0063
 8184TIP3    H245968   3.839   4.208  15.646  0.4824  0.5582 -0.7713
 8185TIP3   OH245969   6.069   3.502   1.499 -0.2987 -0.2468 -0.1229
 8185TIP3    H145970   6.092   3.576   1.556 -0.2892  0.6154 -1.2422
 8185TIP3    H245971   5.991   3.464   1.540 -0.9783  1.0731 -0.1564
 8186TIP3   OH245972   0.578   2.576  13.178  0.2037  0.0613 -0.3214
 8186TIP3    H145973   0.527   2.510  13.131  1.0998 -1.4473  0.7566
 8186TIP3    H245974   0.664   2.535  13.189 -0.0714  0.2237  2.9037
 8187TIP3   OH245975   2.065   2.334  13.506 -0.1815 -0.1584  0.4393
 8187TIP3    H145976   2.032   2.381  13.582 -0.6807  1.1784 -0.6006
 8187TIP3    H245977   2.129   2.394  13.467  0.5800 -1.1213  0.1914
 8188TIP3   OH245978   6.457   6.462   0.881 -0.4313 -0.2679  0.6983
 8188TIP3    H145979   6.377   6.411   0.862 -0.1984  0.0979 -1.3244
 8188TIP3    H245980   6.508   6.458   0.800  0.7376  1.1129  1.3490
 8189TIP3   OH245981   4.091   0.226   6.520 -0.7319  0.0548  0.1338
 8189TIP3    H145982   4.028   0.154   6.519 -0.6504 -0.0158  0.0635
 8189TIP3    H245983   4.038   0.305   6.530 -0.8529  0.0159 -0.1968
 8190TIP3   OH245984   1.567   1.189   1.119 -0.2753  0.5697  0.2066
 8190TIP3    H145985   1.644   1.243   1.135  0.0196  0.4520 -0.7721
 8190TIP3    H245986   1.588   1.104   1.156 -1.2091  1.4218  2.8549
 8191TIP3   OH245987   0.542   4.875  11.649 -0.8415  0.1637 -0.6587
 8191TIP3    H145988   0.459   4.841  11.683 -0.1205  0.3857  1.4092
 8191TIP3    H245989   0.575   4.805  11.593 -0.5321 -1.6319  1.6682
 8192TIP3   OH245990   6.781   1.628  14.595 -0.3779 -0.1311 -0.0492
 8192TIP3    H145991   6.795   1.533  14.597 -0.4469 -0.1324  0.3612
 8192TIP3    H245992   6.867   1.665  14.575 -0.2721 -0.2605  0.1624
 8193TIP3   OH245993   5.837   3.944  16.042  0.6214 -0.6931  0.3371
 8193TIP3    H145994   5.794   3.914  15.962  0.7117  1.1103 -0.4239
 8193TIP3    H245995   5.927   3.912  16.034  0.1483 -2.1241  0.6275
 8194TIP3   OH245996   4.105   5.804  11.495 -0.1981 -0.5310 -0.3580
 8194TIP3    H145997   4.043   5.831  11.563  0.6682 -1.8681  0.9821
 8194TIP3    H245998   4.088   5.711  11.481  0.0756 -0.4198 -1.5273
 8195TIP3   OH245999   5.825   5.114  13.149  0.2515  0.4043 -0.4927
 8195TIP3    H146000   5.786   5.152  13.070 -0.1044  0.4490 -0.2987
 8195TIP3    H246001   5.915   5.145  13.149  0.3305  0.1762 -1.0264
 8196TIP3   OH246002   4.329   0.015   0.395  0.1012  0.1054 -0.3607
 8196TIP3    H146003   4.410  -0.017   0.434  0.2847 -0.7749 -1.4228
 8196TIP3    H246004   4.280  -0.064   0.374  0.5072  0.4892 -2.9149
 8197TIP3   OH246005   3.111   5.438  13.788 -0.0964  0.2609 -0.1639
 8197TIP3    H146006   3.094   5.514  13.844 -1.1430 -0.4794  0.5408
 8197TIP3    H246007   3.153   5.375  13.847  0.1290  0.0267 -0.5768
 8198TIP3   OH246008   5.497   0.742  14.454  0.3056 -0.1971 -0.3814
 8198TIP3    H146009   5.445   0.795  14.514  1.7663  1.9069 -0.9307
 8198TIP3    H246010   5.446   0.739  14.374 -0.2476 -0.4841 -0.0228
 8199TIP3   OH246011   1.511   1.466   6.184 -0.1893  0.3518  0.1244
 8199TIP3    H146012   1.446   1.482   6.253  1.4860  2.6053  1.2483
 8199TIP3    H246013   1.556   1.386   6.210 -0.8785  0.1196  0.6111
 8200TIP3   OH246014   1.261   0.995   3.090  0.1289 -0.3583  0.1018
 8200TIP3    H146015   1.230   1.084   3.072 -0.3030 -0.4794  0.2296
 8200TIP3    H246016   1.317   0.973   3.015 -1.0070 -0.5572 -0.7067
 8201TIP3   OH246017   0.202   4.457   5.922  0.0968 -0.1232  0.0111
 8201TIP3    H146018   0.288   4.450   5.963 -0.4822 -2.0864  0.9989
 8201TIP3    H246019   0.177   4.549   5.933  2.1812  0.5360 -0.5813
 8202TIP3   OH246020   5.619   2.508   3.994 -0.2614 -0.0743 -0.3915
 8202TIP3    H146021   5.601   2.491   4.087  1.1166  0.1800 -0.0574
 8202TIP3    H246022   5.551   2.569   3.967  1.9151  3.4995  1.7095
 8203TIP3   OH246023   2.929   1.079   2.206  0.2056  0.9230  0.4696
 8203TIP3    H146024   2.853   1.090   2.263  0.1910 -0.7050  0.7806
 8203TIP3    H246025   2.966   0.995   2.231  0.1901  0.1673 -1.9204
 8204TIP3   OH246026   2.594   0.279  12.982 -0.0648 -0.3255  0.3878
 8204TIP3    H146027   2.552   0.285  13.068  1.2254 -2.3300  1.1841
 8204TIP3    H246028   2.614   0.186  12.971 -0.1184 -0.0812 -2.0525
 8205TIP3   OH246029   2.149   6.340  13.948  0.5458  0.0317  0.0350
 8205TIP3    H146030   2.213   6.273  13.923  1.1541  0.9204 -0.8475
 8205TIP3    H246031   2.176   6.368  14.035 -0.3283 -1.5874  0.8644
 8206TIP3   OH246032   2.579   3.400  16.030  0.1676 -0.7283 -0.6187
 8206TIP3    H146033   2.568   3.445  15.947 -0.6275 -0.1871 -0.2360
 8206TIP3    H246034   2.577   3.307  16.008 -4.3978 -0.7306 -0.7772
 8207TIP3   OH246035   1.503   2.384  16.887  0.3866 -0.5132  0.1167
 8207TIP3    H146036   1.460   2.420  16.809 -1.6924 -1.5368  0.7348
 8207TIP3    H246037   1.525   2.460  16.940  2.7001  0.2714 -1.8538
 8208TIP3   OH246038   1.442   0.172   1.640  0.1153 -0.4876  0.1655
 8208TIP3    H146039   1.353   0.192   1.671 -0.4235 -1.2688 -0.8673
 8208TIP3    H246040   1.431   0.146   1.549  1.5520  0.5270 -0.3141
 8209TIP3   OH246041   6.589   4.616   5.125  0.3133 -0.3701 -1.0277
 8209TIP3    H146042   6.633   4.539   5.089  0.7376 -1.3830  1.5709
 8209TIP3    H246043   6.576   4.596   5.217 -1.7830  1.6816 -0.8175
 8210TIP3   OH246044   4.116   2.667   3.705  0.4374  0.5186  0.7264
 8210TIP3    H146045   4.192   2.646   3.759 -1.1669  0.8412  3.1628
 8210TIP3    H246046   4.061   2.589   3.711 -0.2679  0.9980  0.4653
 8211TIP3   OH246047   2.313   3.308   1.193  0.4511  0.6855  0.3100
 8211TIP3    H146048   2.288   3.275   1.106  0.0055 -0.2560  0.7816
 8211TIP3    H246049   2.240   3.364   1.219  0.7765  1.2990 -0.1002
 8212TIP3   OH246050   3.812   3.578  14.792 -0.2869 -0.1588 -0.7831
 8212TIP3    H146051   3.733   3.534  14.761 -1.4818  0.9071  0.6426
 8212TIP3    H246052   3.871   3.507  14.817 -1.6776 -0.9798  0.2570
 8213TIP3   OH246053   5.751   2.251  15.218 -0.4701  0.4028 -0.1248
 8213TIP3    H146054   5.816   2.241  15.149 -0.8532 -1.5078 -0.2307
 8213TIP3    H246055   5.668   2.226  15.177 -0.7466 -0.4655  0.9203
 8214TIP3   OH246056   6.146   0.755  13.819  0.0604 -0.2332 -0.2682
 8214TIP3    H146057   6.218   0.744  13.880 -1.1009 -0.0245  1.1736
 8214TIP3    H246058   6.070   0.717  13.863 -1.1258  1.2990 -0.9186
 8215TIP3   OH246059   0.373   2.152   0.364 -0.0575  0.3483 -0.3570
 8215TIP3    H146060   0.425   2.232   0.358 -1.0378  1.2582  2.6741
 8215TIP3    H246061   0.300   2.168   0.304  0.7973  0.8974 -1.2704
 8216TIP3   OH246062   4.351   4.751   5.406 -0.4322  0.6124 -0.3147
 8216TIP3    H146063   4.294   4.680   5.436  0.9253 -0.0537  0.7205
 8216TIP3    H246064   4.291   4.824   5.388 -1.8996 -0.9039 -1.8010
 8217TIP3   OH246065   0.493   3.058  14.187 -0.5737 -0.5433 -0.1772
 8217TIP3    H146066   0.475   3.003  14.111  0.0708 -0.5427 -0.3368
 8217TIP3    H246067   0.407   3.081  14.222 -0.8554 -1.1407 -0.4768
 8218TIP3   OH246068   0.009   4.749   0.624 -0.0114  0.2195 -0.1455
 8218TIP3    H146069   0.025   4.686   0.694  2.5801  0.2727 -0.6484
 8218TIP3    H246070  -0.033   4.823   0.667  0.8339 -0.0718  1.2194
 8219TIP3   OH246071   6.190   4.123   6.237  0.3652 -0.6346  0.5203
 8219TIP3    H146072   6.281   4.116   6.264  0.4050 -0.7472  0.3579
 8219TIP3    H246073   6.168   4.215   6.248  0.9708 -0.3073 -0.9867
 8220TIP3   OH246074   2.984   5.401   4.185  0.0467 -0.1561 -0.6260
 8220TIP3    H146075   3.070   5.440   4.171  0.2462 -0.2812  0.2103
 8220TIP3    H246076   2.931   5.431   4.111  0.8461 -0.1936 -1.2152
 8221TIP3   OH246077   0.683   3.558  17.192  0.0611 -0.2978 -0.1380
 8221TIP3    H146078   0.708   3.539  17.282 -2.3410 -2.9382  0.0215
 8221TIP3    H246079   0.756   3.526  17.139  1.3006  0.9018  0.8182
 8222TIP3   OH246080   2.772   3.212   3.148 -0.3289 -0.5327  0.0818
 8222TIP3    H146081   2.692   3.178   3.108 -0.7857 -1.2862  1.6075
 8222TIP3    H246082   2.741   3.274   3.214  0.3059 -1.4454  1.2464
 8223TIP3   OH246083   4.230   5.645  13.152 -0.1127 -0.6551  0.8248
 8223TIP3    H146084   4.275   5.721  13.116 -0.1827 -1.1711 -0.3765
 8223TIP3    H246085   4.139   5.673  13.163  0.0306 -0.3152  1.1432
 8224TIP3   OH246086   0.896   0.083  12.734 -0.2311  0.4203  0.1039
 8224TIP3    H146087   0.859   0.158  12.781 -1.4135 -0.1340  0.0576
 8224TIP3    H246088   0.842   0.009  12.761  0.1201 -0.1918 -0.8658
 8225TIP3   OH246089   5.576   2.651  10.827  0.0032 -0.4119 -0.1038
 8225TIP3    H146090   5.560   2.572  10.776 -1.1663 -0.7819  0.8031
 8225TIP3    H246091   5.517   2.717  10.789 -0.5671 -0.5717  0.5055
 8226TIP3   OH246092   2.605   3.570  13.517  0.1779 -0.0781 -0.8447
 8226TIP3    H146093   2.659   3.649  13.507  2.1632 -1.3147 -0.3295
 8226TIP3    H246094   2.669   3.498  13.515 -1.5367 -1.6213 -0.7061
 8227TIP3   OH246095   1.823   1.669  12.773 -0.8384 -0.3769  0.1626
 8227TIP3    H146096   1.842   1.722  12.696  0.5312 -0.2518  0.5718
 8227TIP3    H246097   1.732   1.687  12.793 -1.2494 -0.4949 -1.4941
 8228TIP3   OH246098   2.741   1.000  14.722  0.3913  0.2966 -0.0769
 8228TIP3    H146099   2.768   0.909  14.706  1.4841  0.9421 -2.2662
 8228TIP3    H246100   2.798   1.030  14.793 -0.5966 -0.9798  1.2774
 8229TIP3   OH246101   6.768   3.315  14.835 -0.2831 -0.0222  0.0110
 8229TIP3    H146102   6.756   3.222  14.854 -1.6293 -0.2433 -1.7524
 8229TIP3    H246103   6.720   3.360  14.905 -0.4270 -0.6572  0.3256
 8230TIP3   OH246104   2.510   0.239   3.226 -0.0045  0.0153 -0.1467
 8230TIP3    H146105   2.570   0.311   3.247  1.4441 -1.8788  2.3982
 8230TIP3    H246106   2.452   0.233   3.302  0.3744 -1.9908  0.0016
 8231TIP3   OH246107   2.563   5.500  14.818 -0.4228  0.4839 -0.7314
 8231TIP3    H146108   2.522   5.580  14.853 -0.9735  0.1766 -0.6801
 8231TIP3    H246109   2.657   5.515  14.830 -0.6753 -0.9880  3.9874
 8232TIP3   OH246110   5.280   2.687  12.078  0.2163 -0.0290 -0.2586
 8232TIP3    H146111   5.197   2.734  12.091  0.9935  1.1653  0.5042
 8232TIP3    H246112   5.310   2.715  11.992 -0.1528 -0.4292 -0.5175
 8233TIP3   OH246113   5.696   0.680  13.238  0.0977  0.3952 -0.2756
 8233TIP3    H146114   5.618   0.682  13.182 -1.1337 -1.7708  1.2827
 8233TIP3    H246115   5.682   0.751  13.300  0.5284  1.5390 -1.4611
 8234TIP3   OH246116   1.631   1.312  11.504  0.4782 -0.1934 -0.0721
 8234TIP3    H146117   1.715   1.299  11.547  0.0410 -0.2903  0.7481
 8234TIP3    H246118   1.620   1.407  11.498  0.2022 -0.1781  0.6809
 8235TIP3   OH246119   5.981   5.436  16.988  0.1684 -0.1132 -0.3850
 8235TIP3    H146120   5.939   5.501  17.044  4.6528  0.9650  1.9682
 8235TIP3    H246121   5.948   5.454  16.900 -1.4395  2.9169  0.7721
 8236TIP3   OH246122   0.861   0.288  14.685  0.4440  0.1156  0.0672
 8236TIP3    H146123   0.889   0.241  14.607 -0.3042  0.4704 -0.4303
 8236TIP3    H246124   0.817   0.222  14.738 -0.3518  0.1741 -0.4965
 8237TIP3   OH246125   6.493   6.710  16.351  0.3526 -0.4561 -0.1663
 8237TIP3    H146126   6.439   6.632  16.363 -1.9339  0.9341 -1.0119
 8237TIP3    H246127   6.471   6.767  16.425  0.3521  0.2831 -0.7200
 8238TIP3   OH246128   0.905   6.600   2.331 -0.4437  0.2035  0.4896
 8238TIP3    H146129   0.984   6.552   2.306  0.5612  1.4045  1.2820
 8238TIP3    H246130   0.837   6.533   2.337  1.1806 -1.3368  2.6971
 8239TIP3   OH246131   1.648   1.348   2.318 -0.3491 -0.4205  0.1859
 8239TIP3    H146132   1.609   1.262   2.300 -0.8443  0.6067 -4.1193
 8239TIP3    H246133   1.576   1.400   2.353 -0.9823 -0.7112 -0.6742
 8240TIP3   OH246134   5.797   3.596   5.744  0.3590  0.2607 -0.0515
 8240TIP3    H146135   5.862   3.628   5.806 -0.6239  0.8855  0.6752
 8240TIP3    H246136   5.838   3.608   5.658  0.5424  2.2185  0.2938
 8241TIP3   OH246137   2.894   2.048  14.799 -0.2524  0.6754 -0.1979
 8241TIP3    H146138   2.912   1.989  14.873 -2.1483  0.0112 -0.2246
 8241TIP3    H246139   2.919   1.998  14.722 -1.0649  0.2148 -0.1691
 8242TIP3   OH246140   1.663   3.849   4.009 -0.3899  0.2918 -0.1004
 8242TIP3    H146141   1.736   3.899   3.973 -2.0591  1.9517 -1.2777
 8242TIP3    H246142   1.602   3.839   3.935 -0.5537 -2.6544  0.3606
 8243TIP3   OH246143   1.520   2.257  11.314 -0.1206  0.6863 -0.3094
 8243TIP3    H146144   1.498   2.336  11.365 -1.5555  0.5069 -0.6204
 8243TIP3    H246145   1.573   2.205  11.374 -1.3965  0.6942  0.8639
 8244TIP3   OH246146   5.284   0.197  14.615  0.9268  0.5564  0.4475
 8244TIP3    H146147   5.289   0.106  14.642  2.5649  0.0741 -1.3731
 8244TIP3    H246148   5.328   0.245  14.685 -2.1850  0.3062  2.7046
 8245TIP3   OH246149   3.890   3.657   0.362  0.2120 -0.1767  0.5429
 8245TIP3    H146150   3.818   3.648   0.424  0.7776 -0.6100  1.1535
 8245TIP3    H246151   3.925   3.569   0.353  1.5180  0.2433  1.3151
 8246TIP3   OH246152   4.911   1.300  10.644  0.2109 -0.2538 -0.1965
 8246TIP3    H146153   4.924   1.389  10.612  0.0711  0.8293  2.6210
 8246TIP3    H246154   4.993   1.255  10.623  0.6264  0.7940 -0.8347
 8247TIP3   OH246155   1.681   4.713   1.595  0.3128  0.1642 -0.4907
 8247TIP3    H146156   1.774   4.727   1.578  0.2827 -0.5074 -1.2688
 8247TIP3    H246157   1.643   4.701   1.508 -1.0701  3.6385 -0.4530
 8248TIP3   OH246158   5.352   1.938  14.112  0.2084 -0.1862  0.6020
 8248TIP3    H146159   5.407   1.923  14.035  0.0263  1.9283  0.0470
 8248TIP3    H246160   5.414   1.957  14.183  0.2431  2.3681 -0.0614
 8249TIP3   OH246161   4.350   5.120  16.097 -0.2563  0.2069  0.0708
 8249TIP3    H146162   4.345   5.024  16.101 -0.2923  0.2202  0.3497
 8249TIP3    H246163   4.443   5.140  16.108 -0.2275  0.1988 -0.1406
 8250TIP3   OH246164   4.074   4.440   3.537 -0.0010 -0.1481 -0.1905
 8250TIP3    H146165   4.015   4.439   3.462  0.5037  1.1641 -0.6224
 8250TIP3    H246166   4.071   4.531   3.568  1.1692 -0.2610  0.2722
 8251TIP3   OH246167   1.009   3.130   1.902  0.5903 -0.4161  0.3669
 8251TIP3    H146168   1.072   3.138   1.830  0.2122 -0.8510 -0.0140
 8251TIP3    H246169   1.053   3.073   1.965  1.0236  0.1657  0.5970
 8252TIP3   OH246170   4.861   6.678   1.924 -0.0110 -0.3074 -0.0496
 8252TIP3    H146171   4.848   6.739   1.996  0.3566 -0.6198  0.2816
 8252TIP3    H246172   4.941   6.708   1.880 -0.6135  0.3000 -0.7547
 8253TIP3   OH246173   2.459   4.760  12.598 -0.6611  0.1972  0.1986
 8253TIP3    H146174   2.454   4.832  12.535 -0.1855 -1.9988 -2.4549
 8253TIP3    H246175   2.490   4.802  12.679 -1.0822  3.0688 -1.0436
 8254TIP3   OH246176   3.765   5.328  15.125  0.2335 -0.1785  0.6900
 8254TIP3    H146177   3.676   5.351  15.153  0.3547 -0.0266  0.9495
 8254TIP3    H246178   3.752   5.271  15.049 -0.0767  0.3505  0.3404
 8255TIP3   OH246179   5.687   5.920  10.739  0.3445  0.2520 -0.4390
 8255TIP3    H146180   5.758   5.933  10.675  0.0640  2.6345 -0.3252
 8255TIP3    H246181   5.706   5.983  10.808 -1.3733  0.2320  0.0691
 8256TIP3   OH246182   2.428   6.541  14.002 -0.2728  0.3990 -0.5857
 8256TIP3    H146183   2.367   6.494  14.058 -0.6681  2.7344  1.0447
 8256TIP3    H246184   2.373   6.592  13.942  0.0519  1.6308  0.1356
 8257TIP3   OH246185   5.206   6.735   1.431 -0.5337 -0.0619  0.0414
 8257TIP3    H146186   5.192   6.805   1.495  2.2470 -0.0077  0.6420
 8257TIP3    H246187   5.252   6.666   1.480  1.5172 -0.0776 -1.8158
 8258TIP3   OH246188   4.527   2.890  16.422 -0.2244 -0.1585  0.1512
 8258TIP3    H146189   4.553   2.976  16.457  0.3335 -0.1035 -0.3805
 8258TIP3    H246190   4.537   2.899  16.327 -3.0061  0.1114 -0.1434
 8259TIP3   OH246191   0.537   4.705   3.300  0.7394  0.1988 -0.2574
 8259TIP3    H146192   0.588   4.785   3.287  0.1864  0.3777 -1.3391
 8259TIP3    H246193   0.597   4.646   3.346  1.2626  1.1050  0.2402
 8260TIP3   OH246194   5.074   4.027   5.289 -0.1602 -0.4292 -0.2646
 8260TIP3    H146195   5.107   4.010   5.377 -0.9024  0.1765  0.1348
 8260TIP3    H246196   5.122   4.104   5.259  0.1043 -0.6449 -0.3977
 8261TIP3   OH246197   3.451   4.940  15.728  0.5669 -0.5506  0.4516
 8261TIP3    H146198   3.437   4.897  15.812  0.8225  0.1558  0.8568
 8261TIP3    H246199   3.478   5.029  15.750  1.2713 -0.5462 -0.3667
 8262TIP3   OH246200   2.564   4.744   2.709  0.2439  0.1181 -0.2500
 8262TIP3    H146201   2.624   4.682   2.666 -2.1340 -2.1554 -0.3868
 8262TIP3    H246202   2.534   4.801   2.638  1.9811  1.1028 -0.2317
 8263TIP3   OH246203   5.026   2.924   5.583 -0.4243  0.2617  0.3115
 8263TIP3    H146204   4.991   2.957   5.500 -0.3117 -1.3765 -0.3987
 8263TIP3    H246205   4.957   2.940   5.647 -1.1060  0.1510 -0.3954
 8264TIP3   OH246206   5.365   0.049   0.344 -0.0419  0.2264  0.5168
 8264TIP3    H146207   5.299   0.013   0.402  1.1215 -0.3985  1.4643
 8264TIP3    H246208   5.330   0.135   0.319 -0.7572  0.3089  1.7651
 8265TIP3   OH246209   0.300   4.234  11.935 -0.0271  0.4116  0.5599
 8265TIP3    H146210   0.350   4.155  11.919  0.2015  0.9239 -1.3884
 8265TIP3    H246211   0.224   4.227  11.877 -0.4634  1.2016  1.0202
 8266TIP3   OH246212   4.933   2.631  12.847  0.6486  0.4515 -0.2790
 8266TIP3    H146213   4.847   2.624  12.804  0.0240 -0.9920  1.1568
 8266TIP3    H246214   4.913   2.631  12.940  2.1820  0.7254  0.0514
 8267TIP3   OH246215   6.482   0.446   4.855 -0.1837  0.2459 -0.2263
 8267TIP3    H146216   6.423   0.509   4.814  1.5550  1.9386 -0.1788
 8267TIP3    H246217   6.498   0.381   4.786 -3.7762 -1.4546  0.4424
 8268TIP3   OH246218   1.605   0.418   4.493  0.2975  0.1368  0.7681
 8268TIP3    H146219   1.602   0.499   4.443 -0.4656 -0.1488  0.3423
 8268TIP3    H246220   1.532   0.366   4.460  1.0107 -0.8888  0.7655
 8269TIP3   OH246221   0.755   0.556  16.947  0.1585  0.0413 -0.0061
 8269TIP3    H146222   0.690   0.595  17.006 -0.6655 -0.3199 -0.6604
 8269TIP3    H246223   0.821   0.518  17.006  0.9353  2.3001  0.6401
 8270TIP3   OH246224   1.507   4.978   2.750 -0.1530  0.7613 -0.3703
 8270TIP3    H146225   1.449   5.004   2.822  0.9613  1.5323  0.2696
 8270TIP3    H246226   1.448   4.955   2.678 -1.2590  0.9083  0.4844
 8271TIP3   OH246227   3.046   5.356  16.385  0.4226 -0.6292  0.2078
 8271TIP3    H146228   2.979   5.294  16.357 -0.1519  0.5603 -1.0394
 8271TIP3    H246229   3.122   5.301  16.404 -0.3757 -1.8111  0.0302
 8272TIP3   OH246230   5.263   5.253   2.567  0.1428  0.1243  0.4888
 8272TIP3    H146231   5.290   5.161   2.573 -2.0492 -0.4452  2.3647
 8272TIP3    H246232   5.196   5.254   2.499 -0.6555  0.0831  1.2539
 8273TIP3   OH246233   5.612   5.919   2.762 -0.6120 -0.1027  0.0750
 8273TIP3    H146234   5.592   5.862   2.836 -0.3298  1.8363  1.6991
 8273TIP3    H246235   5.703   5.899   2.741 -0.6975 -0.6839  0.2365
 8274TIP3   OH246236   6.409   6.622   3.766 -0.3871 -0.0485 -0.3082
 8274TIP3    H146237   6.460   6.637   3.686 -0.4412  1.1955 -0.1190
 8274TIP3    H246238   6.463   6.563   3.818  0.6463  0.8587 -0.3310
 8275TIP3   OH246239   0.085   4.495   1.456 -0.2507  0.7138 -0.0447
 8275TIP3    H146240   0.148   4.485   1.385 -0.4673  2.0518 -0.4371
 8275TIP3    H246241   0.000   4.497   1.413 -0.4252  0.9854  0.3102
 8276TIP3   OH246242   3.721   3.110   6.823 -0.1236 -0.1795  0.0111
 8276TIP3    H146243   3.770   3.028   6.832 -0.4878 -0.5859 -1.5505
 8276TIP3    H246244   3.782   3.170   6.780 -0.5396 -0.2949 -0.7629
 8277TIP3   OH246245   4.408   2.029   0.494  0.0029  0.0612 -0.3669
 8277TIP3    H146246   4.468   2.057   0.425 -0.7960 -0.1991 -1.1701
 8277TIP3    H246247   4.389   2.108   0.544  3.7602 -0.4348  2.0772
 8278TIP3   OH246248   6.601   2.410   5.418  0.2040 -0.1308 -0.4545
 8278TIP3    H146249   6.611   2.471   5.345 -0.9689  1.0717  0.3793
 8278TIP3    H246250   6.509   2.386   5.417  0.4046 -0.9212 -0.0003
 8279TIP3   OH246251   4.308   1.822  11.833 -0.1000  0.1550  0.8514
 8279TIP3    H146252   4.353   1.744  11.864  1.0841  0.3858 -0.2729
 8279TIP3    H246253   4.292   1.874  11.912 -0.3067 -0.9042  1.5118
 8280TIP3   OH246254   4.835   6.168   4.369  0.3035 -0.2117 -0.3001
 8280TIP3    H146255   4.872   6.248   4.330 -0.8065  0.5135  0.1036
 8280TIP3    H246256   4.805   6.195   4.455 -1.4218 -0.6973 -0.7213
 8281TIP3   OH246257   5.366   6.093  10.788  0.4398  0.0558  0.1065
 8281TIP3    H146258   5.387   6.070  10.878  0.3199  0.2652  0.1878
 8281TIP3    H246259   5.274   6.119  10.790  0.8877  1.7358  0.2580
 8282TIP3   OH246260   4.561   1.878   3.530 -0.4191 -0.4707  0.3955
 8282TIP3    H146261   4.644   1.925   3.531 -0.4227 -0.4141 -0.8567
 8282TIP3    H246262   4.564   1.823   3.608  0.2588  0.4501  1.0259
 8283TIP3   OH246263   4.145   2.098   1.444 -0.0549  0.3186 -0.2711
 8283TIP3    H146264   4.091   2.035   1.396  0.7756 -0.1096 -0.6369
 8283TIP3    H246265   4.210   2.127   1.380 -0.3321  1.4379 -0.0653
 8284TIP3   OH246266   4.316   5.685  16.710  0.3047 -0.4971  0.7572
 8284TIP3    H146267   4.243   5.743  16.729 -0.7107 -1.9768  1.4799
 8284TIP3    H246268   4.337   5.703  16.618 -2.4285 -1.5823 -0.1350
 8285TIP3   OH246269   6.095   2.336  12.228 -0.3184  0.4640  0.3364
 8285TIP3    H146270   6.067   2.375  12.145 -0.4007 -0.9994 -0.3277
 8285TIP3    H246271   6.018   2.289  12.260  0.3207 -0.6637  0.2363
 8286TIP3   OH246272   5.681   2.642   3.375 -0.5596 -0.4540  0.2412
 8286TIP3    H146273   5.672   2.551   3.344 -1.8290 -0.8217  1.6559
 8286TIP3    H246274   5.764   2.642   3.423 -0.2893 -0.7189 -0.2163
 8287TIP3   OH246275   3.808   4.751  13.185 -0.3038 -0.1241  0.5109
 8287TIP3    H146276   3.842   4.678  13.237 -0.4887  0.0873  0.9290
 8287TIP3    H246277   3.800   4.716  13.097 -0.7191 -0.7176  0.7810
 8288TIP3   OH246278   5.939   0.603   0.302  0.4002  0.2223 -0.0087
 8288TIP3    H146279   5.940   0.543   0.377  2.1433 -1.1242 -1.0554
 8288TIP3    H246280   5.998   0.674   0.327 -0.2536  0.5961  0.5041
 8289TIP3   OH246281   0.442   4.547   0.381 -0.0796  0.3746 -0.2381
 8289TIP3    H146282   0.421   4.467   0.428 -1.3416  0.2686 -0.9412
 8289TIP3    H246283   0.356   4.586   0.362  0.4139  0.5685 -2.1512
 8290TIP3   OH246284   1.011   6.241  14.774 -0.1089 -0.1809  0.0473
 8290TIP3    H146285   1.008   6.204  14.686 -0.9277  2.4428 -1.0975
 8290TIP3    H246286   0.953   6.185  14.826 -1.0372 -0.7250 -1.5324
 8291TIP3   OH246287   4.229   3.887  11.687  0.5184 -0.2100  0.5693
 8291TIP3    H146288   4.202   3.887  11.595  1.6575 -0.0166  0.2282
 8291TIP3    H246289   4.203   3.974  11.719 -1.1680 -0.7935  0.8286
 8292TIP3   OH246290   3.566   2.507  16.505 -0.5683  0.0549 -0.0919
 8292TIP3    H146291   3.633   2.447  16.472 -0.9705 -0.8425  0.7034
 8292TIP3    H246292   3.518   2.535  16.428  0.3303  0.2290 -0.5945
 8293TIP3   OH246293   3.991   5.680   1.763  0.0191  0.2743  0.2576
 8293TIP3    H146294   3.981   5.771   1.735  1.9688  0.5961  0.5324
 8293TIP3    H246295   4.036   5.637   1.690 -0.8429 -0.4617  0.1522
 8294TIP3   OH246296   4.810   5.848  15.278 -0.2134  0.5955  0.0128
 8294TIP3    H146297   4.872   5.812  15.341  0.4555  0.9206 -0.4609
 8294TIP3    H246298   4.813   5.789  15.203 -2.8701 -1.2287  1.2605
 8295TIP3   OH246299   3.900   0.223   3.946  0.4608  0.1762  0.0941
 8295TIP3    H146300   3.978   0.171   3.926  0.3962 -0.4520  1.4004
 8295TIP3    H246301   3.862   0.180   4.023 -1.2351  0.4191 -0.5941
 8296TIP3   OH246302   3.858   3.517  12.028  0.1194 -0.0172  0.1824
 8296TIP3    H146303   3.794   3.587  12.014 -1.4135 -1.5095 -0.3961
 8296TIP3    H246304   3.842   3.488  12.118  2.1837  1.7543  1.1808
 8297TIP3   OH246305   5.271   5.835  14.971 -0.3365 -0.3172 -0.0559
 8297TIP3    H146306   5.238   5.750  14.943 -0.7106 -0.4491  0.7662
 8297TIP3    H246307   5.358   5.841  14.934  0.4326 -1.8615  1.4221
 8298TIP3   OH246308   5.154   3.791  13.429  0.3830 -0.0217 -0.3019
 8298TIP3    H146309   5.135   3.745  13.347  0.1655 -1.4223  0.5169
 8298TIP3    H246310   5.235   3.751  13.460 -0.3904 -0.6516  0.9705
 8299TIP3   OH246311   1.594   1.627   0.635 -0.4491 -0.3501  0.3618
 8299TIP3    H146312   1.613   1.533   0.639 -0.0336 -0.3063 -0.4889
 8299TIP3    H246313   1.661   1.663   0.578  0.0285  0.6428  1.5230
 8300TIP3   OH246314   2.980   4.896  14.230  0.2654  0.0915 -1.0316
 8300TIP3    H146315   3.025   4.924  14.310 -0.7104 -0.7631 -0.1719
 8300TIP3    H246316   2.911   4.961  14.217  0.6341  0.4172 -1.3722
 8301TIP3   OH246317   5.995   4.555   5.250 -0.1000  0.0042  0.1157
 8301TIP3    H146318   5.937   4.571   5.325 -0.6150  0.0746 -0.2960
 8301TIP3    H246319   6.076   4.524   5.290 -1.5537 -3.5434  0.5386
 8302TIP3   OH246320   1.789   0.737   0.772 -0.6476  0.5093  0.6020
 8302TIP3    H146321   1.736   0.726   0.692 -1.2058 -2.5060  1.3022
 8302TIP3    H246322   1.877   0.712   0.745 -1.2830 -2.8654  1.4110
 8303TIP3   OH246323   4.369   4.113  13.978 -0.0624 -0.1260  0.3154
 8303TIP3    H146324   4.291   4.070  13.942  1.8888 -1.5785 -2.2822
 8303TIP3    H246325   4.392   4.178  13.913  1.1508  0.0360  0.9029
 8304TIP3   OH246326   4.503   3.296   3.878  0.1544 -0.7318  0.2611
 8304TIP3    H146327   4.470   3.228   3.937  0.7440  1.2062  2.9108
 8304TIP3    H246328   4.426   3.351   3.861  0.2248 -0.6886  0.0890
 8305TIP3   OH246329   4.172   4.157   3.842 -0.0508  0.5423 -0.2018
 8305TIP3    H146330   4.222   4.235   3.863 -0.1177  0.3070  0.8851
 8305TIP3    H246331   4.223   4.112   3.775  0.1564  1.3372 -0.5796
 8306TIP3   OH246332   3.777   5.983  15.491 -0.4682 -0.1659 -0.0344
 8306TIP3    H146333   3.786   5.990  15.586 -1.3389 -0.3276  0.0689
 8306TIP3    H246334   3.816   6.063  15.457  0.5356 -0.4533  0.4127
 8307TIP3   OH246335   1.580   6.016  12.027 -0.3718 -0.3291 -0.3700
 8307TIP3    H146336   1.528   5.938  12.008 -0.8722 -0.2515  0.6301
 8307TIP3    H246337   1.522   6.070  12.081 -0.0351  0.7410 -1.0618
 8308TIP3   OH246338   5.847   4.305  11.913  0.0345 -0.1998  0.4975
 8308TIP3    H146339   5.938   4.278  11.913 -0.3530 -1.5273  1.1440
 8308TIP3    H246340   5.841   4.369  11.985  0.9367  1.6554 -1.0217
 8309TIP3   OH246341   6.567   3.844   1.558  0.1419 -0.1152  0.4705
 8309TIP3    H146342   6.556   3.870   1.650 -0.3282  0.7778  0.1760
 8309TIP3    H246343   6.613   3.918   1.518 -0.1054 -0.2783 -0.1217
 8310TIP3   OH246344   2.649   2.680  15.529 -0.2449  0.5584 -0.2045
 8310TIP3    H146345   2.601   2.621  15.587 -1.1936 -0.9170 -2.4354
 8310TIP3    H246346   2.680   2.625  15.458  1.5784  2.1933 -0.7221
 8311TIP3   OH246347   3.998   3.240   2.153 -0.2207  0.8545  0.1846
 8311TIP3    H146348   3.985   3.291   2.233  1.1841 -0.2903  1.1643
 8311TIP3    H246349   3.935   3.168   2.160  3.9039 -2.7208  3.2698
 8312TIP3   OH246350   5.895   5.685   0.404 -0.2237 -0.5530 -0.2565
 8312TIP3    H146351   5.940   5.609   0.366 -0.2613  0.0802 -1.5826
 8312TIP3    H246352   5.805   5.677   0.375 -0.2249  0.0061 -0.4175
 8313TIP3   OH246353   1.365   1.662   6.599  0.2782 -0.2592 -0.1352
 8313TIP3    H146354   1.439   1.712   6.565  0.0291  0.8612  0.9375
 8313TIP3    H246355   1.297   1.727   6.616  0.2692 -0.8260  2.1553
 8314TIP3   OH246356   0.660   3.305  14.553  0.0126  0.4475  0.1953
 8314TIP3    H146357   0.670   3.332  14.462  0.3292 -0.0797  0.0720
 8314TIP3    H246358   0.689   3.381  14.604  1.2236  0.2279 -0.1538
 8315TIP3   OH246359   0.822   2.516   5.959 -0.3185 -0.2933 -0.4939
 8315TIP3    H146360   0.727   2.505   5.962 -0.2278 -1.2621 -0.8912
 8315TIP3    H246361   0.857   2.432   5.990  0.4050 -0.4389 -1.6525
 8316TIP3   OH246362   6.709   2.803  13.278  0.1365  0.0819 -0.2464
 8316TIP3    H146363   6.745   2.770  13.360  0.6653 -0.3693 -0.6639
 8316TIP3    H246364   6.757   2.758  13.210  0.4898  1.3002 -0.8197
 8317TIP3   OH246365   4.864   1.003  16.976 -0.2159  0.8174  0.3775
 8317TIP3    H146366   4.817   1.009  16.892 -1.7081  1.6714  1.2534
 8317TIP3    H246367   4.926   0.931  16.963 -3.0812 -1.6636 -0.1622
 8318TIP3   OH246368   3.945   4.331  12.863  0.1181  0.2839  0.5373
 8318TIP3    H146369   3.882   4.264  12.838  0.1126  0.6427 -0.4465
 8318TIP3    H246370   3.985   4.358  12.780 -0.0738  1.6793  0.8811
 8319TIP3   OH246371   6.752   2.476   3.856  0.4350 -0.2622  0.2714
 8319TIP3    H146372   6.694   2.426   3.799  1.4985 -0.4999 -0.6341
 8319TIP3    H246373   6.838   2.470   3.814  0.8868  1.0469  0.9587
 8320TIP3   OH246374   6.659   4.200  13.748 -0.4826 -0.4232 -0.1468
 8320TIP3    H146375   6.738   4.150  13.726 -1.3003 -1.8551  0.0796
 8320TIP3    H246376   6.660   4.275  13.689  0.5978 -0.9025 -0.7424
 8321TIP3   OH246377   2.661   0.281   1.616 -0.2829  0.2067  0.5385
 8321TIP3    H146378   2.631   0.283   1.525  0.5696  1.4230  0.2777
 8321TIP3    H246379   2.747   0.239   1.612  0.6679  2.0983  0.4931
 8322TIP3   OH246380   1.051   4.024   3.366 -0.1325  1.1303  0.0440
 8322TIP3    H146381   1.016   4.069   3.289  1.5192  1.4305 -0.5611
 8322TIP3    H246382   1.129   4.074   3.390  0.4066 -0.0338  0.7857
 8323TIP3   OH246383   4.300   1.120   4.238  0.2185  0.9308  0.1536
 8323TIP3    H146384   4.352   1.091   4.312 -0.4892  3.0958  1.5449
 8323TIP3    H246385   4.210   1.121   4.270 -0.7530 -2.5396 -2.1523
 8324TIP3   OH246386   5.710   0.546  16.746 -0.3920 -0.1843  0.0337
 8324TIP3    H146387   5.761   0.625  16.730 -0.0300  0.2724  3.2047
 8324TIP3    H246388   5.764   0.475  16.711 -0.2774  0.8418 -1.9251
 8325TIP3   OH246389   1.234   4.361   1.923  0.0825 -0.5812 -0.2511
 8325TIP3    H146390   1.222   4.302   1.848 -1.1898 -1.1971  0.4202
 8325TIP3    H246391   1.171   4.431   1.908 -0.0907 -0.6448  0.1642
 8326TIP3   OH246392   3.697   1.963   2.325 -0.3405 -0.0428 -0.3491
 8326TIP3    H146393   3.709   1.872   2.353 -1.8510 -0.0417  0.3196
 8326TIP3    H246394   3.751   2.014   2.386 -0.6966 -0.3636  0.2381
 8327TIP3   OH246395   3.873   5.459  15.381 -0.1621  0.0137  0.3673
 8327TIP3    H146396   3.854   5.404  15.305 -1.4939 -2.8752  2.7200
 8327TIP3    H246397   3.791   5.506  15.398 -0.6484 -1.2342  1.5147
 8328TIP3   OH246398   1.634   5.027   0.366  0.5818  0.5739 -0.0184
 8328TIP3    H146399   1.552   5.034   0.414  0.0074 -0.3820 -0.8369
 8328TIP3    H246400   1.657   5.118   0.344  0.2044  0.9131  0.9637
 8329TIP3   OH246401   2.701   1.093   2.369 -0.5496 -0.0689  0.3551
 8329TIP3    H146402   2.638   1.054   2.309  1.5954 -3.6957  0.3566
 8329TIP3    H246403   2.673   1.064   2.456  0.4751 -0.7369  0.4588
 8330TIP3   OH246404   3.571   2.754   3.230  0.3234 -0.5202  0.1293
 8330TIP3    H146405   3.554   2.668   3.191  0.4533 -0.2084 -0.6269
 8330TIP3    H246406   3.665   2.765   3.224  0.5137 -1.0829  1.8532
 8331TIP3   OH246407   0.784   1.907  11.567  0.1646 -0.2385 -0.0417
 8331TIP3    H146408   0.722   1.951  11.509  0.0996 -0.1951  0.0604
 8331TIP3    H246409   0.870   1.930  11.533  0.1415  0.3620  0.2975
 8332TIP3   OH246410   3.696   4.358  13.136  0.5185  0.5982  0.2720
 8332TIP3    H146411   3.786   4.329  13.117  0.7400  1.6849 -0.3951
 8332TIP3    H246412   3.705   4.415  13.212  0.5481  1.4788 -0.3723
 8333TIP3   OH246413   2.601   1.766  13.078 -0.1624  0.0986 -0.1019
 8333TIP3    H146414   2.608   1.834  13.010  0.6270  0.9841  0.8523
 8333TIP3    H246415   2.516   1.726  13.062 -0.6629  1.3487 -0.6567
 8334TIP3   OH246416   1.047   5.883  15.352  0.3681  0.0108  0.5192
 8334TIP3    H146417   1.104   5.920  15.285  0.2066  0.8762  0.8596
 8334TIP3    H246418   1.107   5.847  15.417  0.5239 -0.3971  0.1550
 8335TIP3   OH246419   6.210   5.236  17.221 -0.6599 -0.1845 -0.4796
 8335TIP3    H146420   6.267   5.201  17.290 -0.9987 -0.0949 -0.1509
 8335TIP3    H246421   6.190   5.325  17.249 -2.0418 -0.6598  0.0930
 8336TIP3   OH246422   6.482   3.318   4.477  0.1382 -0.0335 -0.1571
 8336TIP3    H146423   6.569   3.281   4.463  0.4697  0.7125 -0.1232
 8336TIP3    H246424   6.440   3.315   4.391  1.0025  1.6052 -0.6645
 8337TIP3   OH246425   2.707   6.698   5.174  0.8797  0.5124 -0.4620
 8337TIP3    H146426   2.655   6.724   5.099 -1.0859 -0.2451  0.6034
 8337TIP3    H246427   2.735   6.608   5.155 -0.3718 -0.0037  0.0939
 8338TIP3   OH246428   5.026   0.135   2.297  0.0954 -0.8889  0.6589
 8338TIP3    H146429   5.042   0.041   2.300  1.2226 -0.7118  0.4086
 8338TIP3    H246430   5.107   0.174   2.330 -0.5359 -0.0183  1.2067
 8339TIP3   OH246431   3.849   5.724  12.603 -0.3847  0.1636  0.3551
 8339TIP3    H146432   3.783   5.675  12.556 -0.7146  0.4548  0.5141
 8339TIP3    H246433   3.857   5.806  12.555 -0.5700  0.3737  0.6859
 8340TIP3   OH246434   1.838   1.868   0.905 -0.1883  0.2284  0.2486
 8340TIP3    H146435   1.831   1.777   0.935  2.3033  0.1806  0.7806
 8340TIP3    H246436   1.908   1.866   0.839  2.1340  2.3037  2.5507
 8341TIP3   OH246437   2.475   6.318  16.757 -0.1804  0.2485 -0.0139
 8341TIP3    H146438   2.545   6.340  16.818 -1.3440  0.8530  1.1185
 8341TIP3    H246439   2.394   6.335  16.805 -1.1352  1.5090 -1.9841
 8342TIP3   OH246440   1.360   3.275  15.937  0.2126 -0.3960 -0.1188
 8342TIP3    H146441   1.437   3.237  15.894 -0.4163 -2.2190  0.2935
 8342TIP3    H246442   1.286   3.226  15.900 -0.5698 -0.0464  0.9715
 8343TIP3   OH246443   4.687   5.248   4.393 -0.8337  0.1902  0.2341
 8343TIP3    H146444   4.706   5.261   4.300 -1.1464  0.1866  0.1682
 8343TIP3    H246445   4.594   5.226   4.395 -0.5541 -0.9815  0.4410
 8344TIP3   OH246446   3.447   3.089   1.003  0.2683 -0.0714  0.0410
 8344TIP3    H146447   3.493   3.068   1.084  1.9517 -1.2175 -1.1612
 8344TIP3    H246448   3.394   3.011   0.985 -0.1444  0.2017  0.0653
 8345TIP3   OH246449   1.405   5.848  14.533  0.0542  0.4081 -0.1177
 8345TIP3    H146450   1.395   5.802  14.449 -3.0472 -1.2119  1.0572
 8345TIP3    H246451   1.432   5.780  14.595 -0.0969  1.0880  0.7053
 8346TIP3   OH246452   5.319   4.363  13.564  0.1481 -0.4983  0.1183
 8346TIP3    H146453   5.272   4.281  13.580 -0.1474 -0.3342  0.0844
 8346TIP3    H246454   5.288   4.393  13.479  0.4712 -0.4962 -0.0029
 8347TIP3   OH246455   4.286   3.668  14.466 -0.9544 -0.5185  0.4477
 8347TIP3    H146456   4.298   3.682  14.560 -2.6638  3.3150  0.2118
 8347TIP3    H246457   4.375   3.672  14.430 -0.6056  2.2499  1.4797
 8348TIP3   OH246458   4.860   3.262  10.971 -0.4612 -0.8022 -0.5992
 8348TIP3    H146459   4.936   3.233  11.021 -0.8512 -1.5744 -0.4430
 8348TIP3    H246460   4.867   3.357  10.969  0.1818 -0.8370 -0.0732
 8349TIP3   OH246461   3.047   2.701   4.771  0.6015 -0.0545 -0.5378
 8349TIP3    H146462   2.966   2.742   4.801  0.0624 -0.3530 -1.5390
 8349TIP3    H246463   3.061   2.738   4.683  0.7849 -1.0677 -0.9374
 8350TIP3   OH246464   1.315   3.129  12.429 -0.1215 -0.3364  0.0408
 8350TIP3    H146465   1.360   3.080  12.498 -0.4136 -0.2637  0.2876
 8350TIP3    H246466   1.329   3.078  12.349  2.0126  0.6807 -0.2495
 8351TIP3   OH246467   2.881   3.457   1.987 -0.1827 -0.0108  0.4781
 8351TIP3    H146468   2.924   3.533   2.026  1.9045 -1.2892  0.7548
 8351TIP3    H246469   2.939   3.432   1.914  0.0465 -2.3359  1.4340
 8352TIP3   OH246470   1.830   2.209  15.048 -0.1987  0.3635 -0.4245
 8352TIP3    H146471   1.899   2.163  15.095 -0.6931 -1.2750 -1.2641
 8352TIP3    H246472   1.749   2.172  15.082 -0.5720 -0.4173 -2.0734
 8353TIP3   OH246473   6.111   5.174  16.079 -0.0235  0.4122 -0.2979
 8353TIP3    H146474   6.201   5.151  16.102 -0.0788 -0.7188 -1.1404
 8353TIP3    H246475   6.058   5.110  16.128 -0.2180 -0.8588 -2.1342
 8354TIP3   OH246476   5.217   5.967  17.208 -0.4301 -1.3199 -0.0119
 8354TIP3    H146477   5.152   6.038  17.209  0.7902 -0.1817 -0.3115
 8354TIP3    H246478   5.241   5.958  17.116  0.6629 -0.9653  0.2315
 8355TIP3   OH246479   2.393   6.691   5.873  0.1469 -0.2920  0.3157
 8355TIP3    H146480   2.365   6.736   5.793 -0.6577 -0.1014  0.6983
 8355TIP3    H246481   2.488   6.691   5.868  0.1688  1.5890  0.3875
 8356TIP3   OH246482   5.339   4.526  14.831 -0.0705  0.4044 -0.1313
 8356TIP3    H146483   5.393   4.531  14.752 -0.5869  0.7498 -0.4652
 8356TIP3    H246484   5.331   4.432  14.849  2.4455  0.3884  1.1790
 8357TIP3   OH246485   4.959   3.649  16.937 -0.0715  0.1772 -0.3167
 8357TIP3    H146486   4.935   3.633  16.846 -1.0144  1.3125 -0.2852
 8357TIP3    H246487   4.908   3.586  16.988  0.3392 -0.3516 -0.5534
 8358TIP3   OH246488   0.228   5.164   0.556  0.2561 -0.1296 -0.3059
 8358TIP3    H146489   0.254   5.193   0.644  1.4836 -0.5742 -0.5163
 8358TIP3    H246490   0.246   5.070   0.555 -1.3568 -0.4583 -0.4774
 8359TIP3   OH246491   2.537   0.763   3.278 -0.0362 -0.2938 -0.0003
 8359TIP3    H146492   2.548   0.668   3.277  0.1602 -0.2556 -1.8237
 8359TIP3    H246493   2.622   0.798   3.250 -1.1085  0.3244 -2.5748
 8360TIP3   OH246494   5.275   5.538   4.720 -0.1277 -0.4117  0.1205
 8360TIP3    H146495   5.363   5.539   4.682 -0.1298  0.1444  0.1295
 8360TIP3    H246496   5.224   5.484   4.660 -0.2391  0.8259 -0.9145
 8361TIP3   OH246497   5.520   3.976   6.746 -0.2469  0.2383  0.5631
 8361TIP3    H146498   5.480   3.981   6.833  0.4734  0.7034  0.8670
 8361TIP3    H246499   5.446   3.986   6.685 -0.5772  1.1737  1.1174
 8362TIP3   OH246500   1.317   1.452   3.552  0.2736  0.0015 -0.4109
 8362TIP3    H146501   1.299   1.546   3.562 -0.7101  0.0769 -2.5685
 8362TIP3    H246502   1.253   1.422   3.488  1.8938 -1.7269 -1.2725
 8363TIP3   OH246503   0.780   6.671  14.625 -0.1711 -0.1148  0.7692
 8363TIP3    H146504   0.699   6.721  14.633 -0.2153 -0.1000  0.2004
 8363TIP3    H246505   0.847   6.737  14.607  0.1124 -0.0268  2.0915
 8364TIP3   OH246506   0.076   5.987   2.122  0.5254 -1.2097  0.2887
 8364TIP3    H146507   0.006   6.044   2.151  1.6527 -0.5982  1.8534
 8364TIP3    H246508   0.054   5.967   2.031 -1.0378 -0.0776  0.4005
 8365TIP3   OH246509   2.907   1.117  14.913  0.3916 -0.5895 -0.5450
 8365TIP3    H146510   2.976   1.093  14.975 -0.6756 -0.1689  0.8342
 8365TIP3    H246511   2.877   1.203  14.943  1.1812  0.5129 -2.8123
 8366TIP3   OH246512   5.972   3.589   3.104  0.1295 -0.5673 -0.5459
 8366TIP3    H146513   5.947   3.553   3.189  0.3480 -1.6022 -0.9140
 8366TIP3    H246514   6.052   3.638   3.122  2.2343 -3.7527 -0.7496
 8367TIP3   OH246515   6.741   0.964   2.072  0.3864 -0.0516  0.7586
 8367TIP3    H146516   6.836   0.968   2.073  0.4747 -2.0580  1.8577
 8367TIP3    H246517   6.714   1.042   2.122  1.4170  0.6201  0.2900
 8368TIP3   OH246518   3.243   2.570   2.332  0.2872  0.2200  0.2697
 8368TIP3    H146519   3.232   2.479   2.306  1.2282  0.3451 -0.6217
 8368TIP3    H246520   3.155   2.606   2.333 -0.2554 -1.0671  2.0502
 8369TIP3   OH246521   3.368   3.143   3.260  0.3331 -0.6708  0.2560
 8369TIP3    H146522   3.347   3.216   3.202 -0.7279 -0.7350  0.5633
 8369TIP3    H246523   3.464   3.146   3.267  0.2633  1.0131  0.6995
 8370TIP3   OH246524   6.527   2.571   4.721 -0.0574  0.1102 -0.1368
 8370TIP3    H146525   6.444   2.606   4.687  1.1055  1.9584 -1.1275
 8370TIP3    H246526   6.578   2.552   4.643  0.0686 -2.0588  0.4486
 8371TIP3   OH246527   1.313   6.095   3.393 -0.9353 -0.0159 -0.1136
 8371TIP3    H146528   1.348   6.154   3.460 -2.6718 -0.7405  1.4716
 8371TIP3    H246529   1.256   6.035   3.442 -0.6174 -1.8721 -1.9451
 8372TIP3   OH246530   4.587   5.247  12.254  0.8015 -0.2382 -0.3550
 8372TIP3    H146531   4.637   5.204  12.323  2.0734  0.8852 -0.5447
 8372TIP3    H246532   4.629   5.219  12.172 -0.2856 -1.0428 -0.6555
 8373TIP3   OH246533   2.110   4.134   1.383 -0.1711 -0.1591  0.5578
 8373TIP3    H146534   2.202   4.135   1.357 -0.2525 -1.6292  0.2050
 8373TIP3    H246535   2.108   4.179   1.467  0.5690  1.6786 -0.3763
 8374TIP3   OH246536   2.806   3.469   5.300  0.6510 -0.5529  0.7334
 8374TIP3    H146537   2.891   3.487   5.339  0.3801  0.8434  0.7106
 8374TIP3    H246538   2.776   3.554   5.268 -1.3349 -0.7560  1.9238
 8375TIP3   OH246539   6.643   4.379   3.938 -0.3553  0.1162 -0.2088
 8375TIP3    H146540   6.697   4.308   3.903  0.5599  0.5831  0.2574
 8375TIP3    H246541   6.694   4.458   3.924 -0.5276  0.4611  1.0265
 8376TIP3   OH246542   6.616   2.279  12.333  0.0975 -0.3672 -0.0737
 8376TIP3    H146543   6.595   2.190  12.305  1.1189 -0.3465 -0.9384
 8376TIP3    H246544   6.544   2.332  12.297  1.4718 -0.3098 -2.9039
 8377TIP3   OH246545   6.716   2.938   2.604 -0.3025  0.6105  0.0122
 8377TIP3    H146546   6.786   2.913   2.543 -0.0607 -0.1664  0.5995
 8377TIP3    H246547   6.749   2.912   2.690 -2.1619 -1.7008  0.0826
 8378TIP3   OH246548   4.272   4.290  12.139  0.1391  0.2943 -0.6575
 8378TIP3    H146549   4.354   4.266  12.181  0.3274  1.0772 -0.5541
 8378TIP3    H246550   4.206   4.231  12.176  0.5289  0.1382 -0.2177
 8379TIP3   OH246551   3.933   5.034  14.701 -0.5272 -0.2080 -1.1142
 8379TIP3    H146552   3.885   5.023  14.783  0.0392  0.6496 -0.6559
 8379TIP3    H246553   3.986   5.112  14.715  0.1810 -0.5210 -2.0102
 8380TIP3   OH246554   3.868   2.898  17.101 -0.1647  0.2410 -0.5872
 8380TIP3    H146555   3.955   2.902  17.061  0.0854 -0.3712 -0.1070
 8380TIP3    H246556   3.883   2.912  17.194 -0.6985  1.1590 -0.6287
 8381TIP3   OH246557   6.368   5.686  15.827  0.6323 -0.2037  0.2302
 8381TIP3    H146558   6.340   5.701  15.737 -1.9460 -0.0240  0.9923
 8381TIP3    H246559   6.338   5.764  15.874  1.1114 -0.7127  1.3897
 8382TIP3   OH246560   0.997   3.644   2.158 -0.2838  0.5025  0.2763
 8382TIP3    H146561   1.000   3.706   2.231 -0.4335  0.0991  0.6230
 8382TIP3    H246562   0.987   3.558   2.199 -0.7989  0.3148 -0.2304
 8383TIP3   OH246563   3.793   0.044   0.700  0.0801  0.2284 -0.0765
 8383TIP3    H146564   3.724  -0.004   0.655  0.2925  0.3593 -0.5452
 8383TIP3    H246565   3.749   0.090   0.771 -0.4797  1.1462 -1.0084
 8384TIP3   OH246566   1.120   2.135   2.864  0.0672 -0.2384  0.0914
 8384TIP3    H146567   1.190   2.129   2.799 -0.9637 -0.4409 -1.0130
 8384TIP3    H246568   1.100   2.044   2.887 -0.5428 -0.2207 -0.3648
 8385TIP3   OH246569   4.523   0.948   0.655  0.1863 -0.3710  0.1927
 8385TIP3    H146570   4.526   0.855   0.632 -2.3381  0.2313 -3.0387
 8385TIP3    H246571   4.581   0.990   0.592 -2.6262  0.7319 -1.7883
 8386TIP3   OH246572   0.130   1.674  15.363 -0.0545  0.1695  0.2662
 8386TIP3    H146573   0.067   1.617  15.406 -0.1561  0.7993  0.9502
 8386TIP3    H246574   0.077   1.726  15.302 -0.0265 -0.1150 -0.0076
 8387TIP3   OH246575   4.057   1.629  12.886 -0.0138  0.2000 -0.7900
 8387TIP3    H146576   4.123   1.670  12.830  1.0573 -0.5953 -0.1310
 8387TIP3    H246577   4.013   1.565  12.830  0.4522  0.0321 -0.9632
 8388TIP3   OH246578   2.772   3.023  12.490 -0.4474  0.1678  0.0741
 8388TIP3    H146579   2.728   2.993  12.569 -1.0097 -0.4861 -0.4751
 8388TIP3    H246580   2.702   3.058  12.435 -0.4705 -1.7791 -1.2244
 8389TIP3   OH246581   1.132   2.148   3.940 -0.7847  0.6667  0.1389
 8389TIP3    H146582   1.108   2.058   3.917  0.4879  0.6016 -1.0276
 8389TIP3    H246583   1.106   2.157   4.032  1.4634 -1.8072  1.1171
 8390TIP3   OH246584   4.888   1.536  14.446 -0.2342 -0.0161  0.0737
 8390TIP3    H146585   4.881   1.630  14.428  1.0680  0.3239  1.2877
 8390TIP3    H246586   4.968   1.509  14.401  0.0933 -0.2809  0.8167
 8391TIP3   OH246587   0.572   3.204   5.190 -0.3683  0.5933 -0.7585
 8391TIP3    H146588   0.598   3.168   5.105  1.1484  0.6041 -0.3046
 8391TIP3    H246589   0.603   3.141   5.254 -3.1957 -0.3812 -0.2748
 8392TIP3   OH246590   3.424   6.620   1.188  0.4969 -0.2710  0.2024
 8392TIP3    H146591   3.378   6.653   1.111  0.8118  1.8210  0.8690
 8392TIP3    H246592   3.427   6.695   1.248 -1.0960 -2.2568  2.9015
 8393TIP3   OH246593   0.506   3.807  13.980  0.1275 -0.6742  0.5377
 8393TIP3    H146594   0.426   3.777  13.938 -0.2490  1.3641 -0.3031
 8393TIP3    H246595   0.480   3.887  14.027  1.9108  0.8497 -0.9626
 8394TIP3   OH246596   5.313   3.769   3.686  0.2249 -0.2088 -0.6432
 8394TIP3    H146597   5.375   3.800   3.621 -0.0197  0.1504 -0.7069
 8394TIP3    H246598   5.322   3.830   3.759 -0.0045 -0.1941 -0.6263
 8395TIP3   OH246599   3.276   5.814  16.705  0.0691 -0.3770  0.4315
 8395TIP3    H146600   3.351   5.846  16.654 -1.0293  0.6126 -0.6136
 8395TIP3    H246601   3.275   5.720  16.688  0.6009 -0.2828 -0.1898
 8396TIP3   OH246602   0.095   3.511  16.276 -0.2012 -0.3621  0.1676
 8396TIP3    H146603   0.115   3.474  16.190  1.9704  1.1262  0.0086
 8396TIP3    H246604   0.172   3.492  16.329 -0.2322  1.4344  0.8870
 8397TIP3   OH246605   3.497   5.871   3.212 -0.5698  0.0863  0.3499
 8397TIP3    H146606   3.455   5.947   3.253 -2.5686 -0.7652 -0.0496
 8397TIP3    H246607   3.506   5.897   3.120 -1.7484 -0.3441  0.1027
 8398TIP3   OH246608   0.755   6.190  14.036  0.3323 -0.2506  0.0012
 8398TIP3    H146609   0.678   6.143  14.069 -0.2363  1.4374  1.1555
 8398TIP3    H246610   0.737   6.282  14.056  2.6319  0.1804  0.2113
 8399TIP3   OH246611   3.771   4.458   0.938  1.1166  0.2412 -0.6491
 8399TIP3    H146612   3.777   4.549   0.966 -1.6644  0.6587 -1.2430
 8399TIP3    H246613   3.746   4.410   1.017  1.9169  0.0869 -0.4865
 8400TIP3   OH246614   5.428   3.650   5.286 -0.4221 -0.9063  0.6177
 8400TIP3    H146615   5.377   3.598   5.224 -1.6137 -0.1661  0.9585
 8400TIP3    H246616   5.432   3.737   5.246  2.6064 -1.5046 -0.5500
 8401TIP3   OH246617   1.899   3.300  11.907 -0.4622 -0.8425  1.4385
 8401TIP3    H146618   1.812   3.335  11.886  1.0172  1.4945 -1.2058
 8401TIP3    H246619   1.901   3.213  11.867 -1.4159 -0.6869  1.0417
 8402TIP3   OH246620   3.468   5.524   3.058 -0.1945 -0.0731 -0.1214
 8402TIP3    H146621   3.438   5.544   3.147  1.8798  0.8201  0.4142
 8402TIP3    H246622   3.462   5.429   3.051 -1.6447 -0.0374  0.4858
 8403TIP3   OH246623   3.709   1.482  10.231  0.0649  0.0219  0.6176
 8403TIP3    H146624   3.702   1.543  10.305  0.8060 -0.3915  1.0385
 8403TIP3    H246625   3.728   1.538  10.156  1.6397  0.2562  1.1569
 8404TIP3   OH246626   4.028   1.658   0.608  0.4043 -0.1964  0.7338
 8404TIP3    H146627   4.086   1.654   0.532 -0.2115 -2.0516  0.3535
 8404TIP3    H246628   4.077   1.710   0.672  2.7706 -2.2532  0.6607
 8405TIP3   OH246629   3.107   0.814  13.815 -0.0072 -0.2144  0.6605
 8405TIP3    H146630   3.095   0.741  13.755 -0.6330  1.1687 -0.9245
 8405TIP3    H246631   3.202   0.818  13.828  0.1560 -0.4255 -0.3856
 8406TIP3   OH246632   4.270   4.974   0.627  0.1824  0.1438  0.0409
 8406TIP3    H146633   4.347   4.949   0.677  0.5736  2.0222  0.4124
 8406TIP3    H246634   4.297   4.966   0.535  0.9343  1.1288  0.1701
 8407TIP3   OH246635   4.606   1.937   3.943  0.0122 -0.1667 -0.7197
 8407TIP3    H146636   4.612   2.032   3.935 -0.1214  0.0109  1.1346
 8407TIP3    H246637   4.658   1.904   3.870 -1.3910  1.3164 -2.4332
 8408TIP3   OH246638   2.070   3.053   3.301  0.6106  0.1146  0.3527
 8408TIP3    H146639   2.014   3.016   3.233  0.7228 -0.5272  0.6126
 8408TIP3    H246640   2.027   3.031   3.383  0.5996  0.6876  0.5040
 8409TIP3   OH246641   2.942   5.502  12.455 -0.5402  0.0630  0.0621
 8409TIP3    H146642   2.885   5.579  12.454 -0.1157  0.3747 -0.9433
 8409TIP3    H246643   3.012   5.523  12.393  0.7926 -0.2291  1.4514
 8410TIP3   OH246644   2.083   1.642  13.943  0.5400  0.4127 -0.1300
 8410TIP3    H146645   1.990   1.644  13.920  0.7104 -1.1661 -1.1088
 8410TIP3    H246646   2.119   1.721  13.903 -0.0208 -0.0191 -1.5480
 8411TIP3   OH246647   3.545   1.957   2.097 -0.2611  0.1003  0.4528
 8411TIP3    H146648   3.591   1.895   2.041 -0.7124 -0.1087  0.3090
 8411TIP3    H246649   3.594   1.957   2.179 -0.3695 -0.5934  0.5197
 8412TIP3   OH246650   2.289   5.633  11.303 -0.1369  0.0423  0.1237
 8412TIP3    H146651   2.320   5.581  11.376 -1.3060 -1.8280 -0.6615
 8412TIP3    H246652   2.227   5.695  11.342 -0.5181 -0.7353  0.7666
 8413TIP3   OH246653   0.393   3.761   0.787  0.4879 -0.7260 -0.7654
 8413TIP3    H146654   0.469   3.780   0.842  0.4949 -0.0614 -1.0087
 8413TIP3    H246655   0.321   3.809   0.829  0.6612  0.4698 -1.8100
 8414TIP3   OH246656   2.602   6.656  16.713 -0.6276 -0.2505 -0.0016
 8414TIP3    H146657   2.561   6.738  16.686  0.0925 -0.1412 -0.7890
 8414TIP3    H246658   2.544   6.588  16.678 -2.9407 -0.1340  3.2816
 8415TIP3   OH246659   3.591   3.945  12.891 -0.3553  0.0701 -0.0994
 8415TIP3    H146660   3.640   3.898  12.958 -1.4585 -2.1063 -0.7405
 8415TIP3    H246661   3.538   4.008  12.940  1.2837  0.7987  0.7747
 8416TIP3   OH246662   6.435   3.073  12.861 -0.1868  0.8069 -0.0266
 8416TIP3    H146663   6.442   2.978  12.850  1.8329  0.7931  1.1408
 8416TIP3    H246664   6.346   3.094  12.832 -0.6602 -1.4340 -0.2920
 8417TIP3   OH246665   2.603   6.761   4.942 -0.4735  0.2735 -0.4556
 8417TIP3    H146666   2.642   6.832   4.892 -1.7466  0.0451 -1.8097
 8417TIP3    H246667   2.513   6.788   4.958 -0.6057 -0.4718  0.1288
 8418TIP3   OH246668   0.235   6.200  13.415  0.0691  0.1916  0.2922
 8418TIP3    H146669   0.302   6.214  13.482 -0.1502 -0.5240  0.6652
 8418TIP3    H246670   0.158   6.245  13.449  0.5437  1.5895 -0.4514
 8419TIP3   OH246671   5.043   4.372  12.563  0.1973  0.1172 -0.6416
 8419TIP3    H146672   5.114   4.410  12.511  1.6250 -0.6912  0.6595
 8419TIP3    H246673   5.051   4.415  12.649  0.2815 -1.2933  0.0713
 8420TIP3   OH246674   6.489   5.916   4.477 -0.5364  0.0774  0.2510
 8420TIP3    H146675   6.523   5.864   4.404  1.8774  0.1083  1.3042
 8420TIP3    H246676   6.429   5.857   4.522  0.5199 -1.0786  0.1836
 8421TIP3   OH246677   2.911   5.807  15.160 -0.0139  0.0232 -0.4090
 8421TIP3    H146678   2.870   5.802  15.246  0.6094  0.7436 -0.0669
 8421TIP3    H246679   2.935   5.900  15.150  0.3546 -0.1460 -1.1548
 8422TIP3   OH246680   2.041   3.538  15.326  0.2249  0.9976 -0.1521
 8422TIP3    H146681   2.024   3.632  15.325  1.4282  1.2174 -1.2470
 8422TIP3    H246682   1.990   3.502  15.254 -1.1707  0.6207  0.9984
 8423TIP3   OH246683   5.528   0.716  11.935 -0.0361  0.5870  0.9232
 8423TIP3    H146684   5.438   0.746  11.947  0.3599  2.3600 -0.2791
 8423TIP3    H246685   5.575   0.749  12.011 -0.4088 -0.4316  1.6073
 8424TIP3   OH246686   3.006   4.268  10.334 -0.1163 -0.5906  0.0544
 8424TIP3    H146687   2.952   4.260  10.413  1.0905  0.2507  1.0061
 8424TIP3    H246688   2.979   4.196  10.278  0.2334 -2.3100  2.0083
 8425TIP3   OH246689   1.589   6.102  13.038 -0.2541  0.3982 -0.0033
 8425TIP3    H146690   1.494   6.112  13.035 -0.1819  1.6397  1.3277
 8425TIP3    H246691   1.614   6.079  12.949 -1.7922  0.1870 -0.3834
 8426TIP3   OH246692   5.538   3.817  12.211 -0.2063  0.1500 -0.9175
 8426TIP3    H146693   5.533   3.859  12.297 -0.1544 -1.1340 -0.2793
 8426TIP3    H246694   5.624   3.840  12.178  0.0202  0.1284 -0.3512
 8427TIP3   OH246695   4.090   3.401  16.305 -0.0165 -0.9507  0.2178
 8427TIP3    H146696   4.148   3.326  16.318  1.5674 -0.0946 -1.6741
 8427TIP3    H246697   4.093   3.447  16.389  0.2989 -2.1067  0.8572
 8428TIP3   OH246698   6.768   3.158   6.149  0.1251  0.5613 -0.1938
 8428TIP3    H146699   6.747   3.183   6.059  0.1862 -0.3045 -0.4513
 8428TIP3    H246700   6.724   3.223   6.203  0.5550  1.4240 -0.8640
 8429TIP3   OH246701   5.806   6.093   2.027  0.3474  0.2186 -0.1783
 8429TIP3    H146702   5.768   6.163   2.080  1.5013 -0.0855  1.0637
 8429TIP3    H246703   5.733   6.034   2.009 -0.2778  0.8849  0.1386
 8430TIP3   OH246704   2.552   3.343   2.971 -0.2832 -0.1176  0.3421
 8430TIP3    H146705   2.467   3.382   2.990 -1.0530 -0.1601 -2.6446
 8430TIP3    H246706   2.545   3.253   3.002 -1.4431 -0.1873 -0.0862
 8431TIP3   OH246707   5.217   5.865  14.678  0.0828  0.3104  1.0320
 8431TIP3    H146708   5.183   5.776  14.669  1.5349 -0.1778  0.2842
 8431TIP3    H246709   5.312   5.855  14.676  0.2484  1.9752 -0.0148
 8432TIP3   OH246710   6.008   1.203   4.763 -0.3336  0.7416 -0.9258
 8432TIP3    H146711   6.090   1.248   4.781  0.1533  0.0401 -1.3655
 8432TIP3    H246712   6.016   1.119   4.808 -1.2278  1.0802 -0.1251
 8433TIP3   OH246713   4.918   2.279  12.603  0.1365  0.5217  0.2175
 8433TIP3    H146714   4.922   2.190  12.568 -2.7272  1.3206 -2.4084
 8433TIP3    H246715   4.991   2.325  12.563  0.0940 -0.0036 -0.4630
 8434TIP3   OH246716   4.468   6.593   3.237 -0.2514 -0.2514 -0.0155
 8434TIP3    H146717   4.546   6.613   3.288 -0.1051 -1.6116  0.3146
 8434TIP3    H246718   4.499   6.584   3.147  0.3912 -3.0885  0.4440
 8435TIP3   OH246719   0.429   3.422   5.953  0.0300  0.6273 -0.2645
 8435TIP3    H146720   0.486   3.344   5.954 -2.3153 -1.1273  1.2474
 8435TIP3    H246721   0.483   3.491   5.992  1.3299 -0.8419  0.6052
 8436TIP3   OH246722   1.890   2.596  15.552  0.1752 -0.4217  0.1755
 8436TIP3    H146723   1.796   2.587  15.542  0.2988  0.4448 -1.9036
 8436TIP3    H246724   1.926   2.571  15.467  1.8385 -0.7976  0.9535
 8437TIP3   OH246725   3.954   6.770  16.029  0.2142  0.5922  0.1294
 8437TIP3    H146726   3.949   6.759  16.124  0.9033  0.2340  0.1312
 8437TIP3    H246727   4.048   6.781  16.012  0.3875 -1.9645 -0.7894
 8438TIP3   OH246728   6.683   5.588  16.310 -0.3955 -0.1173  0.2139
 8438TIP3    H146729   6.736   5.582  16.389  1.8213  1.6481 -1.0691
 8438TIP3    H246730   6.646   5.676  16.312  1.2512  0.6748 -1.5995
 8439TIP3   OH246731   6.317   5.805  16.690  0.1601  0.3403 -0.4499
 8439TIP3    H146732   6.354   5.837  16.607 -0.0508 -2.5582 -1.7223
 8439TIP3    H246733   6.379   5.739  16.720 -1.4136 -0.9895 -0.0319
 8440TIP3   OH246734   3.865   1.073  17.211 -0.2647 -0.0804 -0.1070
 8440TIP3    H146735   3.886   1.103  17.299  0.2264  1.3187 -0.6779
 8440TIP3    H246736   3.902   0.985  17.206  2.9625  1.2059 -0.0938
 8441TIP3   OH246737   2.971   1.111  12.576 -0.0985 -0.2492 -0.5003
 8441TIP3    H146738   2.963   1.108  12.671 -1.7139  0.6434 -0.5976
 8441TIP3    H246739   2.968   1.019  12.549  1.2807 -0.5601  0.3625
 8442TIP3   OH246740   0.141   1.983  13.339 -0.3079 -0.4681  0.5000
 8442TIP3    H146741   0.068   1.921  13.346 -0.8611  0.1275  0.0177
 8442TIP3    H246742   0.126   2.045  13.410 -1.5393  0.9667 -0.9634
 8443TIP3   OH246743   6.378   5.651   1.047 -0.1637 -0.1191 -0.3812
 8443TIP3    H146744   6.330   5.577   1.083 -1.0021  0.5688 -0.0560
 8443TIP3    H246745   6.331   5.728   1.080 -0.5486  0.5274 -2.4047
 8444TIP3   OH246746   6.765   4.769  16.414 -0.0186  0.2791  0.1329
 8444TIP3    H146747   6.835   4.744  16.355  0.5635  2.3014 -0.0697
 8444TIP3    H246748   6.691   4.789  16.356 -0.2351 -0.1908  0.2432
 8445TIP3   OH246749   6.779   5.709  15.661 -0.1837 -0.1644 -0.4989
 8445TIP3    H146750   6.726   5.643  15.704  1.5066  0.0084  1.9839
 8445TIP3    H246751   6.807   5.668  15.579 -0.3901 -1.9635  0.3007
 8446TIP3   OH246752   0.178   3.362   6.341 -0.3813 -0.1093  0.3904
 8446TIP3    H146753   0.164   3.439   6.396  0.0508  0.9557 -0.9915
 8446TIP3    H246754   0.089   3.334   6.316 -0.4959  0.5486  0.0574
 8447TIP3   OH246755   5.796   3.213   4.655  0.1954  0.3510  0.6050
 8447TIP3    H146756   5.852   3.290   4.660  0.2003  0.4103 -0.3761
 8447TIP3    H246757   5.707   3.247   4.651  0.2283  0.3232 -0.4091
 8448TIP3   OH246758   4.959   1.894   2.839 -0.1191 -0.2748  0.0648
 8448TIP3    H146759   4.925   1.951   2.908  0.5598 -0.1976  0.3381
 8448TIP3    H246760   5.035   1.941   2.805 -0.5481 -0.2310 -0.8551
 8449TIP3   OH246761   3.573   5.487   5.490  0.3384 -0.5575 -0.3888
 8449TIP3    H146762   3.535   5.411   5.446 -0.4213  1.1147 -2.7181
 8449TIP3    H246763   3.526   5.492   5.574 -1.5749 -1.0178 -1.4072
 8450TIP3   OH246764   2.086   0.562  16.501 -0.5570  0.1232 -0.7519
 8450TIP3    H146765   2.172   0.589  16.469 -1.0613  2.7635  0.0350
 8450TIP3    H246766   2.024   0.622  16.460 -1.6572  0.5268  1.4179
 8451TIP3   OH246767   4.213   5.047   4.823  0.3733 -0.3352  1.0207
 8451TIP3    H146768   4.248   5.122   4.774  1.7910 -0.5066  1.7384
 8451TIP3    H246769   4.208   5.078   4.913  1.0609 -1.1239  1.3356
 8452TIP3   OH246770   0.199   2.709  13.692  0.1590 -0.2398 -0.4574
 8452TIP3    H146771   0.266   2.760  13.646 -1.2052  2.0589  0.0311
 8452TIP3    H246772   0.200   2.742  13.781 -1.3964 -0.4152 -0.3639
 8453TIP3   OH246773   2.726   3.656   1.343  0.5706 -0.0176  0.1269
 8453TIP3    H146774   2.680   3.580   1.307 -2.6349  1.2510  1.2787
 8453TIP3    H246775   2.736   3.635   1.436  2.8520 -0.5032 -0.2202
 8454TIP3   OH246776   2.468   4.759  12.908  0.0659 -0.2467 -0.2440
 8454TIP3    H146777   2.446   4.671  12.939  0.9198 -0.6329 -0.7248
 8454TIP3    H246778   2.399   4.814  12.944  0.9590 -0.7003  2.2832
 8455TIP3   OH246779   4.504   1.237   0.283  0.5042 -0.2090 -0.2150
 8455TIP3    H146780   4.541   1.322   0.306  0.4065 -0.3812  0.6241
 8455TIP3    H246781   4.543   1.176   0.347 -0.7410 -0.4948  0.2966
 8456TIP3   OH246782   3.670   5.314   1.471  0.0011  0.0956  0.0194
 8456TIP3    H146783   3.642   5.404   1.484 -0.3319 -0.1178  0.7958
 8456TIP3    H246784   3.738   5.320   1.404 -1.1655  0.7351 -1.1386
 8457TIP3   OH246785   0.071   0.743  12.987  0.0539  0.2312  0.4765
 8457TIP3    H146786   0.033   0.777  12.907  0.5766  1.0296  0.5643
 8457TIP3    H246787   0.166   0.753  12.975  0.1717 -0.4006  0.8535
 8458TIP3   OH246788   6.141   2.788  16.679  0.0583  0.5359 -0.4423
 8458TIP3    H146789   6.188   2.803  16.762  0.6577 -0.3974 -0.6028
 8458TIP3    H246790   6.115   2.696  16.683 -0.0277  0.5259 -1.2362
 8459TIP3   OH246791   0.847   4.924  16.674 -0.3429 -0.4343  0.3633
 8459TIP3    H146792   0.761   4.963  16.686  0.2899  0.8543  0.7630
 8459TIP3    H246793   0.903   4.970  16.736  0.3245 -2.2948  1.1532
 8460TIP3   OH246794   5.651   2.625  16.336  0.2227  0.2515 -0.1637
 8460TIP3    H146795   5.617   2.551  16.388  1.8869 -0.0403  0.5496
 8460TIP3    H246796   5.625   2.605  16.246 -1.8067  0.2403  0.3892
 8461TIP3   OH246797   5.304   4.478   2.547 -0.3630  0.0457  0.3262
 8461TIP3    H146798   5.314   4.473   2.452 -0.0434  1.0141  0.3015
 8461TIP3    H246799   5.393   4.468   2.581 -0.5102 -0.5648  0.5395
 8462TIP3   OH246800   2.716   3.361  15.681 -0.7228 -0.0375 -0.1326
 8462TIP3    H146801   2.678   3.294  15.625 -0.2748  0.9976 -1.6939
 8462TIP3    H246802   2.769   3.312  15.744 -0.2162 -1.1337 -1.3914
 8463TIP3   OH246803   0.633   5.699  15.054  0.0066 -0.3746  0.0468
 8463TIP3    H146804   0.681   5.712  15.136 -1.4353  0.4256  0.7795
 8463TIP3    H246805   0.558   5.758  15.060 -0.1650 -0.3654 -1.8218
 8464TIP3   OH246806   3.054   3.144  13.461  0.2291 -0.0225 -0.1531
 8464TIP3    H146807   3.019   3.084  13.528  3.1460 -0.7049  0.8549
 8464TIP3    H246808   3.041   3.098  13.378  0.3773 -1.0457  0.3830
 8465TIP3   OH246809   3.655   3.731   0.112  0.2271  0.1186 -0.3999
 8465TIP3    H146810   3.620   3.799   0.170 -1.6552 -1.1740  0.0175
 8465TIP3    H246811   3.582   3.709   0.055  1.6558  0.3639 -2.3503
 8466TIP3   OH246812   2.713   6.068   3.824  0.3962  0.4007  0.1595
 8466TIP3    H146813   2.631   6.031   3.791 -1.4254  0.9387  3.7957
 8466TIP3    H246814   2.748   6.000   3.882  3.2031 -0.2775 -2.1675
 8467TIP3   OH246815   1.671   1.286   6.389  0.5678 -0.7331  0.5361
 8467TIP3    H146816   1.604   1.233   6.431 -0.9312  0.0439 -0.8118
 8467TIP3    H246817   1.706   1.342   6.459  0.2326 -1.5518  1.3633
 8468TIP3   OH246818   0.553   6.652  13.036  0.4648 -0.3044 -0.5347
 8468TIP3    H146819   0.469   6.613  13.013 -0.7548  1.7601  0.2186
 8468TIP3    H246820   0.611   6.578  13.052 -1.5403 -1.7766  0.0729
 8469TIP3   OH246821   2.903   2.602   6.643  0.6636  0.1478 -0.6101
 8469TIP3    H146822   2.832   2.557   6.598 -0.1393  0.3770  0.4082
 8469TIP3    H246823   2.959   2.532   6.676 -1.7513 -0.2768  2.9055
 8470TIP3   OH246824   3.623   1.259  10.801 -0.9015 -0.0201 -0.3935
 8470TIP3    H146825   3.647   1.185  10.855 -1.8574  1.0797  1.6128
 8470TIP3    H246826   3.558   1.224  10.739 -0.7166 -1.0257 -0.0193
 8471TIP3   OH246827   4.833   5.237   5.823  0.4270  0.5466 -0.3668
 8471TIP3    H146828   4.841   5.229   5.728  1.5478 -2.8910 -0.0519
 8471TIP3    H246829   4.745   5.202   5.842  0.0796  1.5193 -0.1416
 8472TIP3   OH246830   6.299   6.202  15.609 -0.2151  0.2221  0.5377
 8472TIP3    H146831   6.209   6.177  15.630 -0.1540 -1.0954 -0.7280
 8472TIP3    H246832   6.299   6.214  15.514  0.7933  0.8871  0.6150
 8473TIP3   OH246833   2.143   1.604  12.059 -0.3631  0.2567  0.1649
 8473TIP3    H146834   2.220   1.662  12.060  0.3906 -0.7316  0.0887
 8473TIP3    H246835   2.083   1.646  11.997  1.0787 -0.1744 -1.5861
 8474TIP3   OH246836   5.891   6.081   2.898 -0.2689  0.5408  0.5632
 8474TIP3    H146837   5.865   6.158   2.847  0.8914  0.6900  0.1692
 8474TIP3    H246838   5.986   6.090   2.907 -0.1294 -0.8304  0.5316
 8475TIP3   OH246839   2.934   2.504   0.124  0.3857  0.0063  0.0483
 8475TIP3    H146840   3.001   2.558   0.080 -0.1372 -1.0930 -2.1798
 8475TIP3    H246841   2.852   2.532   0.084 -0.3048  0.0703  1.4911
 8476TIP3   OH246842   4.816   1.754  10.700 -0.1770 -0.0613 -0.0536
 8476TIP3    H146843   4.815   1.849  10.717  0.5282  0.1553 -1.1653
 8476TIP3    H246844   4.724   1.729  10.701 -0.3868  0.6900 -0.0428
 8477TIP3   OH246845   1.546   4.135   2.990 -0.2994 -0.4162 -0.4848
 8477TIP3    H146846   1.488   4.211   2.988  0.4793  0.2510  0.9431
 8477TIP3    H246847   1.633   4.171   2.972 -0.0615 -1.1159 -0.7386
 8478TIP3   OH246848   5.213   6.543   6.280  0.3683  0.3419  0.2263
 8478TIP3    H146849   5.212   6.600   6.203 -0.8405  0.0355  0.0020
 8478TIP3    H246850   5.301   6.506   6.282 -0.3120 -1.6277 -2.5078
 8479TIP3   OH246851   2.833   0.863  16.697 -0.3286  0.0231 -0.0511
 8479TIP3    H146852   2.893   0.805  16.650 -1.7426 -0.9760 -0.6649
 8479TIP3    H246853   2.807   0.813  16.774 -0.9257  0.1517 -0.1643
 8480TIP3   OH246854   5.348   0.423  15.465 -0.7637 -0.4449 -0.8551
 8480TIP3    H146855   5.333   0.337  15.505  0.0350  0.2170  0.9723
 8480TIP3    H246856   5.375   0.404  15.375 -1.8852 -2.0412 -0.8647
 8481TIP3   OH246857   1.023   5.387   2.686 -0.0099  0.0888  0.3691
 8481TIP3    H146858   1.017   5.374   2.591 -2.3542 -0.4829  0.5857
 8481TIP3    H246859   1.007   5.480   2.699  2.2930  0.5594  0.0631
 8482TIP3   OH246860   4.603   5.268  13.202 -0.0637  0.1314  0.2324
 8482TIP3    H146861   4.587   5.357  13.170 -3.1575 -0.5661 -0.3249
 8482TIP3    H246862   4.640   5.222  13.126 -0.0475  0.5042  0.0087
 8483TIP3   OH246863   5.203   5.834  10.875  0.4315  0.0809 -0.0113
 8483TIP3    H146864   5.191   5.769  10.805 -0.2989  1.8760 -1.5901
 8483TIP3    H246865   5.123   5.886  10.873  1.0123  1.0331  1.2583
 8484TIP3   OH246866   1.610   5.771   1.019  0.2453  0.3244  0.1887
 8484TIP3    H146867   1.642   5.682   1.006  0.5929  0.7586 -2.2513
 8484TIP3    H246868   1.645   5.820   0.944 -2.3721  1.8381 -0.1111
 8485TIP3   OH246869   5.201   3.384   5.647  0.0433 -0.0939  0.0399
 8485TIP3    H146870   5.247   3.447   5.592  0.7082 -1.0727 -0.5515
 8485TIP3    H246871   5.249   3.302   5.634 -1.6841 -1.0593 -0.3632
 8486TIP3   OH246872   0.099   1.243  16.717 -0.6373  0.2900  0.3452
 8486TIP3    H146873   0.013   1.207  16.695  0.4485 -1.6463 -0.8437
 8486TIP3    H246874   0.122   1.297  16.642 -0.6794  0.5695  0.5339
 8487TIP3   OH246875   5.350   2.983  15.716  0.4947 -0.1354 -0.3010
 8487TIP3    H146876   5.407   3.060  15.712  0.6377 -0.1639  0.8655
 8487TIP3    H246877   5.405   2.914  15.753 -0.4975  0.0771  1.6669
 8488TIP3   OH246878   5.769   4.363  14.080  0.7106  0.1155 -0.1946
 8488TIP3    H146879   5.678   4.360  14.110  1.0208 -0.7381  0.6981
 8488TIP3    H246880   5.804   4.444  14.115 -0.0486  1.0689 -1.5850
 8489TIP3   OH246881   1.659   6.757  11.389  0.0823 -0.2356 -0.0569
 8489TIP3    H146882   1.676   6.765  11.483 -1.5132 -1.2041  0.3461
 8489TIP3    H246883   1.586   6.817  11.373  0.2365 -0.2053 -0.6366
 8490TIP3   OH246884   3.330   1.251   2.814 -0.2250 -0.0548 -0.3347
 8490TIP3    H146885   3.304   1.335   2.776 -2.2059 -0.3205  0.3793
 8490TIP3    H246886   3.274   1.241   2.891  2.2710 -0.5030  1.4965
 8491TIP3   OH246887   5.655   1.738  12.664 -0.4323 -0.1705  0.3549
 8491TIP3    H146888   5.737   1.691  12.680  0.0941  0.1841 -1.2062
 8491TIP3    H246889   5.593   1.700  12.727  0.8438 -0.6405  1.3591
 8492TIP3   OH246890   3.860   2.673   4.811 -0.1481 -0.9122  0.1597
 8492TIP3    H146891   3.822   2.660   4.898 -0.3537 -1.7289 -0.0513
 8492TIP3    H246892   3.946   2.631   4.816  1.9403  3.1929  1.4792
 8493TIP3   OH246893   4.214   4.265  12.644  0.2006  0.5404  0.1554
 8493TIP3    H146894   4.128   4.302  12.661 -0.4580 -0.8980 -0.0459
 8493TIP3    H246895   4.256   4.328  12.585 -1.3152  0.4421 -1.0595
 8494TIP3   OH246896   1.565   4.698   6.260  0.1367 -0.3658 -0.6733
 8494TIP3    H146897   1.525   4.673   6.177 -1.2302 -0.2522 -0.0630
 8494TIP3    H246898   1.494   4.691   6.324  1.1652 -0.4141  0.4745
 8495TIP3   OH246899   5.242   5.381  17.199 -0.1681 -0.1271  0.2026
 8495TIP3    H146900   5.235   5.450  17.133  0.4901 -1.9330 -1.7731
 8495TIP3    H246901   5.336   5.372  17.215 -0.1983 -1.2481 -0.2595
 8496TIP3   OH246902   5.615   0.279  13.673  0.2877  0.1050  0.1781
 8496TIP3    H146903   5.624   0.200  13.619 -0.9775 -0.3552  0.6277
 8496TIP3    H246904   5.534   0.266  13.721  1.0291  0.8580  1.6551
 8497TIP3   OH246905   6.297   3.722   6.308 -0.4017 -0.3957 -0.6443
 8497TIP3    H146906   6.277   3.642   6.355 -1.3572 -0.9828 -1.9982
 8497TIP3    H246907   6.213   3.766   6.298  0.2172  1.1405  0.7085
 8498TIP3   OH246908   0.442   1.826  15.853 -0.5131 -0.9191 -0.2805
 8498TIP3    H146909   0.533   1.807  15.872 -0.1548  0.4876 -0.5658
 8498TIP3    H246910   0.400   1.834  15.939  0.0867  0.5965 -0.1275
 8499TIP3   OH246911   2.768   1.512  14.271 -0.1437  0.2091 -0.0675
 8499TIP3    H146912   2.732   1.587  14.224  1.0616  1.3377  0.7550
 8499TIP3    H246913   2.734   1.436  14.225 -0.7813  1.2737 -1.3920
 8500TIP3   OH246914   4.621   0.325   3.966  0.2768 -0.3841 -0.4987
 8500TIP3    H146915   4.706   0.285   3.949 -0.0177 -0.7078 -1.2378
 8500TIP3    H246916   4.585   0.275   4.039  0.1152 -1.1788 -1.1078
 8501TIP3   OH246917   2.020   3.349   3.870 -0.4001  0.0670 -0.3421
 8501TIP3    H146918   2.000   3.381   3.958  0.4275 -2.9809  1.0224
 8501TIP3    H246919   1.960   3.275   3.857  0.5277 -0.4650 -1.7213
 8502TIP3   OH246920   6.646   2.873   1.967 -0.1863  0.3325  0.1476
 8502TIP3    H146921   6.608   2.946   2.017  0.7884  0.1332  1.2050
 8502TIP3    H246922   6.656   2.908   1.878  1.0095  1.7797  0.8182
 8503TIP3   OH246923   1.139   2.513   4.558  0.5667 -0.0214 -0.1738
 8503TIP3    H146924   1.089   2.585   4.597  1.6555  1.2797 -1.1330
 8503TIP3    H246925   1.134   2.443   4.623 -3.1712 -0.2265 -0.6026
 8504TIP3   OH246926   5.263   3.342  13.090 -0.3062  0.6958 -0.4041
 8504TIP3    H146927   5.255   3.277  13.159 -2.2593  0.1605 -1.0894
 8504TIP3    H246928   5.291   3.291  13.013 -3.2567  0.3258 -1.3249
 8505TIP3   OH246929   1.261   2.054  15.275  0.1911 -0.4435 -0.0018
 8505TIP3    H146930   1.300   1.977  15.234 -2.1146 -2.6520  1.8117
 8505TIP3    H246931   1.168   2.049  15.252  0.0413  1.9912 -0.0859
 8506TIP3   OH246932   4.486   1.656  14.922 -0.0240  0.4317  0.1916
 8506TIP3    H146933   4.503   1.677  14.831 -1.3468  0.5337 -0.0425
 8506TIP3    H246934   4.561   1.691  14.970  1.1397 -0.4859 -0.9588
 8507TIP3   OH246935   0.247   3.283  15.111  0.5130 -0.4881 -0.4255
 8507TIP3    H146936   0.197   3.324  15.040  0.0163  0.7783  0.6277
 8507TIP3    H246937   0.181   3.254  15.174  0.9432 -1.7129 -0.5236
 8508TIP3   OH246938   5.086   4.548   1.418  0.1864 -1.0238  0.1355
 8508TIP3    H146939   5.152   4.480   1.427  1.0715 -0.2948 -0.8581
 8508TIP3    H246940   5.117   4.619   1.473  0.5278 -0.4524 -0.7935
 8509TIP3   OH246941   6.230   3.002   1.284 -0.5474  0.3384 -0.1908
 8509TIP3    H146942   6.213   2.933   1.220  1.2927  1.0504 -1.4896
 8509TIP3    H246943   6.234   3.082   1.232 -2.3251  1.4168  1.2553
 8510TIP3   OH246944   4.314   0.254  15.125  0.7569 -0.1060  0.4880
 8510TIP3    H146945   4.321   0.224  15.215  0.4929 -0.1941  0.4808
 8510TIP3    H246946   4.245   0.199  15.087 -0.8351  1.5802  0.9026
 8511TIP3   OH246947   3.831   0.811   5.525 -0.2751 -0.0969 -0.1266
 8511TIP3    H146948   3.760   0.755   5.494  0.2549 -0.5332 -0.5713
 8511TIP3    H246949   3.837   0.794   5.619  0.6168 -1.6382 -0.4412
 8512TIP3   OH246950   2.069   0.665  12.265  0.5029  0.2889  0.5887
 8512TIP3    H146951   2.127   0.734  12.232 -0.5539  0.4577 -0.9238
 8512TIP3    H246952   2.072   0.597  12.199 -0.0696 -0.2368  1.1059
 8513TIP3   OH246953   6.148   5.798  16.214  0.4075  0.2535 -0.7825
 8513TIP3    H146954   6.072   5.740  16.202  1.1961 -0.5379 -2.0710
 8513TIP3    H246955   6.118   5.864  16.276 -0.6664 -1.2793  0.3806
 8514TIP3   OH246956   5.271   4.211   5.276  0.3482 -0.0547  0.4930
 8514TIP3    H146957   5.255   4.303   5.294  2.2982 -0.2664  3.7474
 8514TIP3    H246958   5.344   4.188   5.333  0.1313 -3.5252 -0.5227
 8515TIP3   OH246959   6.530   4.254  17.139 -0.2901 -0.1644 -0.0650
 8515TIP3    H146960   6.454   4.208  17.103 -0.8595  1.7658 -1.3686
 8515TIP3    H246961   6.569   4.300  17.065  1.3040  0.0549  0.8711
 8516TIP3   OH246962   4.488   1.824   0.646 -0.1722  0.0932  0.8842
 8516TIP3    H146963   4.550   1.756   0.620  0.1802  0.2731  1.2481
 8516TIP3    H246964   4.505   1.896   0.585 -0.8999 -0.3343  0.1652
 8517TIP3   OH246965   0.623   3.752   0.917  0.0673  0.4143 -0.3558
 8517TIP3    H146966   0.629   3.663   0.953 -0.9761 -0.4586 -2.2446
 8517TIP3    H246967   0.714   3.773   0.893  0.6759  0.7787  2.1629
 8518TIP3   OH246968   0.514   1.797  13.993 -0.1964  0.3814  0.1470
 8518TIP3    H146969   0.579   1.809  13.924  1.2022 -0.9203  1.1964
 8518TIP3    H246970   0.538   1.863  14.059 -1.8395  1.9657 -0.8153
 8519TIP3   OH246971   6.221   0.864  12.153 -0.8307  0.7178 -0.2709
 8519TIP3    H146972   6.293   0.836  12.096 -1.2260 -0.9587  0.0335
 8519TIP3    H246973   6.142   0.847  12.102 -1.0981  1.0054  0.0456
 8520TIP3   OH246974   2.560   3.568   0.090  0.2966  0.1616  0.5337
 8520TIP3    H146975   2.640   3.515   0.088  0.6491  0.5730  2.5415
 8520TIP3    H246976   2.541   3.578   0.183 -0.7474  2.0889  0.1228
 8521TIP3   OH246977   1.957   5.036  12.742  0.0982  0.5312  0.3649
 8521TIP3    H146978   1.956   4.985  12.662  1.3937  0.0264  0.6559
 8521TIP3    H246979   2.049   5.058  12.756 -0.1251  0.7273  1.6393
 8522TIP3   OH246980   6.499   2.705   5.430 -0.2102  0.2923  0.4379
 8522TIP3    H146981   6.459   2.792   5.430  1.8299  1.2628  0.4726
 8522TIP3    H246982   6.436   2.650   5.384 -2.4908  1.3024  2.2504
 8523TIP3   OH246983   6.062   3.714  13.006  0.4876  0.0918 -0.0270
 8523TIP3    H146984   6.118   3.791  12.994 -1.4764  1.7365  0.9757
 8523TIP3    H246985   6.061   3.700  13.101 -1.0416  0.2841 -0.0028
 8524TIP3   OH246986   3.571   1.641   3.010  0.5320 -0.3347 -0.2835
 8524TIP3    H146987   3.552   1.553   3.044  0.4570  0.1258  0.8671
 8524TIP3    H246988   3.636   1.677   3.070  0.2639  0.5594 -0.5187
 8525TIP3   OH246989   5.229   6.655  16.650 -0.4918  0.5271  0.5607
 8525TIP3    H146990   5.165   6.700  16.595  0.8174  0.3398 -1.1391
 8525TIP3    H246991   5.179   6.587  16.695 -1.6024  0.8201 -0.2386
 8526TIP3   OH246992   6.583   3.969  16.124  0.5707  0.0821  0.2727
 8526TIP3    H146993   6.497   3.973  16.166  1.3345 -0.9242  2.0055
 8526TIP3    H246994   6.616   3.881  16.145  1.2795 -0.1926 -1.8781
 8527TIP3   OH246995   6.198   0.511   2.402 -0.0089  0.8878 -0.1897
 8527TIP3    H146996   6.202   0.423   2.441  0.0474  1.1762  0.4637
 8527TIP3    H246997   6.289   0.538   2.394  0.1000 -0.0938 -2.6780
 8528TIP3   OH246998   1.225   2.775   5.182  0.4175 -0.3187  0.4823
 8528TIP3    H146999   1.201   2.732   5.264 -2.0212  2.4779  1.3294
 8528TIP3    H247000   1.165   2.739   5.117  1.2698 -1.3231  0.2247
 8529TIP3   OH247001   6.545   5.958   3.523  0.1666 -0.3582 -0.2289
 8529TIP3    H147002   6.516   5.959   3.432  0.5351 -0.4458 -0.3496
 8529TIP3    H247003   6.485   6.017   3.569  0.5486  0.4033 -0.7011
 8530TIP3   OH247004   1.171   4.513  11.653 -0.4505  0.0132  0.3900
 8530TIP3    H147005   1.114   4.586  11.630 -1.2896 -0.0780  2.1083
 8530TIP3    H247006   1.113   4.447  11.692  0.2154 -1.7986 -1.5631
 8531TIP3   OH247007   2.012   0.043  11.396 -0.0586  0.2093  0.8005
 8531TIP3    H147008   1.978  -0.027  11.340  0.6266  2.4225 -2.5320
 8531TIP3    H247009   2.106   0.028  11.400  0.3241  1.8008 -1.2998
 8532TIP3   OH247010   1.508   0.190  11.391 -0.2778  0.4035  0.1978
 8532TIP3    H147011   1.600   0.216  11.401  0.1097 -0.4358 -1.0596
 8532TIP3    H247012   1.474   0.250  11.324 -1.0366  1.6150  1.6322
 8533TIP3   OH247013   0.625   1.011  14.652 -0.3631  0.3518  0.4244
 8533TIP3    H147014   0.610   0.925  14.612 -2.9134  0.1262  1.7383
 8533TIP3    H247015   0.720   1.020  14.656 -0.0588 -2.4825  0.3979
 8534TIP3   OH247016   0.546   2.315   5.634  0.1225  0.4279 -0.0466
 8534TIP3    H147017   0.457   2.313   5.671  0.1268  1.1054  0.0009
 8534TIP3    H247018   0.564   2.408   5.620  0.5166  0.2399 -0.8090
 8535TIP3   OH247019   6.512   1.668   3.239 -0.2265  0.3483  0.1912
 8535TIP3    H147020   6.460   1.595   3.207 -1.1274  1.2709 -0.4836
 8535TIP3    H247021   6.567   1.631   3.308 -0.7412 -0.9334 -0.0914
 8536TIP3   OH247022   3.224   2.724   3.370  0.1181  0.8833  0.6127
 8536TIP3    H147023   3.260   2.684   3.449 -0.8116  1.6168  1.4230
 8536TIP3    H247024   3.205   2.650   3.312  1.8769  0.4180  0.6072
 8537TIP3   OH247025   1.261   4.119   3.522 -0.2564  0.0240  0.5128
 8537TIP3    H147026   1.207   4.174   3.578 -0.2460  1.7336 -1.1116
 8537TIP3    H247027   1.321   4.180   3.480 -1.2446 -1.0070 -2.4993
 8538TIP3   OH247028   0.666   4.719  11.451  0.0159  0.4240  0.4858
 8538TIP3    H147029   0.739   4.686  11.504 -1.3691 -1.6525  1.2074
 8538TIP3    H247030   0.629   4.640  11.411 -1.1406  1.5761 -0.7471
 8539TIP3   OH247031   0.923   1.926  13.124 -0.6618 -0.5109 -0.0374
 8539TIP3    H147032   0.962   1.848  13.085 -1.0689 -0.9634  0.4479
 8539TIP3    H247033   0.830   1.921  13.099 -1.2769 -1.6675  2.3168
 8540TIP3   OH247034   2.421   0.966   0.343  0.9291 -0.1891  0.0695
 8540TIP3    H147035   2.470   1.025   0.286  0.6909  1.6845  1.7649
 8540TIP3    H247036   2.337   1.010   0.357  0.3297 -1.4453  0.4703
 8541TIP3   OH247037   5.669   5.589   2.424 -0.0694  0.5389  0.2578
 8541TIP3    H147038   5.637   5.520   2.365  0.1470  1.2002 -0.6528
 8541TIP3    H247039   5.742   5.549   2.471 -0.0894  0.0726 -0.1013
 8542TIP3   OH247040   0.388   6.406   5.451  0.1252 -0.0866 -0.0878
 8542TIP3    H147041   0.296   6.389   5.429  0.7774 -1.7884 -1.6516
 8542TIP3    H247042   0.422   6.454   5.376  0.6911 -0.0837  0.1687
 8543TIP3   OH247043   4.522   4.519  11.469  0.2400 -0.3437  0.7135
 8543TIP3    H147044   4.547   4.452  11.532 -0.0756 -0.9409  0.1999
 8543TIP3    H247045   4.451   4.480  11.418  2.4622 -1.0071 -2.0076
 8544TIP3   OH247046   2.023   2.897   1.704  0.2753  0.1520  0.1161
 8544TIP3    H147047   1.996   2.976   1.658 -0.3957 -0.5387 -0.6881
 8544TIP3    H247048   2.100   2.866   1.656 -0.3273 -0.4786 -0.4497
 8545TIP3   OH247049   6.602   6.558   1.149 -0.1913 -0.3366  0.2932
 8545TIP3    H147050   6.539   6.517   1.090  1.3155 -1.4621 -0.5590
 8545TIP3    H247051   6.664   6.602   1.091 -0.2291  0.8656  1.1324
 8546TIP3   OH247052   2.346   5.766   1.746  0.6822 -0.1114 -0.1091
 8546TIP3    H147053   2.393   5.784   1.665 -0.1484  0.5230 -0.4638
 8546TIP3    H247054   2.338   5.671   1.749 -1.7393 -0.0250 -2.2255
 8547TIP3   OH247055   0.378   1.760  12.181 -0.2186 -0.0444  0.3362
 8547TIP3    H147056   0.426   1.693  12.231  0.8852 -0.9029 -1.8359
 8547TIP3    H247057   0.435   1.836  12.182  1.1918 -1.0297 -2.1534
 8548TIP3   OH247058   1.489   3.951  15.667 -0.3107 -0.4146  0.2126
 8548TIP3    H147059   1.514   3.976  15.578  0.3186 -1.3584  0.1197
 8548TIP3    H247060   1.564   3.977  15.721 -0.6923  0.1600  0.4833
 8549TIP3   OH247061   2.161   5.895  16.106 -0.1803  0.3083 -0.2757
 8549TIP3    H147062   2.185   5.902  16.013  0.3147 -1.6575 -0.3234
 8549TIP3    H247063   2.241   5.918  16.153  0.2798 -0.9808 -0.3885
 8550TIP3   OH247064   0.040   0.464  16.470  0.0689  0.0364 -0.0564
 8550TIP3    H147065   0.115   0.512  16.506 -0.5989  1.2346 -0.2060
 8550TIP3    H247066   0.077   0.404  16.406  1.2674 -2.1216  2.6279
 8551TIP3   OH247067   2.319   0.441   4.127 -0.0669 -0.2841  0.2148
 8551TIP3    H147068   2.271   0.436   4.044  0.8556  0.5651 -0.3871
 8551TIP3    H247069   2.311   0.354   4.165 -0.4677 -0.6892 -0.7842
 8552TIP3   OH247070   5.137   1.717   4.018  0.4464  1.1190  0.6515
 8552TIP3    H147071   5.194   1.639   4.015 -0.7751  0.2248  0.2774
 8552TIP3    H247072   5.176   1.776   3.953 -0.6107 -0.6116 -1.6641
 8553TIP3   OH247073   3.216   2.530  14.843  0.0977 -0.0612 -0.0719
 8553TIP3    H147074   3.157   2.602  14.823 -1.2083 -1.1575 -0.2816
 8553TIP3    H247075   3.248   2.548  14.931 -1.2783  0.0812  0.4082
 8554TIP3   OH247076   4.081   4.605   0.631 -0.4171  0.0619  0.1906
 8554TIP3    H147077   4.155   4.596   0.692 -0.1501  1.0397  0.0063
 8554TIP3    H247078   4.020   4.663   0.676  0.0504  1.2739 -0.7227
 8555TIP3   OH247079   5.882   4.686  12.819  0.4001 -0.0453  0.0892
 8555TIP3    H147080   5.911   4.741  12.892 -0.8442  0.1866  0.4314
 8555TIP3    H247081   5.960   4.674  12.765  0.6981  2.0474  0.0127
 8556TIP3   OH247082   3.180   0.938  12.696  0.3331 -0.2880 -0.2879
 8556TIP3    H147083   3.256   0.880  12.701 -0.5088 -1.4378 -0.5508
 8556TIP3    H247084   3.185   0.975  12.608  0.7569 -0.1207 -0.1958
 8557TIP3   OH247085   5.274   4.425  12.421 -0.1528  0.4474 -0.1230
 8557TIP3    H147086   5.345   4.409  12.483  0.0727  1.0337 -0.2274
 8557TIP3    H247087   5.282   4.518  12.398  0.8796 -0.1519 -2.3818
 8558TIP3   OH247088   5.800   3.870  13.431 -0.2361  0.0092  0.2459
 8558TIP3    H147089   5.780   3.934  13.499 -1.5576 -0.0761 -0.0535
 8558TIP3    H247090   5.741   3.891  13.360 -2.2160 -2.8266  0.9395
 8559TIP3   OH247091   2.402   3.722  17.171 -0.3363 -0.2140  0.3962
 8559TIP3    H147092   2.436   3.672  17.245  0.4219 -0.9543 -0.4355
 8559TIP3    H247093   2.307   3.724  17.185 -0.3759 -1.8159  0.5053
 8560TIP3   OH247094   1.351   0.665  10.570 -0.0317 -0.4522  0.1495
 8560TIP3    H147095   1.403   0.711  10.504 -0.8526 -0.6754 -0.6569
 8560TIP3    H247096   1.311   0.735  10.622 -1.2153 -0.2285 -1.0251
 8561TIP3   OH247097   0.651   4.833  16.067  0.2313 -0.0302 -0.0301
 8561TIP3    H147098   0.602   4.896  16.014 -1.7403  1.1033  2.9743
 8561TIP3    H247099   0.740   4.869  16.070 -0.3536  1.4775 -0.1488
 8562TIP3   OH247100   4.704   2.288   5.520  0.7099  0.0972 -0.2665
 8562TIP3    H147101   4.622   2.258   5.482  0.7550  2.5103 -2.4373
 8562TIP3    H247102   4.686   2.297   5.613 -1.3386  0.1354 -0.6568
 8563TIP3   OH247103   0.612   2.194  13.811  0.1735 -0.5049 -0.3760
 8563TIP3    H147104   0.562   2.171  13.734 -0.0518 -1.6133  0.0887
 8563TIP3    H247105   0.569   2.271  13.847 -2.1245 -2.3009  0.8531
 8564TIP3   OH247106   6.104   4.715  11.736 -0.1426 -0.5738  0.6590
 8564TIP3    H147107   6.075   4.764  11.659  0.5086  0.8180  1.2838
 8564TIP3    H247108   6.199   4.724  11.736 -0.1955  0.1572  2.0791
 8565TIP3   OH247109   6.225   4.529   5.419  1.0041 -0.0072  0.7788
 8565TIP3    H147110   6.303   4.501   5.371  1.9729 -0.2648  2.4336
 8565TIP3    H247111   6.248   4.516   5.511 -0.5644  1.0591  1.3507
 8566TIP3   OH247112   0.893   5.292  15.634  0.1506 -0.2265 -0.0598
 8566TIP3    H147113   0.850   5.341  15.564 -0.1757  0.3034  0.5098
 8566TIP3    H247114   0.886   5.348  15.711  0.0842 -1.0116  0.5172
 8567TIP3   OH247115   0.635   1.687   4.374 -0.4627  0.2660 -0.2041
 8567TIP3    H147116   0.726   1.704   4.396 -0.5759 -0.4192  0.8427
 8567TIP3    H247117   0.636   1.602   4.330 -0.5564  0.4248 -0.5160
 8568TIP3   OH247118   5.556   1.090  11.207 -0.3842  0.8347  0.0857
 8568TIP3    H147119   5.631   1.073  11.149  0.6888  1.0813  1.3773
 8568TIP3    H247120   5.479   1.079  11.151  0.6007  0.0205 -1.1259
 8569TIP3   OH247121   4.171   5.923  16.530  0.4852 -0.2702 -0.8799
 8569TIP3    H147122   4.093   5.891  16.484  0.8141 -2.2279 -0.1203
 8569TIP3    H247123   4.244   5.875  16.490  1.0590 -0.0326 -0.1318
 8570TIP3   OH247124   2.466   0.843  16.204 -0.3689  0.2813  0.5352
 8570TIP3    H147125   2.516   0.866  16.125 -0.1136  1.3986  1.0142
 8570TIP3    H247126   2.375   0.858  16.180 -0.6118 -2.6193 -0.6441
 8571TIP3   OH247127   4.519   4.658   6.538 -0.6455 -0.1068  0.0013
 8571TIP3    H147128   4.602   4.644   6.585  0.4545 -0.9848 -2.1122
 8571TIP3    H247129   4.505   4.575   6.492 -1.6958  0.7395 -1.1926
 8572TIP3   OH247130   6.204   3.730  15.145 -0.1122 -0.0010  0.6844
 8572TIP3    H147131   6.126   3.776  15.175 -0.5109 -1.2792  1.6027
 8572TIP3    H247132   6.171   3.654  15.098  0.5610  0.4906 -0.6430
 8573TIP3   OH247133   0.117   2.268  13.486 -0.2139 -0.4709  0.4077
 8573TIP3    H147134   0.064   2.232  13.557 -2.4895  2.2987  0.1744
 8573TIP3    H247135   0.183   2.322  13.531 -1.3932  0.9445  0.4649
 8574TIP3   OH247136   3.206   1.462  10.811  0.0155  0.1311  0.4013
 8574TIP3    H147137   3.123   1.424  10.841  1.1965 -1.8967  1.1811
 8574TIP3    H247138   3.273   1.416  10.862  1.6894  0.9347 -1.0415
 8575TIP3   OH247139   0.189   3.786  16.265  0.1028  0.6874 -0.1825
 8575TIP3    H147140   0.157   3.862  16.218  1.4062 -0.2648 -2.6842
 8575TIP3    H247141   0.155   3.711  16.216  0.6154 -0.3450  1.0012
 8576TIP3   OH247142   3.787   6.702   5.559 -0.3056  0.7597 -0.3001
 8576TIP3    H147143   3.820   6.789   5.580  0.7246 -0.1014  1.8543
 8576TIP3    H247144   3.865   6.646   5.555 -1.0492 -0.2909 -0.4215
 8577TIP3   OH247145   2.784   2.042   4.345  0.4978  0.7770 -0.3170
 8577TIP3    H147146   2.816   2.074   4.429 -0.8556 -0.1938  0.5893
 8577TIP3    H247147   2.767   2.122   4.295  2.4728  1.3265 -0.1243
 8578TIP3   OH247148   2.386   5.448  15.771 -0.8017 -0.2041  0.0810
 8578TIP3    H147149   2.429   5.467  15.687 -0.8336 -0.9920 -0.1254
 8578TIP3    H247150   2.447   5.389  15.816 -1.5139 -1.0763 -0.0832
 8579TIP3   OH247151   6.112   5.665   2.338  0.3783  0.2187 -0.5054
 8579TIP3    H147152   6.203   5.694   2.344 -0.1110  1.3821  1.7978
 8579TIP3    H247153   6.076   5.679   2.425 -1.9532 -0.4618 -1.3062
 8580TIP3   OH247154   1.562   5.821  16.229 -0.3172 -0.1660  0.4704
 8580TIP3    H147155   1.469   5.826  16.252 -0.8306  1.2050 -1.7225
 8580TIP3    H247156   1.581   5.907  16.190  1.9941 -0.2745  1.3219
 8581TIP3   OH247157   5.455   5.158  11.170 -0.1066 -0.1726 -0.9906
 8581TIP3    H147158   5.515   5.227  11.142  0.7102 -0.2711  0.4463
 8581TIP3    H247159   5.397   5.200  11.233  0.4320 -0.7850 -0.0656
 8582TIP3   OH247160   0.080   1.847   3.738  0.4030  0.1543 -0.0107
 8582TIP3    H147161   0.117   1.932   3.763  0.8052 -0.2098  0.6220
 8582TIP3    H247162   0.024   1.822   3.811  0.5024 -0.2603 -0.0745
 8583TIP3   OH247163   0.081   3.312  11.579 -0.5785 -0.2542 -0.5135
 8583TIP3    H147164   0.061   3.331  11.670  1.1119  1.4742 -0.4730
 8583TIP3    H247165   0.170   3.276  11.580 -0.3635  0.2355 -1.5133
 8584TIP3   OH247166   3.023   4.064   1.132  0.0103  0.6410  0.3224
 8584TIP3    H147167   3.009   4.095   1.222 -3.2198  0.1252  0.0601
 8584TIP3    H247168   2.983   3.977   1.131  1.4681 -0.0389 -1.2227
 8585TIP3   OH247169   2.026   2.200   4.689 -0.1856 -0.3194 -0.8138
 8585TIP3    H147170   1.972   2.271   4.656 -0.1183  0.6162  1.0617
 8585TIP3    H247171   1.966   2.126   4.697 -0.4273 -0.2619 -1.9950
 8586TIP3   OH247172   2.983   0.884  14.155 -0.1349  0.0042 -0.4377
 8586TIP3    H147173   3.027   0.882  14.070  3.2058 -0.8486  1.1926
 8586TIP3    H247174   3.052   0.862  14.217 -2.3399  1.3135  2.5815
 8587TIP3   OH247175   6.718   0.353  14.204 -0.2733 -0.3364  0.2677
 8587TIP3    H147176   6.685   0.264  14.207  2.5281 -1.3647  1.9663
 8587TIP3    H247177   6.681   0.389  14.123  0.1343 -3.6512 -1.4779
 8588TIP3   OH247178   0.445   6.712   4.444  0.0627 -0.0107 -0.0902
 8588TIP3    H147179   0.410   6.735   4.530  3.8873 -1.2733  1.9015
 8588TIP3    H247180   0.509   6.780   4.424 -0.1274 -0.2264 -1.5235
 8589TIP3   OH247181   5.444   6.314  11.616  0.2214  0.2847 -0.2631
 8589TIP3    H147182   5.474   6.313  11.707 -1.4234  0.6468  0.3034
 8589TIP3    H247183   5.356   6.350  11.621  0.9680  2.5129 -2.2730
 8590TIP3   OH247184   4.056   6.111   6.607  0.4377 -0.3241 -0.1012
 8590TIP3    H147185   4.000   6.176   6.563  0.9369 -0.0789 -0.3845
 8590TIP3    H247186   3.997   6.039   6.629 -0.7184  1.4179  2.7367
 8591TIP3   OH247187   6.292   0.239   2.482 -0.1616  0.3438 -0.2473
 8591TIP3    H147188   6.360   0.263   2.419 -0.6586  0.5311 -0.7139
 8591TIP3    H247189   6.338   0.190   2.550  0.4638  0.5955 -0.4913
 8592TIP3   OH247190   6.429   2.040   1.082  0.5085 -0.0646  0.1707
 8592TIP3    H147191   6.347   2.079   1.051  0.1955  0.0400  1.1291
 8592TIP3    H247192   6.481   2.029   1.002 -0.6986 -0.7696 -0.5407
 8593TIP3   OH247193   6.733   5.420   0.179 -0.5742  0.4224  0.3196
 8593TIP3    H147194   6.768   5.379   0.258 -0.0199  0.0585 -0.1138
 8593TIP3    H247195   6.660   5.473   0.211 -1.3626 -0.9496  0.8854
 8594TIP3   OH247196   0.967   1.959   3.363  0.0327  0.0957  0.1895
 8594TIP3    H147197   0.994   1.870   3.387  0.5990  0.7680  2.0662
 8594TIP3    H247198   0.899   1.946   3.297  1.8100 -1.6971 -1.3463
 8595TIP3   OH247199   5.361   5.354  13.995  0.3229  0.3572  0.3388
 8595TIP3    H147200   5.329   5.265  13.984  0.7279  0.5314 -2.5132
 8595TIP3    H247201   5.284   5.404  14.021 -0.0157 -0.6988  1.4252
 8596TIP3   OH247202   4.184   4.996   5.364  0.3173 -0.1209  0.4241
 8596TIP3    H147203   4.245   5.068   5.355 -1.4221  1.6597  2.4333
 8596TIP3    H247204   4.101   5.037   5.387 -0.7494 -2.7481  1.4832
 8597TIP3   OH247205   3.356   5.681  13.365 -0.6185 -0.0175 -0.1807
 8597TIP3    H147206   3.359   5.637  13.450 -0.6990  0.8478  0.2709
 8597TIP3    H247207   3.272   5.654  13.327  0.5785 -2.5455 -1.1647
 8598TIP3   OH247208   0.268   6.575  10.524 -0.2067 -0.2101  0.1097
 8598TIP3    H147209   0.315   6.538  10.598  2.2934 -0.0983 -1.3696
 8598TIP3    H247210   0.268   6.669  10.540 -3.0207 -0.4405  1.8296
 8599TIP3   OH247211   1.959   2.008  10.231 -0.2941 -0.2768  0.4728
 8599TIP3    H147212   1.923   2.073  10.170  1.0469 -1.1840 -1.3591
 8599TIP3    H247213   1.959   2.052  10.316 -0.7803  1.5800 -0.4467
 8600TIP3   OH247214   6.018   1.594   3.319  0.1383 -0.3491  0.7587
 8600TIP3    H147215   6.022   1.684   3.351 -0.6842 -0.1313  0.2581
 8600TIP3    H247216   5.925   1.576   3.310  0.3229 -0.9641  0.0389
 8601TIP3   OH247217   3.224   2.875   2.710 -0.3401  0.0864  0.7828
 8601TIP3    H147218   3.302   2.822   2.729  0.3795  0.6602 -0.4622
 8601TIP3    H247219   3.207   2.859   2.617 -1.0909  0.7647  0.8058
 8602TIP3   OH247220   3.978   2.979  11.656 -0.0166  0.0231  0.2006
 8602TIP3    H147221   3.951   2.995  11.747 -1.3865 -1.4652  0.0822
 8602TIP3    H247222   3.895   2.975  11.608  0.7472  1.7928 -1.2969
 8603TIP3   OH247223   4.543   5.785  11.036 -0.4482 -0.1204  0.0077
 8603TIP3    H147224   4.496   5.708  11.006 -0.3944  0.5323 -1.8632
 8603TIP3    H247225   4.569   5.765  11.126 -0.7507 -2.1180 -0.3295
 8604TIP3   OH247226   6.765   3.347   1.166  1.2887 -0.0447  0.1763
 8604TIP3    H147227   6.833   3.360   1.099  0.4655 -0.0442 -0.6731
 8604TIP3    H247228   6.770   3.254   1.188  1.6594 -0.0145  0.2165
 8605TIP3   OH247229   6.537   1.402  14.990 -0.4072 -0.1079  0.3972
 8605TIP3    H147230   6.631   1.421  14.997 -1.1193  3.6742  1.0128
 8605TIP3    H247231   6.519   1.342  15.062  1.4174 -0.2394  0.7536
 8606TIP3   OH247232   5.109   2.449   2.580  0.1308  0.6498 -0.2570
 8606TIP3    H147233   5.014   2.440   2.581  0.2996 -1.5614  0.0415
 8606TIP3    H247234   5.134   2.445   2.673  0.4239  2.6324 -0.2347
 8607TIP3   OH247235   5.847   3.336  13.443  0.7406 -0.3474 -1.0620
 8607TIP3    H147236   5.872   3.274  13.374  1.7804  0.7520 -1.6870
 8607TIP3    H247237   5.797   3.404  13.397 -0.0691 -0.5238 -0.4418
 8608TIP3   OH247238   6.329   5.427   6.763 -0.1323  0.5612  0.1626
 8608TIP3    H147239   6.328   5.504   6.706  1.6074  1.5103  1.3709
 8608TIP3    H247240   6.249   5.435   6.814  1.0736  2.8068  1.8260
 8609TIP3   OH247241   1.053   6.304   5.716 -0.8469  0.1138  0.0976
 8609TIP3    H147242   1.129   6.271   5.667  0.1637 -0.0410  1.7179
 8609TIP3    H247243   1.044   6.395   5.687  0.1732  0.2319  0.1154
 8610TIP3   OH247244   0.296   6.291   4.527 -0.0602 -0.1801  0.1836
 8610TIP3    H147245   0.252   6.369   4.561 -0.0860 -0.7799  1.5668
 8610TIP3    H247246   0.350   6.260   4.600 -1.0431 -2.1924  0.1040
 8611TIP3   OH247247   2.414   1.394  14.207  0.2220 -0.0007  0.3953
 8611TIP3    H147248   2.394   1.363  14.295  0.1940 -1.5011 -0.1329
 8611TIP3    H247249   2.328   1.405  14.166  0.2599 -0.0808  0.2945
 8612TIP3   OH247250   5.040   3.921  11.159  0.0130  0.0731  0.7053
 8612TIP3    H147251   5.067   3.967  11.079 -0.9350 -2.1008 -0.9141
 8612TIP3    H247252   5.085   3.837  11.154 -0.2449 -0.1850  2.3840
 8613TIP3   OH247253   1.720   6.767  16.117  0.0209 -0.3107 -0.3272
 8613TIP3    H147254   1.699   6.856  16.144  1.2698  0.1241 -0.7779
 8613TIP3    H247255   1.732   6.719  16.199  0.2711  0.1549 -0.0898
 8614TIP3   OH247256   3.671   0.995  14.192  0.2706  0.4545 -0.0544
 8614TIP3    H147257   3.596   0.936  14.195  1.4903 -1.2068 -1.4378
 8614TIP3    H247258   3.651   1.064  14.256 -0.8684 -1.7836  2.0463
 8615TIP3   OH247259   6.168   5.587   5.371  0.7517 -0.3010  0.0789
 8615TIP3    H147260   6.262   5.574   5.379  0.6816  0.3846  2.2490
 8615TIP3    H247261   6.155   5.615   5.280  2.6939  0.1222 -0.0816
 8616TIP3   OH247262   6.136   3.487  14.966 -1.4894 -0.4497 -0.2936
 8616TIP3    H147263   6.125   3.454  14.877  0.6420 -2.4244  0.1222
 8616TIP3    H247264   6.213   3.441  14.999  0.0232  3.0023  1.2743
 8617TIP3   OH247265   2.830   4.965  16.986  0.1093 -0.1535  0.3945
 8617TIP3    H147266   2.829   4.960  16.890 -0.9804 -1.3211  0.4496
 8617TIP3    H247267   2.738   4.971  17.010  0.1845 -2.6972  1.4855
 8618TIP3   OH247268   4.632   4.859   3.242  0.0868  0.2752 -0.1254
 8618TIP3    H147269   4.575   4.887   3.313  1.9469  1.1966  1.0281
 8618TIP3    H247270   4.648   4.766   3.259  0.1875  0.3909  0.4111
 8619TIP3   OH247271   1.038   2.746  15.381  0.6087  0.1577 -0.0637
 8619TIP3    H147272   1.003   2.692  15.451  1.1456 -0.5026 -0.2995
 8619TIP3    H247273   1.027   2.836  15.412  0.0352 -0.0962  0.4793
 8620TIP3   OH247274   5.538   2.029   0.226 -0.5372  0.2600 -0.0498
 8620TIP3    H147275   5.596   2.094   0.266 -1.8403  1.0305  0.6134
 8620TIP3    H247276   5.542   1.954   0.284 -0.3980  0.4039  0.1292
 8621TIP3   OH247277   3.010   4.447  16.486 -0.0695 -0.1996  1.0534
 8621TIP3    H147278   2.944   4.437  16.555 -0.3582  0.0486  0.8185
 8621TIP3    H247279   2.985   4.528  16.442 -0.2722 -0.6989  0.2378
 8622TIP3   OH247280   6.450   2.879  11.518 -0.0540  0.2079 -0.1028
 8622TIP3    H147281   6.394   2.861  11.443 -0.5686 -1.2908  0.6110
 8622TIP3    H247282   6.530   2.830  11.500  0.3498  0.9377 -0.3030
 8623TIP3   OH247283   3.611   6.360  12.222 -0.0583 -0.5365  0.3348
 8623TIP3    H147284   3.687   6.416  12.233  0.3669 -1.1196  0.3876
 8623TIP3    H247285   3.634   6.301  12.150 -0.8358 -0.0870 -0.2996
 8624TIP3   OH247286   1.145   2.469   5.145  0.2476 -0.9068 -0.6595
 8624TIP3    H147287   1.223   2.470   5.091  1.4783 -4.4813  0.8752
 8624TIP3    H247288   1.174   2.500   5.231 -0.3377 -0.9778 -0.4295
 8625TIP3   OH247289   3.579   0.986  11.375  0.2788  0.2279  0.4743
 8625TIP3    H147290   3.564   1.078  11.355 -3.1954 -0.1694  0.9304
 8625TIP3    H247291   3.590   0.945  11.289 -1.3765  0.5786  0.0834
 8626TIP3   OH247292   2.780   5.243   2.494 -0.2339  0.1767 -0.0207
 8626TIP3    H147293   2.708   5.297   2.462 -1.2366 -0.4588  1.1115
 8626TIP3    H247294   2.845   5.306   2.526 -0.3512  0.7521 -0.9026
 8627TIP3   OH247295   6.473   6.454  12.873 -0.4850 -0.1036  0.0907
 8627TIP3    H147296   6.530   6.529  12.855 -0.6235 -0.1391 -0.4998
 8627TIP3    H247297   6.395   6.492  12.913 -0.8376  0.1377 -0.8237
 8628TIP3   OH247298   2.477   0.960   2.562  0.5552 -0.6393 -0.6059
 8628TIP3    H147299   2.385   0.964   2.588  1.1387  0.1237  1.4804
 8628TIP3    H247300   2.481   0.888   2.499 -1.3623 -1.0502 -0.2994
 8629TIP3   OH247301   0.965   6.393   4.947  0.0103 -0.0290 -0.1155
 8629TIP3    H147302   1.035   6.454   4.922  1.0629 -1.0671  0.2617
 8629TIP3    H247303   1.001   6.306   4.927 -0.7164 -0.6376  1.1902
 8630TIP3   OH247304   3.220   0.365   4.677 -0.2539 -0.3918  0.7703
 8630TIP3    H147305   3.235   0.324   4.762  0.8870 -0.0465  0.7414
 8630TIP3    H247306   3.197   0.292   4.619  0.1196 -0.7751  1.1030
 8631TIP3   OH247307   3.568   5.796  17.056 -0.1250  0.2089 -0.5002
 8631TIP3    H147308   3.653   5.754  17.045  1.6641  3.0496  1.6028
 8631TIP3    H247309   3.516   5.734  17.107  1.5852 -0.5195  0.3886
 8632TIP3   OH247310   4.392   0.902   3.360 -0.2524 -0.6717  0.4709
 8632TIP3    H147311   4.329   0.844   3.317 -0.1459 -0.5517  0.1534
 8632TIP3    H247312   4.359   0.910   3.450 -2.5545  2.0545 -0.5685
 8633TIP3   OH247313   4.080   3.648  12.936  0.2008  0.4239  0.2135
 8633TIP3    H147314   4.151   3.691  12.889 -1.3895  2.1493 -0.7297
 8633TIP3    H247315   4.056   3.573  12.881  0.7143  0.3614  0.0766
 8634TIP3   OH247316   0.664   3.020  15.320 -0.4666  0.5892 -0.0492
 8634TIP3    H147317   0.608   3.028  15.397  0.0474 -1.3937  0.5380
 8634TIP3    H247318   0.630   3.087  15.260 -1.2479  1.7477  1.6407
 8635TIP3   OH247319   4.757   6.552  11.330 -0.0306 -0.4267  0.0438
 8635TIP3    H147320   4.778   6.459  11.340 -1.5845 -0.7599  0.3629
 8635TIP3    H247321   4.666   6.552  11.297  0.3681  0.9469 -1.1050
 8636TIP3   OH247322   0.804   4.877   2.330  0.3565  0.4380  0.3167
 8636TIP3    H147323   0.797   4.862   2.424 -0.5007 -1.7902 -0.0648
 8636TIP3    H247324   0.718   4.909   2.304 -0.2189 -1.4158 -0.1082
 8637TIP3   OH247325   6.576   6.418  13.715 -0.1573  0.4996 -0.8578
 8637TIP3    H147326   6.592   6.331  13.678 -0.5373  0.2132 -0.3472
 8637TIP3    H247327   6.569   6.475  13.638 -1.0472 -0.1124 -1.2347
 8638TIP3   OH247328   1.724   3.654   3.237 -0.4227  0.1992 -0.3773
 8638TIP3    H147329   1.719   3.572   3.285  1.7059 -0.9130 -1.9909
 8638TIP3    H247330   1.807   3.694   3.266 -0.1244  0.4805 -1.6001
 8639TIP3   OH247331   3.071   4.672   4.638 -0.0420 -0.1001 -0.1077
 8639TIP3    H147332   3.102   4.582   4.629 -1.8642 -0.5840 -1.9926
 8639TIP3    H247333   2.977   4.663   4.655  0.4251  1.3509  3.7085
 8640TIP3   OH247334   1.719   4.019  11.133  0.8214  0.0894 -0.1887
 8640TIP3    H147335   1.749   4.088  11.192 -1.2432  1.4732 -0.6993
 8640TIP3    H247336   1.758   4.041  11.049  0.2088  0.6196 -0.3385
 8641TIP3   OH247337   3.231   5.579   1.000  0.6152 -0.4926  0.0740
 8641TIP3    H147338   3.278   5.535   0.929 -2.3647  0.2687 -2.4940
 8641TIP3    H247339   3.188   5.507   1.048  1.3984 -0.8938  0.1803
 8642TIP3   OH247340   2.505   1.590   3.341  0.3029 -0.2032  0.2389
 8642TIP3    H147341   2.509   1.663   3.403 -1.5884 -0.3253  0.5257
 8642TIP3    H247342   2.520   1.512   3.394  0.8346 -0.1481  0.1753
 8643TIP3   OH247343   1.552   1.840   6.492 -0.4228  0.1684 -0.2025
 8643TIP3    H147344   1.558   1.900   6.566  2.2789  0.6832 -0.7700
 8643TIP3    H247345   1.611   1.877   6.426 -0.8656 -1.6066 -1.6477
 8644TIP3   OH247346   6.195   3.971   3.786 -0.3426  0.9628  0.4589
 8644TIP3    H147347   6.197   3.922   3.704 -2.0584 -0.7935  1.4475
 8644TIP3    H247348   6.270   3.939   3.835  0.4465  1.7197 -0.2294
 8645TIP3   OH247349   2.992   4.371  13.481 -0.2235 -0.3904 -0.3467
 8645TIP3    H147350   2.943   4.301  13.525 -0.5300  0.4931  0.7498
 8645TIP3    H247351   3.080   4.335  13.470  0.0230 -0.4292  1.5261
 8646TIP3   OH247352   5.299   1.972  11.330  0.0567  0.3291  0.0324
 8646TIP3    H147353   5.352   2.035  11.281 -0.1962  0.1698 -0.4476
 8646TIP3    H247354   5.212   2.012  11.335 -0.4685 -0.6167 -1.4896
 8647TIP3   OH247355   0.035   5.535   6.391 -0.4119  0.3874  1.0596
 8647TIP3    H147356   0.104   5.549   6.326 -1.0087  0.3722  0.4228
 8647TIP3    H247357   0.078   5.551   6.475  0.0471  1.6796  0.5958
 8648TIP3   OH247358   5.613   4.291  15.181 -0.4801 -0.9363  0.0315
 8648TIP3    H147359   5.568   4.372  15.158 -0.3085 -1.1735 -1.1608
 8648TIP3    H247360   5.551   4.244  15.237 -0.2150  0.4210  1.5112
 8649TIP3   OH247361   1.784   3.196  15.175  0.5345 -0.0487  0.1533
 8649TIP3    H147362   1.779   3.134  15.102  0.6857  0.3924 -0.2338
 8649TIP3    H247363   1.809   3.279  15.134 -0.7931  0.5411  0.5017
 8650TIP3   OH247364   0.545   5.470  15.244  0.1465  0.3549  0.0188
 8650TIP3    H147365   0.549   5.558  15.207 -0.3529  0.0611 -0.7364
 8650TIP3    H247366   0.518   5.414  15.172  0.9879 -0.5082  0.3670
 8651TIP3   OH247367   6.331   1.239   6.169 -0.1881 -0.2246  0.5570
 8651TIP3    H147368   6.403   1.294   6.201 -0.0400  0.3401 -0.7321
 8651TIP3    H247369   6.371   1.184   6.102 -1.2174  0.9784 -1.0754
 8652TIP3   OH247370   0.810   3.614   2.598  0.2362  0.4739  0.2934
 8652TIP3    H147371   0.867   3.642   2.670 -2.0006  1.1896  1.8055
 8652TIP3    H247372   0.798   3.520   2.612  1.7524  0.1180 -0.5776
 8653TIP3   OH247373   4.148   2.166  13.151  0.5286  0.6556  0.3456
 8653TIP3    H147374   4.111   2.247  13.116  1.9483  0.5145 -1.5524
 8653TIP3    H247375   4.241   2.185  13.163  0.6880 -0.3807  0.7995
 8654TIP3   OH247376   4.806   5.747  14.615 -0.8299 -0.1850  0.4544
 8654TIP3    H147377   4.772   5.748  14.526 -0.8965  0.6256  0.4855
 8654TIP3    H247378   4.876   5.682  14.614 -2.3690 -1.8958  0.3880
 8655TIP3   OH247379   2.795   0.849  11.765 -0.3924 -0.3120  0.0101
 8655TIP3    H147380   2.729   0.873  11.701 -0.0784 -0.3579 -0.3303
 8655TIP3    H247381   2.827   0.932  11.800  0.1569 -0.2600 -0.6213
 8656TIP3   OH247382   5.184   4.047   4.851  0.3670  0.8562  0.2547
 8656TIP3    H147383   5.194   3.996   4.931  0.0385  1.0560  0.4205
 8656TIP3    H247384   5.101   4.019   4.814  0.0495  1.4794  0.4939
 8657TIP3   OH247385   4.105   3.959  14.880  0.4787 -0.5540  0.2476
 8657TIP3    H147386   4.058   4.035  14.916  0.7128 -0.2604 -0.0651
 8657TIP3    H247387   4.044   3.922  14.815  0.9133  0.1865 -0.5987
 8658TIP3   OH247388   5.920   4.403   1.820 -0.3171  0.0056  0.3032
 8658TIP3    H147389   5.975   4.326   1.835 -1.6181 -1.3555 -1.6852
 8658TIP3    H247390   5.926   4.419   1.726 -0.5449  1.9860  0.6026
 8659TIP3   OH247391   0.717   6.747   5.775  0.0994  0.8001  0.2438
 8659TIP3    H147392   0.705   6.705   5.860  0.0090  1.2131  0.4365
 8659TIP3    H247393   0.808   6.730   5.752 -0.2070 -0.3820 -0.1598
 8660TIP3   OH247394   2.293   4.288   2.677 -0.9524  0.7376  0.0424
 8660TIP3    H147395   2.377   4.247   2.653 -1.0537  0.5950 -0.0745
 8660TIP3    H247396   2.315   4.349   2.747 -1.1913 -1.3368  1.9737
 8661TIP3   OH247397   5.654   3.329  14.947  0.5211  0.3171 -0.0356
 8661TIP3    H147398   5.571   3.317  14.993  0.3896  0.5862 -0.2024
 8661TIP3    H247399   5.681   3.419  14.968  1.4931 -0.2439  1.1892
 8662TIP3   OH247400   4.186   2.686  12.970  0.0701  0.4120  0.9046
 8662TIP3    H147401   4.174   2.637  12.889 -0.0812  0.0106  1.1672
 8662TIP3    H247402   4.220   2.771  12.942  1.8198 -0.3909  0.5587
 8663TIP3   OH247403   0.523   0.875   3.470  0.1888 -0.0672 -0.8893
 8663TIP3    H147404   0.595   0.925   3.430 -0.0200  0.9386 -0.0320
 8663TIP3    H247405   0.566   0.805   3.519  0.5672  0.2521 -0.7600
 8664TIP3   OH247406   2.203   1.393  13.393 -0.7781  0.0163  0.2550
 8664TIP3    H147407   2.155   1.415  13.314 -1.0942  0.6353  0.6154
 8664TIP3    H247408   2.163   1.311  13.424 -0.3017 -0.5065 -0.5090
 8665TIP3   OH247409   0.465   5.402   2.243 -0.2460 -0.1476  0.4638
 8665TIP3    H147410   0.386   5.386   2.193 -0.0238 -0.3154  0.1635
 8665TIP3    H247411   0.505   5.316   2.253 -0.6513 -0.2167  1.5362
 8666TIP3   OH247412   2.234   4.525  13.666  0.0320  0.0450  0.1955
 8666TIP3    H147413   2.315   4.503  13.621 -0.7980 -0.5923 -1.0086
 8666TIP3    H247414   2.251   4.505  13.758  1.4836  0.6255  0.0659
 8667TIP3   OH247415   4.937   3.660  15.539  0.1345  0.2130  0.3649
 8667TIP3    H147416   4.853   3.625  15.511  0.7295 -0.4572 -0.6273
 8667TIP3    H247417   5.002   3.610  15.489  1.0200  2.4101 -0.7561
 8668TIP3   OH247418   1.130   2.981  14.674  0.3371  0.0248 -0.9764
 8668TIP3    H147419   1.093   3.008  14.590  0.4930 -0.1241 -1.0935
 8668TIP3    H247420   1.225   2.982  14.661  0.4625  2.3364 -0.0897
 8669TIP3   OH247421   0.613   2.355   2.483 -0.0850 -0.3703 -0.1579
 8669TIP3    H147422   0.519   2.370   2.479  0.4387  3.3504 -0.7455
 8669TIP3    H247423   0.628   2.279   2.428 -2.3869  1.0354 -2.8542
 8670TIP3   OH247424   6.741   3.126  11.437 -0.1885  0.0966 -0.3268
 8670TIP3    H147425   6.699   3.068  11.501  3.0963 -2.5507 -0.4635
 8670TIP3    H247426   6.759   3.207  11.486 -1.1049 -0.4884  1.0050
 8671TIP3   OH247427   1.744   2.795  14.070 -0.2756 -0.5355  0.2757
 8671TIP3    H147428   1.833   2.768  14.049 -0.2710  1.0350 -1.8631
 8671TIP3    H247429   1.748   2.827  14.160  1.5883  0.6359 -0.2095
 8672TIP3   OH247430   2.777   4.171   1.406 -0.0989  0.4658  0.0033
 8672TIP3    H147431   2.747   4.228   1.477  0.3151  0.7492 -0.0499
 8672TIP3    H247432   2.697   4.147   1.359 -0.1692  1.9282 -0.6684
 8673TIP3   OH247433   2.137   3.290  12.115  0.1122  0.2243 -0.2495
 8673TIP3    H147434   2.118   3.206  12.073  0.3381 -0.8773  1.7977
 8673TIP3    H247435   2.116   3.355  12.049 -0.7016 -1.4193 -1.6401
 8674TIP3   OH247436   6.158   3.393   2.916 -0.2422  0.2024  0.4149
 8674TIP3    H147437   6.156   3.321   2.979 -3.6220  2.5385  3.1646
 8674TIP3    H247438   6.245   3.432   2.925  0.4894 -1.5745  1.1652
 8675TIP3   OH247439   4.828   2.464  14.990  0.2161 -0.0006  0.1402
 8675TIP3    H147440   4.743   2.492  14.955 -0.1690 -0.8213  0.3923
 8675TIP3    H247441   4.884   2.454  14.913 -0.0795  0.0023 -0.0748
 8676TIP3   OH247442   0.355   2.078   2.891 -0.3715  0.3100  0.3952
 8676TIP3    H147443   0.305   2.153   2.925 -1.0653  0.1012 -0.1625
 8676TIP3    H247444   0.300   2.002   2.908  0.1572 -0.0253  0.5988
 8677TIP3   OH247445   5.562   2.979  16.540  0.3931  0.6576 -0.2310
 8677TIP3    H147446   5.639   2.923  16.528 -0.2346 -0.0563 -1.0584
 8677TIP3    H247447   5.533   2.963  16.629  0.7735  0.3680 -0.1610
 8678TIP3   OH247448   3.750   1.310   1.946 -0.0483 -0.1047 -0.2873
 8678TIP3    H147449   3.703   1.389   1.973  2.1474  1.0870  0.1572
 8678TIP3    H247450   3.683   1.241   1.947 -2.2071  1.8933 -1.5841
 8679TIP3   OH247451   2.024   4.642  15.917  0.6303  0.5231  1.2181
 8679TIP3    H147452   2.018   4.636  15.822  2.1911  0.0367  1.1351
 8679TIP3    H247453   2.003   4.734  15.936 -2.0734  0.0687  0.6417
 8680TIP3   OH247454   0.674   0.601   3.785 -0.0296  0.0604 -0.6803
 8680TIP3    H147455   0.613   0.537   3.748 -1.8008  1.3021 -0.0218
 8680TIP3    H247456   0.715   0.642   3.709  0.1658 -0.9655 -1.1286
 8681TIP3   OH247457   4.376   4.865  13.409  0.7823  0.2372 -0.0083
 8681TIP3    H147458   4.447   4.891  13.351 -0.1447  3.8298  0.3800
 8681TIP3    H247459   4.297   4.898  13.367 -0.1727  0.4933  1.9168
 8682TIP3   OH247460   5.649   5.098  14.230  0.5909  0.3874  0.6727
 8682TIP3    H147461   5.732   5.062  14.199  0.0805 -0.2641  0.0625
 8682TIP3    H247462   5.624   5.161  14.163 -0.1036 -0.4283  0.1622
 8683TIP3   OH247463   4.303   6.467   2.459  0.6210 -0.0557 -0.1120
 8683TIP3    H147464   4.211   6.479   2.435 -0.1636 -2.1899  1.6292
 8683TIP3    H247465   4.306   6.380   2.500  3.4714 -0.1359 -0.3894
 8684TIP3   OH247466   6.787   0.447   0.969 -0.0998  0.5929 -0.2553
 8684TIP3    H147467   6.873   0.429   1.006  0.7467  0.7945 -2.1071
 8684TIP3    H247468   6.775   0.541   0.979  0.1090  0.6407 -0.4622
 8685TIP3   OH247469   0.218   4.914  16.522 -0.3031  0.5930 -0.2602
 8685TIP3    H147470   0.188   4.823  16.514 -0.6646  0.4415  2.3976
 8685TIP3    H247471   0.138   4.964  16.540 -0.1312  1.4982 -1.9119
 8686TIP3   OH247472   0.475   4.339   1.460  0.1250 -0.1475  0.3940
 8686TIP3    H147473   0.485   4.363   1.367  1.3401 -1.3331  0.2130
 8686TIP3    H247474   0.526   4.405   1.507 -0.6318  0.5583  0.2449
 8687TIP3   OH247475   1.328   3.879   2.537 -0.2364 -0.4824 -0.7506
 8687TIP3    H147476   1.360   3.956   2.491 -1.2382 -0.0592 -0.7462
 8687TIP3    H247477   1.398   3.858   2.600  0.8671 -0.7139 -2.0399
 8688TIP3   OH247478   0.579   0.014   2.732 -0.4070 -0.2714 -0.6217
 8688TIP3    H147479   0.518   0.082   2.703 -1.4942 -0.4128  1.2274
 8688TIP3    H247480   0.537  -0.068   2.707 -0.3996 -0.3250 -0.4628
 8689TIP3   OH247481   4.297   5.661  12.244  0.0189  0.0285 -0.0454
 8689TIP3    H147482   4.346   5.721  12.188  0.7455 -1.2787 -0.8163
 8689TIP3    H247483   4.230   5.717  12.286  1.7264  1.6841  0.5366
 8690TIP3   OH247484   4.259   4.561   5.046 -0.1778 -0.0008 -0.2783
 8690TIP3    H147485   4.255   4.645   5.093  1.4905  0.3714 -0.7378
 8690TIP3    H247486   4.189   4.567   4.980 -1.8378 -0.0986  1.4457
 8691TIP3   OH247487   6.421   0.472   5.906 -0.4870 -0.1895  0.1623
 8691TIP3    H147488   6.367   0.469   5.985 -0.4351  0.2575  0.2125
 8691TIP3    H247489   6.399   0.392   5.859  0.3380 -1.0498  1.2061
 8692TIP3   OH247490   0.654   3.019  13.606 -0.6504 -0.2870  0.2579
 8692TIP3    H147491   0.736   2.970  13.614 -0.6070 -0.3563 -0.5604
 8692TIP3    H247492   0.675   3.094  13.551 -1.6094 -1.4364 -1.7342
 8693TIP3   OH247493   1.811   3.591  16.382  0.5831  0.5717 -0.0403
 8693TIP3    H147494   1.774   3.503  16.387  1.3714  0.2148 -0.4154
 8693TIP3    H247495   1.779   3.634  16.461 -2.1600  0.8889 -1.2437
 8694TIP3   OH247496   3.804   6.059  11.580  0.3228 -0.3407  0.2717
 8694TIP3    H147497   3.754   6.127  11.625  1.5146  0.4813  0.3880
 8694TIP3    H247498   3.860   6.107  11.519  0.6167 -1.2723 -0.1965
 8695TIP3   OH247499   5.384   6.393  10.917  0.1233 -0.0783 -0.7250
 8695TIP3    H147500   5.307   6.420  10.968  0.0757 -0.9934 -0.3069
 8695TIP3    H247501   5.447   6.463  10.931 -0.7516  0.8561 -1.3465
 8696TIP3   OH247502   0.063   2.668  11.619 -0.3272  0.0103  0.0679
 8696TIP3    H147503   0.137   2.634  11.669  0.6476  2.2226  0.1430
 8696TIP3    H247504   0.002   2.593  11.614  0.9781 -1.2108  1.7495
 8697TIP3   OH247505   1.692   2.884  14.392 -0.1940 -0.0036  0.0893
 8697TIP3    H147506   1.783   2.872  14.422  0.1536  1.6948 -0.2173
 8697TIP3    H247507   1.653   2.942  14.458 -1.2278 -1.1671  0.5134
 8698TIP3   OH247508   4.885   2.093   3.015  0.4576 -0.1347 -0.4739
 8698TIP3    H147509   4.793   2.113   2.997  0.1830 -0.9877 -0.0422
 8698TIP3    H247510   4.931   2.176   3.001 -0.3235  0.2096 -1.0517
 8699TIP3   OH247511   0.222   0.109  13.715 -0.2867  0.7065  0.0957
 8699TIP3    H147512   0.239   0.097  13.809  2.6161 -1.7838 -0.7062
 8699TIP3    H247513   0.238   0.202  13.700  0.7583  0.8172  1.7595
 8700TIP3   OH247514   2.726   0.781   0.751  0.1127  0.1740 -0.0302
 8700TIP3    H147515   2.767   0.856   0.794  2.4028  0.3209 -2.3557
 8700TIP3    H247516   2.671   0.819   0.684 -0.2918 -0.1761  0.1004
 8701TIP3   OH247517   5.386   2.649  14.235  0.2415  0.2933  0.0408
 8701TIP3    H147518   5.375   2.743  14.230  1.7694  0.3917 -1.7305
 8701TIP3    H247519   5.476   2.637  14.265  0.9102 -0.6074 -2.2571
 8702TIP3   OH247520   1.148   1.880   3.005 -0.0792 -0.5806  0.3325
 8702TIP3    H147521   1.144   1.787   2.985 -1.5492 -0.2658 -0.9066
 8702TIP3    H247522   1.065   1.899   3.049 -0.8737  0.6307 -1.6244
 8703TIP3   OH247523   4.045   1.632   3.906 -0.1017 -0.0634 -0.6440
 8703TIP3    H147524   4.081   1.685   3.977 -0.3986 -1.2371  0.3987
 8703TIP3    H247525   4.121   1.604   3.856  0.0700  1.2018 -1.1048
 8704TIP3   OH247526   1.846   0.890   1.658 -0.2148 -0.5479  0.2947
 8704TIP3    H147527   1.909   0.875   1.587 -1.1011  1.4225 -0.9430
 8704TIP3    H247528   1.900   0.905   1.735  0.7836 -1.3719 -0.2279
 8705TIP3   OH247529   3.524   2.895   3.470 -0.3903 -0.0379  0.3991
 8705TIP3    H147530   3.491   2.853   3.390 -0.6425  0.7876  0.0634
 8705TIP3    H247531   3.557   2.980   3.440 -1.5107  0.7498  1.3396
 8706TIP3   OH247532   2.069   5.897  14.812 -0.4937  0.8613  0.6069
 8706TIP3    H147533   2.117   5.926  14.734  0.2212  0.1603  0.7797
 8706TIP3    H247534   2.052   5.804  14.796 -0.2284  0.6856  1.3521
 8707TIP3   OH247535   5.120   5.344  15.416 -0.1084  0.4291 -0.2713
 8707TIP3    H147536   5.068   5.324  15.494  2.0544 -0.4415  0.9806
 8707TIP3    H247537   5.151   5.260  15.384 -0.4436  0.8360 -1.7138
 8708TIP3   OH247538   3.177   1.793   1.932 -0.3458 -0.7625 -0.0205
 8708TIP3    H147539   3.197   1.864   1.871 -1.9035 -0.2210  0.0736
 8708TIP3    H247540   3.122   1.733   1.882 -0.5646 -0.9680  0.4591
 8709TIP3   OH247541   3.883   1.446   4.541  0.0974  0.1439 -0.0074
 8709TIP3    H147542   3.869   1.524   4.594 -2.2415 -0.4048  0.2434
 8709TIP3    H247543   3.966   1.461   4.497  0.0887  2.3966  0.6969
 8710TIP3   OH247544   3.976   6.720   2.475  0.0823 -0.0447  0.4860
 8710TIP3    H147545   4.003   6.637   2.435 -2.7249 -1.2708  1.0286
 8710TIP3    H247546   3.965   6.779   2.400  1.6579 -0.2511  0.0606
 8711TIP3   OH247547   3.310   3.209   1.370 -0.2013  0.2307 -0.1700
 8711TIP3    H147548   3.293   3.266   1.295  0.8704 -0.0307 -0.6163
 8711TIP3    H247549   3.272   3.125   1.345 -0.4589  0.3319 -0.1256
 8712TIP3   OH247550   5.158   1.256  13.261  0.2215 -0.5587 -0.2725
 8712TIP3    H147551   5.074   1.277  13.222 -0.1408 -1.1586  0.1836
 8712TIP3    H247552   5.143   1.263  13.355  0.8556 -0.0053 -0.2083
 8713TIP3   OH247553   6.435   0.969  14.274 -0.0228 -0.2935 -0.3812
 8713TIP3    H147554   6.371   1.025  14.318 -1.2217 -1.6737 -0.3218
 8713TIP3    H247555   6.460   1.019  14.196  0.5020  1.2161  0.7298
 8714TIP3   OH247556   0.742   3.323  11.454  0.5764  0.8939  0.0479
 8714TIP3    H147557   0.690   3.362  11.384  1.9493  1.2399 -0.7913
 8714TIP3    H247558   0.764   3.236  11.421  1.1681  1.0306  0.0886
 8715TIP3   OH247559   2.084   5.343   0.114  0.0361 -0.4973  0.3711
 8715TIP3    H147560   2.099   5.289   0.191  2.0225 -1.1480 -0.4489
 8715TIP3    H247561   2.005   5.307   0.074 -0.1156 -1.1419  1.2436
 8716TIP3   OH247562   1.195   6.439  13.862  0.4592  0.3544  0.1325
 8716TIP3    H147563   1.168   6.529  13.841  2.0604  1.2058  1.6245
 8716TIP3    H247564   1.288   6.447  13.884  1.2593 -2.0721 -2.1028
 8717TIP3   OH247565   3.965   2.561  13.684  0.1917  0.1949  0.1806
 8717TIP3    H147566   3.951   2.546  13.777 -1.3405  0.8125  0.0694
 8717TIP3    H247567   4.009   2.646  13.680 -1.7299  1.2134  0.2491
 8718TIP3   OH247568   5.101   2.974  13.077  0.4337  0.2847  0.0418
 8718TIP3    H147569   5.192   2.996  13.056  0.6731 -0.2574  0.5136
 8718TIP3    H247570   5.061   2.956  12.992  0.9297 -0.0969 -0.1130
 8719TIP3   OH247571   1.238   3.705   3.432 -0.5090  0.0829  0.5210
 8719TIP3    H147572   1.260   3.619   3.397 -0.1858  1.6796 -3.4705
 8719TIP3    H247573   1.142   3.707   3.433 -0.5187 -0.1067  0.0723
 8720TIP3   OH247574   2.166   0.810   5.664  0.2902  0.2145 -0.3190
 8720TIP3    H147575   2.097   0.810   5.597  1.0000 -1.6295 -1.0586
 8720TIP3    H247576   2.138   0.878   5.726 -2.3305 -0.6397 -0.4867
 8721TIP3   OH247577   4.076   6.373   4.698  0.4547 -0.0771  0.3501
 8721TIP3    H147578   4.109   6.459   4.673  1.8395 -0.4304  0.9008
 8721TIP3    H247579   4.061   6.328   4.614 -0.4983  0.7734  0.0612
 8722TIP3   OH247580   0.856   4.873  14.976  0.3130 -0.1190  0.1946
 8722TIP3    H147581   0.815   4.904  14.895  0.0946 -0.9602 -0.0313
 8722TIP3    H247582   0.901   4.949  15.011 -0.2333  0.4531 -0.3215
 8723TIP3   OH247583   0.445   4.543  10.289  0.1618  0.3373 -0.1546
 8723TIP3    H147584   0.425   4.508  10.375  0.5492 -0.5771 -0.4317
 8723TIP3    H247585   0.479   4.469  10.239  1.3874  1.1838 -0.6196
 8724TIP3   OH247586   4.252   2.565  10.892 -0.0235  0.0294  0.1894
 8724TIP3    H147587   4.186   2.633  10.907 -0.8080 -0.2731 -1.8178
 8724TIP3    H247588   4.278   2.576  10.801  2.4470 -0.1171  0.8219
 8725TIP3   OH247589   5.366   1.980   1.977  0.0625 -0.0779 -0.0714
 8725TIP3    H147590   5.396   2.070   1.967  0.2857 -0.0459  0.8375
 8725TIP3    H247591   5.447   1.930   1.992 -0.3078  0.0167  2.4543
 8726TIP3   OH247592   4.431   5.250   1.688 -0.3529  0.7273 -0.0014
 8726TIP3    H147593   4.338   5.247   1.709 -0.3152 -1.2527 -0.0097
 8726TIP3    H247594   4.461   5.160   1.702  1.4384  1.2320 -0.5309
 8727TIP3   OH247595   6.077   0.188   5.022  0.4189 -0.4161 -0.5118
 8727TIP3    H147596   5.994   0.233   5.032  0.9377  0.6670 -1.0179
 8727TIP3    H247597   6.143   0.252   5.049  1.2912 -0.1806 -3.0349
 8728TIP3   OH247598   6.350   2.797   4.148 -0.1317 -0.0238  0.4089
 8728TIP3    H147599   6.271   2.833   4.186 -0.5978 -0.0282 -0.5350
 8728TIP3    H247600   6.398   2.873   4.114 -1.7605 -0.3330 -2.8003
 8729TIP3   OH247601   3.670   6.698   6.581  0.1908 -0.4870  0.0224
 8729TIP3    H147602   3.707   6.614   6.608  0.3432 -0.9455 -1.5679
 8729TIP3    H247603   3.662   6.691   6.486  1.5449  1.8368 -0.2944
 8730TIP3   OH247604   6.771   2.373  12.550  0.2203  0.9059  0.3757
 8730TIP3    H147605   6.697   2.412  12.596 -0.9842 -2.3540  1.3377
 8730TIP3    H247606   6.733   2.338  12.469  0.8435 -0.1090  0.5073
 8731TIP3   OH247607   0.394   4.837   0.063 -0.2414  0.0443 -0.0484
 8731TIP3    H147608   0.371   4.744   0.068  0.1653 -0.1764 -1.9073
 8731TIP3    H247609   0.339   4.879   0.129  0.3082 -1.6395  1.5389
 8732TIP3   OH247610   5.687   6.662  13.663  0.8933 -0.0052 -0.3801
 8732TIP3    H147611   5.775   6.686  13.632  1.2019 -1.3418 -0.5745
 8732TIP3    H247612   5.680   6.568  13.644 -1.1184  0.3811 -1.6567
 8733TIP3   OH247613   0.258   5.381  14.903 -0.1160 -0.3553  0.1802
 8733TIP3    H147614   0.179   5.402  14.953 -0.7207 -0.9808 -0.4950
 8733TIP3    H247615   0.306   5.319  14.958  0.6504  1.1509  1.2557
 8734TIP3   OH247616   0.570   4.044  15.644  0.1753  0.4095 -0.3131
 8734TIP3    H147617   0.510   4.040  15.719  0.0032 -0.6394 -0.4988
 8734TIP3    H247618   0.643   4.096  15.676 -0.3179  0.7461  0.2914
 8735TIP3   OH247619   3.075   1.383  16.710 -0.0361 -0.2248  0.6133
 8735TIP3    H147620   3.022   1.303  16.712 -1.3640  0.6297  0.3557
 8735TIP3    H247621   3.137   1.373  16.783 -0.1511 -1.5104  0.5409
 8736TIP3   OH247622   6.315   0.471   0.064 -0.0588  0.2545 -0.1418
 8736TIP3    H147623   6.373   0.533   0.108  0.8962 -0.3555 -0.5296
 8736TIP3    H247624   6.228   0.510   0.073  0.4945  1.5292 -0.1768
 8737TIP3   OH247625   2.816   2.142   0.859 -0.7752 -0.4738  0.6875
 8737TIP3    H147626   2.809   2.190   0.941  0.7569  0.0245  0.5445
 8737TIP3    H247627   2.893   2.180   0.815 -1.6418 -0.6405 -1.0349
 8738TIP3   OH247628   1.135   1.121   2.124  0.3142 -0.2313  0.3067
 8738TIP3    H147629   1.056   1.113   2.070 -0.9632  0.1568  2.0792
 8738TIP3    H247630   1.152   1.216   2.129  1.3051 -0.3461 -0.6261
 8739TIP3   OH247631   2.593   1.733   2.111  0.4970  0.3570 -0.4712
 8739TIP3    H147632   2.498   1.739   2.095  0.2890  1.1368  0.9772
 8739TIP3    H247633   2.633   1.751   2.026 -0.6532  0.2364 -1.0469
 8740TIP3   OH247634   6.230   4.781   2.846  0.2095  0.4998  0.4248
 8740TIP3    H147635   6.224   4.805   2.939 -0.7157  1.0968  0.2193
 8740TIP3    H247636   6.211   4.687   2.845  1.2963  0.2587  0.9510
 8741TIP3   OH247637   3.304   1.814  16.472 -0.1415  0.1482 -0.0503
 8741TIP3    H147638   3.284   1.907  16.483 -0.4697 -0.0971  1.6124
 8741TIP3    H247639   3.398   1.808  16.491  0.0784  0.2631 -1.0575
 8742TIP3   OH247640   6.731   1.451   2.221  0.3106 -0.9520  0.1250
 8742TIP3    H147641   6.755   1.515   2.153  1.4909 -2.1092 -0.5718
 8742TIP3    H247642   6.636   1.447   2.219  0.0878  2.0708  1.3639
 8743TIP3   OH247643   0.010   2.992  12.383 -0.5173 -0.2022 -0.1315
 8743TIP3    H147644  -0.056   2.987  12.315 -0.1391 -0.0736 -0.5118
 8743TIP3    H247645   0.056   3.075  12.366 -1.1211  0.3671  0.9245
 8744TIP3   OH247646   3.722   1.664  16.879 -0.0840 -0.4108  0.0489
 8744TIP3    H147647   3.658   1.595  16.901 -0.6081 -0.3862 -1.3414
 8744TIP3    H247648   3.743   1.705  16.963 -1.0549 -1.1638  0.6704
 8745TIP3   OH247649   6.506   0.555   1.221  0.2867  0.1272  0.1714
 8745TIP3    H147650   6.568   0.483   1.220  0.1063 -0.0282  0.2454
 8745TIP3    H247651   6.548   0.622   1.275 -0.2770 -0.5728  1.4986
 8746TIP3   OH247652   4.350   6.579  15.236  0.2086  0.0186  0.3843
 8746TIP3    H147653   4.265   6.535  15.228  1.4026 -2.2536 -0.1851
 8746TIP3    H247654   4.346   6.650  15.172 -0.6787 -1.0312 -0.7606
 8747TIP3   OH247655   3.127   5.732  16.076 -0.4893 -0.1998 -0.4836
 8747TIP3    H147656   3.079   5.671  16.021 -0.1672 -1.0424  0.1684
 8747TIP3    H247657   3.143   5.684  16.157 -0.0464  0.6697 -0.0520
 8748TIP3   OH247658   0.462   1.569   1.188  0.3302  0.0339  0.1067
 8748TIP3    H147659   0.522   1.497   1.169  0.2947 -0.6096  2.2556
 8748TIP3    H247660   0.380   1.543   1.147  0.6661 -0.5585 -0.1994
 8749TIP3   OH247661   1.481   1.040  14.201  0.1620  0.0839  0.4487
 8749TIP3    H147662   1.553   0.985  14.168  0.0651  1.0141 -1.4099
 8749TIP3    H247663   1.496   1.125  14.161 -1.6730  0.4383  0.4714
 8750TIP3   OH247664   3.019   0.013   0.962 -0.0785 -0.4881 -0.0687
 8750TIP3    H147665   3.010   0.073   1.035 -0.1933  0.8523 -1.1537
 8750TIP3    H247666   2.953  -0.055   0.977  0.3833 -0.6167  1.4170
 8751TIP3   OH247667   6.696   1.326  16.173  0.7730  0.1145 -0.4836
 8751TIP3    H147668   6.784   1.363  16.181  0.6461  0.1743  0.7382
 8751TIP3    H247669   6.686   1.308  16.080  1.4703  1.6081 -0.8525
 8752TIP3   OH247670   6.451   5.352  12.029  0.0757 -0.3049 -0.1217
 8752TIP3    H147671   6.529   5.382  11.982  0.1480 -0.6628 -0.2268
 8752TIP3    H247672   6.450   5.257  12.018  1.0182 -0.5902  2.0264
 8753TIP3   OH247673   2.432   2.964  16.853  0.3304 -0.3270 -0.3024
 8753TIP3    H147674   2.410   3.055  16.833 -0.0724 -0.4715 -0.5055
 8753TIP3    H247675   2.523   2.955  16.825  1.0588  0.6232  1.6877
 8754TIP3   OH247676   5.606   2.477  14.531  0.0861 -0.3679 -0.0600
 8754TIP3    H147677   5.576   2.427  14.456 -1.3023  0.3530 -0.0023
 8754TIP3    H247678   5.628   2.563  14.495  2.3871 -0.9513 -0.1447
 8755TIP3   OH247679   1.800   2.833   4.229  0.3639 -0.0614 -0.1014
 8755TIP3    H147680   1.850   2.804   4.153  1.5444  0.2592  0.5511
 8755TIP3    H247681   1.817   2.766   4.296  1.4894  1.0665  0.7505
 8756TIP3   OH247682   0.395   2.836  16.135 -0.3288 -0.2166 -0.1982
 8756TIP3    H147683   0.456   2.809  16.066 -0.3402 -0.1852 -0.2196
 8756TIP3    H247684   0.446   2.894  16.191 -0.2356 -0.4791 -0.0123
 8757TIP3   OH247685   0.148   3.787   0.921 -0.0673 -0.3317 -0.0086
 8757TIP3    H147686   0.085   3.815   0.987  1.6666  0.4288  1.3803
 8757TIP3    H247687   0.157   3.693   0.934 -0.4827 -0.3468  0.1667
 8758TIP3   OH247688   1.960   4.578   1.213 -0.3095  0.0919 -0.5330
 8758TIP3    H147689   2.054   4.565   1.223 -0.2238  0.6398 -0.6337
 8758TIP3    H247690   1.933   4.510   1.151 -0.4013 -1.6154  1.3251
 8759TIP3   OH247691   4.176   1.053  11.580  0.1270 -0.2584 -0.0487
 8759TIP3    H147692   4.129   1.012  11.652  0.2277 -1.9367 -0.8829
 8759TIP3    H247693   4.108   1.091  11.525 -0.1139 -0.8453 -0.1623
 8760TIP3   OH247694   0.622   2.810  15.647 -0.1362  0.4268 -0.3653
 8760TIP3    H147695   0.592   2.875  15.583  1.0934  0.5547 -0.8231
 8760TIP3    H247696   0.543   2.784  15.694 -0.9973  0.6301 -1.6807
 8761TIP3   OH247697   6.276   2.037   3.133 -0.0669 -0.5168  0.4224
 8761TIP3    H147698   6.289   2.128   3.106  0.2931 -0.5073  0.6318
 8761TIP3    H247699   6.243   2.042   3.222 -0.4799 -0.5779  0.2757
 8762TIP3   OH247700   5.659   2.950   4.980  0.0911  0.1561  0.4708
 8762TIP3    H147701   5.694   2.863   4.960 -1.2154 -0.1064 -0.7251
 8762TIP3    H247702   5.710   2.980   5.056  2.0970 -0.7115 -0.4944
 8763TIP3   OH247703   0.237   4.047   5.670  0.4100  0.0036  0.0660
 8763TIP3    H147704   0.303   4.115   5.655  1.9667 -1.6302 -0.6745
 8763TIP3    H247705   0.168   4.092   5.718  0.8695  2.3922 -1.3983
 8764TIP3   OH247706   5.755   4.233   5.799 -0.6446  0.3123  0.7840
 8764TIP3    H147707   5.745   4.270   5.887 -0.2625  2.5826 -0.0944
 8764TIP3    H247708   5.690   4.279   5.746  1.5720  1.5784 -0.8847
 8765TIP3   OH247709   2.099   4.431   4.365 -0.3195 -0.3449 -0.2173
 8765TIP3    H147710   2.189   4.398   4.360 -1.1299 -2.6264 -0.5643
 8765TIP3    H247711   2.071   4.437   4.273 -0.9113 -0.8227 -0.0707
 8766TIP3   OH247712   0.174   1.223  13.639  0.4406  0.4018  0.0066
 8766TIP3    H147713   0.245   1.243  13.577 -0.4801  0.0336 -1.1883
 8766TIP3    H247714   0.171   1.299  13.697 -0.3357  1.9047 -1.9695
 8767TIP3   OH247715   1.659   3.168   5.072 -0.0924  0.0489 -0.2398
 8767TIP3    H147716   1.735   3.201   5.121  0.4576 -2.0152  0.3678
 8767TIP3    H247717   1.590   3.161   5.138 -0.1959 -0.0303 -0.3560
 8768TIP3   OH247718   0.575   5.003   4.909  0.5052 -0.0079 -0.4068
 8768TIP3    H147719   0.507   4.968   4.852 -0.1160  0.1973  0.2002
 8768TIP3    H247720   0.527   5.044   4.981  1.2611  0.6400 -0.2660
 8769TIP3   OH247721   4.826   6.395  12.995 -0.2502  0.0092 -0.2903
 8769TIP3    H147722   4.747   6.374  13.044  0.1339  1.7799  1.1467
 8769TIP3    H247723   4.817   6.488  12.974  0.6646 -0.1754 -1.6097
 8770TIP3   OH247724   0.639   4.239  12.036 -0.0373  0.2746  0.0433
 8770TIP3    H147725   0.714   4.191  12.071 -1.2494  0.0747  2.4349
 8770TIP3    H247726   0.574   4.171  12.018  0.5311  0.3693 -2.6682
 8771TIP3   OH247727   2.453   0.404  11.167 -0.6279 -0.5028  0.3545
 8771TIP3    H147728   2.511   0.469  11.206 -0.1957 -0.1804 -0.8098
 8771TIP3    H247729   2.379   0.399  11.227  0.3309 -0.5039  1.5570
 8772TIP3   OH247730   5.510   0.431   2.992 -0.1434  0.2156  0.1365
 8772TIP3    H147731   5.424   0.390   2.986 -0.4326  0.8992 -0.5047
 8772TIP3    H247732   5.491   0.523   3.009  0.4987  0.0742  1.7066
 8773TIP3   OH247733   1.333   3.973   0.379 -0.0051  0.4084 -0.1696
 8773TIP3    H147734   1.389   3.949   0.305 -0.2407 -0.9906  0.0923
 8773TIP3    H247735   1.392   3.973   0.454  0.0075  0.7079 -0.1809
 8774TIP3   OH247736   4.069   0.817  15.323 -0.9129  0.0072 -0.4950
 8774TIP3    H147737   4.156   0.848  15.298 -1.0383  1.6758  1.0638
 8774TIP3    H247738   4.038   0.769  15.246  1.1959 -0.2260 -1.2293
 8775TIP3   OH247739   3.110   5.265   3.866 -0.1007 -0.3475 -0.3429
 8775TIP3    H147740   3.030   5.222   3.894  0.3673 -0.9982 -0.0058
 8775TIP3    H247741   3.081   5.331   3.803 -0.8376 -1.0073 -0.6958
 8776TIP3   OH247742   3.092   6.248   3.272  0.7114 -0.2708 -0.4280
 8776TIP3    H147743   3.125   6.161   3.295 -0.1682 -0.2604  0.9139
 8776TIP3    H247744   2.997   6.239   3.271  0.6243  0.5773 -0.6539
 8777TIP3   OH247745   0.821   6.089  14.334  0.1780 -0.3153 -0.0479
 8777TIP3    H147746   0.814   6.150  14.260 -2.9099 -1.5588 -0.8507
 8777TIP3    H247747   0.844   6.006  14.294  0.6137 -0.5388  0.6561
 8778TIP3   OH247748   5.399   0.898  11.526 -0.4224  0.0677 -0.2131
 8778TIP3    H147749   5.434   0.986  11.513 -0.6899  0.5033  1.7949
 8778TIP3    H247750   5.322   0.894  11.470 -1.5123  1.8133  1.1183
 8779TIP3   OH247751   2.250   5.029   0.682 -0.8307 -0.5232  0.0175
 8779TIP3    H147752   2.258   5.009   0.775 -1.9300  0.3919  0.3176
 8779TIP3    H247753   2.211   4.950   0.644 -1.7231 -0.3552  0.5749
 8780TIP3   OH247754   2.607   1.222  14.747 -0.2737 -0.2386 -0.1668
 8780TIP3    H147755   2.647   1.137  14.726  0.4530  0.0834 -0.0910
 8780TIP3    H247756   2.652   1.284  14.690  0.3779  0.3613  0.9983
 8781TIP3   OH247757   4.533   0.524   3.801 -0.6634  0.2264  0.5364
 8781TIP3    H147758   4.473   0.451   3.790 -1.2283  0.7433  0.1523
 8781TIP3    H247759   4.594   0.495   3.869 -1.8752  0.0544  1.5603
 8782TIP3   OH247760   6.420   0.264  14.317  0.0168 -0.3666  0.1946
 8782TIP3    H147761   6.408   0.348  14.272  0.6857 -0.1984  0.3358
 8782TIP3    H247762   6.371   0.274  14.399  0.4938  0.0636  0.4322
 8783TIP3   OH247763   5.022   0.631   4.855  0.3143  0.1658 -0.5515
 8783TIP3    H147764   4.983   0.574   4.922  0.0685 -0.3748 -1.1453
 8783TIP3    H247765   5.069   0.698   4.905  1.2537 -1.0025  0.1631
 8784TIP3   OH247766   3.755   1.351   0.234  0.6513 -0.0822  0.1556
 8784TIP3    H147767   3.839   1.385   0.265  1.9015 -1.5846 -1.5312
 8784TIP3    H247768   3.768   1.257   0.225 -0.3566  0.0005 -2.7558
 8785TIP3   OH247769   0.789   0.088  14.827  0.4312  0.1610 -0.0440
 8785TIP3    H147770   0.807  -0.001  14.858 -0.7923 -0.7340 -1.7744
 8785TIP3    H247771   0.695   0.099  14.841  0.3543  0.7132 -0.9728
 8786TIP3   OH247772   4.687   2.697  13.967 -0.7642 -0.0372  0.6655
 8786TIP3    H147773   4.739   2.669  14.042 -2.1746 -2.5009  0.8154
 8786TIP3    H247774   4.735   2.664  13.891 -0.6348  0.2164  0.6385
 8787TIP3   OH247775   6.222   5.419   5.755 -0.1279  0.6375  0.7614
 8787TIP3    H147776   6.207   5.330   5.785  0.6453  0.4398  0.5602
 8787TIP3    H247777   6.238   5.469   5.835 -2.4640  0.9953  1.0585
 8788TIP3   OH247778   6.094   0.232  16.863  0.1874  0.1795  0.4530
 8788TIP3    H147779   6.034   0.306  16.867  1.6122  1.3576  0.5918
 8788TIP3    H247780   6.138   0.241  16.779  0.7204 -0.2194  0.6845
 8789TIP3   OH247781   3.725   4.814  17.046  0.1043 -0.2165 -0.1724
 8789TIP3    H147782   3.658   4.878  17.022  0.5972 -0.5331 -2.5150
 8789TIP3    H247783   3.744   4.832  17.138 -2.0476  0.9053  0.0695
 8790TIP3   OH247784   2.478   1.691  13.734 -0.3852 -0.4515  0.1512
 8790TIP3    H147785   2.521   1.750  13.671 -0.4749  0.0954  0.5997
 8790TIP3    H247786   2.393   1.672  13.695 -0.1290 -0.7422 -0.2689
 8791TIP3   OH247787   3.272   3.379  14.662  0.2712  0.0673  0.0480
 8791TIP3    H147788   3.217   3.374  14.583 -1.2047  1.1365  0.9839
 8791TIP3    H247789   3.300   3.289  14.677 -1.6157 -0.5881 -0.2048
 8792TIP3   OH247790   4.528   3.115  12.146 -0.4559 -0.0542  0.6818
 8792TIP3    H147791   4.439   3.147  12.130 -0.0578  0.0925 -1.3431
 8792TIP3    H247792   4.516   3.030  12.188 -1.5500 -0.0266  0.4398
 8793TIP3   OH247793   5.933   1.289   0.928  0.0563 -0.3321  0.2336
 8793TIP3    H147794   5.946   1.294   0.833 -0.9472 -1.5938  0.0153
 8793TIP3    H247795   6.015   1.253   0.961  1.4296  2.5807  0.1625
 8794TIP3   OH247796   5.518   6.707  15.671  0.0766  0.0212 -0.2566
 8794TIP3    H147797   5.500   6.753  15.589 -1.1454  0.8397  0.4641
 8794TIP3    H247798   5.600   6.745  15.701  1.2730 -1.2601 -1.7808
 8795TIP3   OH247799   3.099   2.962  12.546  0.4934  0.1908 -0.2624
 8795TIP3    H147800   3.098   2.931  12.455 -1.9430  0.5638 -0.4117
 8795TIP3    H247801   3.043   2.900  12.593  1.6706  0.0576  0.9703
 8796TIP3   OH247802   3.720   0.362  17.025  0.4120 -0.3970  0.2563
 8796TIP3    H147803   3.740   0.441  16.975  3.0800 -0.5284  1.0115
 8796TIP3    H247804   3.634   0.379  17.064  0.5336  1.7487 -0.3351
 8797TIP3   OH247805   6.417   1.757   5.642 -0.3580 -0.0736  0.2007
 8797TIP3    H147806   6.383   1.765   5.731  0.1485 -1.0469  0.4828
 8797TIP3    H247807   6.482   1.687   5.647  0.4776  0.6239 -0.6940
 8798TIP3   OH247808   0.675   6.318   1.642 -0.1091  0.5239  0.2613
 8798TIP3    H147809   0.734   6.393   1.634  0.5224 -0.0382 -0.4506
 8798TIP3    H247810   0.615   6.326   1.568  0.0082  0.2874  0.1383
 8799TIP3   OH247811   1.693   1.116  11.982 -0.0322 -0.2725 -0.0635
 8799TIP3    H147812   1.769   1.088  12.033  0.0478  1.5858  0.8969
 8799TIP3    H247813   1.624   1.126  12.048 -0.3105  0.8187 -0.5215
 8800TIP3   OH247814   4.839   6.632  16.842  0.2804 -0.3378  0.2750
 8800TIP3    H147815   4.903   6.702  16.829  0.0570 -0.4516 -1.6535
 8800TIP3    H247816   4.754   6.676  16.839  0.2023 -0.4255  1.0941
 8801TIP3   OH247817   4.061   3.865  14.482  0.1479 -0.3180 -0.2686
 8801TIP3    H147818   4.102   3.949  14.502 -0.7683 -0.1642  1.0108
 8801TIP3    H247819   4.134   3.807  14.461  0.9978  0.0773  1.5105
 8802TIP3   OH247820   2.983   6.398   4.591 -0.9044  0.1530  0.1443
 8802TIP3    H147821   2.923   6.332   4.626 -2.1364  1.3860  0.3714
 8802TIP3    H247822   3.045   6.414   4.663 -1.9911  0.9268  0.9163
 8803TIP3   OH247823   4.875   6.312   4.874  0.0070 -0.5009 -0.6117
 8803TIP3    H147824   4.807   6.345   4.933 -0.0175  0.5092 -1.1763
 8803TIP3    H247825   4.950   6.295   4.931  0.1289  0.8799 -0.3432
 8804TIP3   OH247826   4.631   3.540   5.119  0.3330 -0.4750 -0.1606
 8804TIP3    H147827   4.561   3.601   5.095  0.5252 -0.5564 -0.9182
 8804TIP3    H247828   4.631   3.475   5.049  1.2584 -0.4084 -0.2192
 8805TIP3   OH247829   4.978   3.059  14.933 -0.3369  0.1964 -0.1013
 8805TIP3    H147830   5.035   3.098  14.999 -0.5815  0.1143  0.1591
 8805TIP3    H247831   4.892   3.053  14.975 -0.6127  0.5952 -0.5891
 8806TIP3   OH247832   1.134   4.343   6.121  0.5753 -0.3898  0.1154
 8806TIP3    H147833   1.162   4.407   6.187  1.2248  0.4314 -0.9381
 8806TIP3    H247834   1.209   4.286   6.109  1.5088  1.2213 -2.0035
 8807TIP3   OH247835   0.283   0.617   1.902  0.5335  0.1229 -0.3176
 8807TIP3    H147836   0.245   0.538   1.865 -2.6925  1.7447 -0.6042
 8807TIP3    H247837   0.321   0.589   1.986 -1.2291 -1.5617 -0.0623
 8808TIP3   OH247838   5.772   0.472   4.265 -0.2091  0.0179 -0.0104
 8808TIP3    H147839   5.774   0.506   4.354  2.0740  0.1526 -0.0811
 8808TIP3    H247840   5.733   0.542   4.213  0.4262  0.8002  0.5515
 8809TIP3   OH247841   5.845   2.488  12.511 -0.0202 -0.0605 -0.3222
 8809TIP3    H147842   5.856   2.518  12.421 -2.3623 -1.1407 -1.0095
 8809TIP3    H247843   5.867   2.395  12.508 -1.3792 -0.3992 -0.0671
 8810TIP3   OH247844   0.635   1.475  14.343  0.2487 -0.2660 -0.3555
 8810TIP3    H147845   0.584   1.499  14.420 -1.0236  1.1264 -1.5874
 8810TIP3    H247846   0.581   1.503  14.269  1.5945 -1.2635 -1.7425
 8811TIP3   OH247847   6.519   0.263   2.292 -0.3025  0.3165  0.1000
 8811TIP3    H147848   6.603   0.217   2.284 -0.4322 -0.0092  0.5800
 8811TIP3    H247849   6.536   0.331   2.358 -0.5512 -0.0765  0.5763
 8812TIP3   OH247850   3.670   6.733  11.946  0.2485 -0.0976 -0.1355
 8812TIP3    H147851   3.661   6.795  11.874 -1.0819  0.5869  0.6112
 8812TIP3    H247852   3.722   6.780  12.011 -2.2243  0.9320  1.1686
 8813TIP3   OH247853   4.040   1.185  17.038 -0.1299  0.6013  0.8082
 8813TIP3    H147854   3.957   1.151  17.070 -0.4481  1.0725  0.4856
 8813TIP3    H247855   4.081   1.226  17.114  0.0793 -0.1603  1.1109
 8814TIP3   OH247856   4.072   1.751   0.187  0.3702 -0.4382  0.2839
 8814TIP3    H147857   3.986   1.710   0.173  0.4678 -0.9797  1.2418
 8814TIP3    H247858   4.120   1.689   0.242  1.4912 -0.2701 -0.4928
 8815TIP3   OH247859   1.341   3.802   5.226 -0.1592  0.4406 -0.2246
 8815TIP3    H147860   1.353   3.739   5.297 -1.3019  0.2156 -0.2157
 8815TIP3    H247861   1.323   3.885   5.269 -0.1062  0.4671 -0.2520
 8816TIP3   OH247862   5.070   5.995  12.090  0.4293 -0.0780  0.1933
 8816TIP3    H147863   4.994   5.962  12.042  1.1937 -1.1427 -0.3102
 8816TIP3    H247864   5.145   5.969  12.036  1.2616 -0.7347  1.6473
 8817TIP3   OH247865   6.542   4.508   0.776  0.1851 -0.2218 -0.2602
 8817TIP3    H147866   6.536   4.576   0.709 -0.0962 -0.3644 -0.3830
 8817TIP3    H247867   6.466   4.523   0.833  1.1996  0.7623  0.8507
 8818TIP3   OH247868   1.440   6.030  15.168  0.3612  0.3082  0.6446
 8818TIP3    H147869   1.434   5.954  15.226 -1.1257 -0.2034 -0.1410
 8818TIP3    H247870   1.350   6.063  15.162  0.7830  1.3538 -0.0325
 8819TIP3   OH247871   6.692   1.170   0.915 -0.1667  0.2612 -0.4711
 8819TIP3    H147872   6.683   1.127   1.000 -0.0906 -0.3825 -0.7906
 8819TIP3    H247873   6.662   1.260   0.931  2.6121  1.0100  0.9824
 8820TIP3   OH247874   0.760   5.815  13.933 -0.0791  0.1945  0.6637
 8820TIP3    H147875   0.748   5.720  13.937  2.4482 -0.2658 -1.8390
 8820TIP3    H247876   0.682   5.847  13.888 -0.1648 -0.8744  0.0409
 8821TIP3   OH247877   5.446   5.814  15.444  0.1070  0.1221 -0.1529
 8821TIP3    H147878   5.365   5.778  15.408 -0.4902  0.7896  0.5160
 8821TIP3    H247879   5.507   5.740  15.444 -0.0426 -0.0357 -1.9928
 8822TIP3   OH247880   5.197   3.908  16.780 -0.7191 -0.1617 -0.4854
 8822TIP3    H147881   5.129   3.936  16.842 -2.8826  0.4128 -3.0126
 8822TIP3    H247882   5.272   3.888  16.835 -2.6914 -0.1056  2.3725
 8823TIP3   OH247883   5.690   5.932   3.868  0.2028  0.4288 -0.2936
 8823TIP3    H147884   5.604   5.974   3.872 -0.0802 -0.2464  1.2364
 8823TIP3    H247885   5.672   5.839   3.881  1.3205  0.4812  1.8474
 8824TIP3   OH247886   4.546   0.088  14.608 -0.7644  0.2280 -0.0896
 8824TIP3    H147887   4.466   0.131  14.638 -1.4360 -1.7428  1.0281
 8824TIP3    H247888   4.521  -0.004  14.594  1.5023 -0.6397  1.2278
 8825TIP3   OH247889   0.311   2.277  14.767 -0.1073  0.0533  0.3204
 8825TIP3    H147890   0.403   2.298  14.755  0.1330  0.1874  2.2991
 8825TIP3    H247891   0.309   2.184  14.788 -0.5541 -0.2534 -0.9835
 8826TIP3   OH247892   1.774   6.506  15.359 -0.2248  0.8369 -0.1614
 8826TIP3    H147893   1.777   6.460  15.443  0.9083  1.9513  0.4351
 8826TIP3    H247894   1.826   6.451  15.300 -1.3469 -0.1509 -0.2600
 8827TIP3   OH247895   3.922   4.110  17.160  0.1037  0.7733 -0.5623
 8827TIP3    H147896   3.861   4.037  17.154 -1.1048  1.8544 -1.8212
 8827TIP3    H247897   3.921   4.135  17.253  1.2718 -1.3944  0.0571
 8828TIP3   OH247898   1.836   1.121  16.818 -0.4655 -0.6940 -0.1473
 8828TIP3    H147899   1.928   1.146  16.815 -0.4855 -0.7076 -0.8297
 8828TIP3    H247900   1.821   1.071  16.738 -1.3374  0.2243 -0.5656
 8829TIP3   OH247901   1.704   1.959   6.289 -0.3754  0.2968  0.6579
 8829TIP3    H147902   1.745   2.043   6.311  1.2319 -0.3570  0.2450
 8829TIP3    H247903   1.683   1.965   6.196  0.4897 -0.0445  0.4317
 8830TIP3   OH247904   0.054   5.970  15.139 -0.2170 -0.0308 -0.3195
 8830TIP3    H147905  -0.037   5.939  15.136 -0.5914  0.7383  1.9063
 8830TIP3    H247906   0.078   5.982  15.047 -2.2607 -0.5304 -0.9634
 8831TIP3   OH247907   2.500   5.932  15.110  0.3662 -0.1596 -0.7454
 8831TIP3    H147908   2.555   5.879  15.052  0.2936 -1.3003  0.2239
 8831TIP3    H247909   2.411   5.903  15.092  0.2201  0.4429 -1.0286
 8832TIP3   OH247910   3.156   5.129  15.575  0.0102 -0.2155 -0.2417
 8832TIP3    H147911   3.131   5.220  15.585  2.0749  0.1839  1.6602
 8832TIP3    H247912   3.079   5.079  15.602 -0.7194  0.9368 -0.1533
 8833TIP3   OH247913   5.928   5.933   0.200  0.0488  0.1250  0.8963
 8833TIP3    H147914   5.986   6.009   0.186 -0.7928  0.7630  0.8738
 8833TIP3    H247915   5.939   5.881   0.120  0.0797  0.5902  0.5924
 8834TIP3   OH247916   1.809   0.940  16.215 -0.2816  0.6370 -0.2202
 8834TIP3    H147917   1.833   0.890  16.136  0.4752 -0.0293  0.4284
 8834TIP3    H247918   1.713   0.938  16.215 -0.2871 -2.2200  0.6497
 8835TIP3   OH247919   0.699   3.839   3.927  0.5117 -1.0096  0.1751
 8835TIP3    H147920   0.743   3.771   3.978  1.5634  0.5545  1.3868
 8835TIP3    H247921   0.755   3.915   3.934  0.2408 -0.4732 -2.6315
 8836TIP3   OH247922   1.004   0.073   5.374  0.1584 -0.2017 -0.0623
 8836TIP3    H147923   0.951   0.140   5.418 -2.1557 -2.0456  0.0778
 8836TIP3    H247924   0.994   0.091   5.281  0.0139  0.0167 -0.0046
 8837TIP3   OH247925   2.736   0.011   0.728  0.5068  0.2511  0.4436
 8837TIP3    H147926   2.715   0.006   0.635 -0.3683 -1.0074  0.6844
 8837TIP3    H247927   2.803   0.079   0.735 -0.0858  0.9885 -0.9808
 8838TIP3   OH247928   3.319   2.103  14.478  0.1902  0.1793 -0.2226
 8838TIP3    H147929   3.289   2.130  14.565 -0.0146  1.1608 -0.5988
 8838TIP3    H247930   3.313   2.182  14.424 -1.1939 -0.7922 -1.5298
 8839TIP3   OH247931   4.781   6.303   2.501  0.1368 -0.6029  0.1102
 8839TIP3    H147932   4.718   6.241   2.539  0.2585 -0.4574  0.5543
 8839TIP3    H247933   4.727   6.369   2.457 -0.0584  0.1840  1.5136
 8840TIP3   OH247934   6.310   2.963  13.767 -0.3913 -0.1269  0.2912
 8840TIP3    H147935   6.226   2.994  13.802 -0.7484 -0.5291 -0.2136
 8840TIP3    H247936   6.373   3.031  13.793 -1.3346  1.5854 -1.7283
 8841TIP3   OH247937   5.844   2.332   1.761  0.4860 -0.0043 -0.0960
 8841TIP3    H147938   5.938   2.342   1.747  0.3177 -0.2313 -1.4010
 8841TIP3    H247939   5.804   2.360   1.679 -0.4658 -2.3494 -0.4578
 8842TIP3   OH247940   1.391   5.059  10.931 -0.1878 -0.5807  0.1564
 8842TIP3    H147941   1.347   5.091  11.010 -0.5992 -1.4948  0.3032
 8842TIP3    H247942   1.400   4.965  10.945  0.0722 -0.6936 -0.7317
 8843TIP3   OH247943   4.240   2.986  13.079 -0.2034 -0.7817 -0.0532
 8843TIP3    H147944   4.144   2.993  13.082 -0.3716 -1.7207 -2.3376
 8843TIP3    H247945   4.265   2.972  13.171 -2.0342  1.7729  0.9161
 8844TIP3   OH247946   5.353   3.956   3.864 -0.3429  0.2684 -0.1650
 8844TIP3    H147947   5.309   4.038   3.842  1.2700  1.9343  2.5177
 8844TIP3    H247948   5.437   3.983   3.900  0.2580 -2.5913  0.7116
 8845TIP3   OH247949   5.088   5.936  11.125  0.4734  0.3752  0.2795
 8845TIP3    H147950   5.132   6.020  11.135  1.2036 -0.2198  2.6375
 8845TIP3    H247951   5.158   5.875  11.102  0.2601  0.1149  0.3136
 8846TIP3   OH247952   1.996   1.120   0.204 -0.2296  0.1305  0.1174
 8846TIP3    H147953   1.912   1.102   0.164  0.0668  0.0542 -0.4757
 8846TIP3    H247954   2.054   1.052   0.171  0.4251  1.0493 -0.6482
 8847TIP3   OH247955   1.924   0.168  14.249  0.6072 -0.3261 -0.0055
 8847TIP3    H147956   2.013   0.137  14.266  0.6208 -0.1120  0.3083
 8847TIP3    H247957   1.914   0.161  14.154  0.6200 -1.2838  0.0542
 8848TIP3   OH247958   6.681   5.174   5.810  0.0255 -0.6048  0.8403
 8848TIP3    H147959   6.731   5.114   5.865 -1.0673 -0.3838  2.1177
 8848TIP3    H247960   6.594   5.175   5.850 -0.5469  0.2169 -0.4089
 8849TIP3   OH247961   1.962   5.959   2.001  0.2142  0.1932  0.6626
 8849TIP3    H147962   1.939   6.050   2.019  1.0908  0.1552  2.0722
 8849TIP3    H247963   1.927   5.911   2.076 -1.8671 -0.8986 -0.9614
 8850TIP3   OH247964   1.209   2.674   2.437  0.0858 -0.3307 -0.4309
 8850TIP3    H147965   1.127   2.626   2.422 -0.1058  0.8273 -3.2997
 8850TIP3    H247966   1.183   2.766   2.440  0.8756 -0.1654  1.9325
 8851TIP3   OH247967   3.367   1.024  12.477  0.0870 -0.0561 -0.0641
 8851TIP3    H147968   3.395   0.991  12.392  2.3595  0.0957  0.5946
 8851TIP3    H247969   3.412   0.968  12.541  0.2560  1.2973  1.0339
 8852TIP3   OH247970   0.604   3.604  11.729  0.1993  0.1249 -0.2932
 8852TIP3    H147971   0.547   3.542  11.683  0.1964 -0.1297  0.0527
 8852TIP3    H247972   0.612   3.568  11.817  1.3274 -0.1218 -0.4971
 8853TIP3   OH247973   5.552   0.767  12.954 -0.4284 -0.7915  0.0238
 8853TIP3    H147974   5.534   0.816  12.873  0.5393  1.7724  1.2822
 8853TIP3    H247975   5.631   0.716  12.933  1.0790  1.4692 -0.0812
 8854TIP3   OH247976   1.033   3.935   2.592  0.0001  0.2920  0.2071
 8854TIP3    H147977   1.128   3.932   2.577 -0.3647  0.1965 -2.1858
 8854TIP3    H247978   1.025   3.946   2.687  2.3876 -0.9165  0.6005
 8855TIP3   OH247979   4.359   2.454   2.115  0.7790 -0.6565 -0.4716
 8855TIP3    H147980   4.298   2.527   2.109  1.3459 -0.1046  0.3853
 8855TIP3    H247981   4.352   2.410   2.031  0.5320  0.4647 -1.0471
 8856TIP3   OH247982   4.846   2.323  14.514 -0.0683  0.0350  0.1615
 8856TIP3    H147983   4.922   2.371  14.545  0.6199 -0.7686 -0.2546
 8856TIP3    H247984   4.791   2.312  14.591  0.4396  0.2485  0.5570
 8857TIP3   OH247985   0.181   6.160   3.716  0.3477  0.7196 -0.0455
 8857TIP3    H147986   0.116   6.100   3.679 -1.4410  1.3316  2.0190
 8857TIP3    H247987   0.260   6.106   3.726 -1.1068 -1.1896  1.3891
 8858TIP3   OH247988   6.319   3.861  11.229 -0.3860 -0.4250 -0.1247
 8858TIP3    H147989   6.274   3.798  11.173 -0.5212  0.2625 -0.7895
 8858TIP3    H247990   6.258   3.879  11.300  0.2066 -2.1356  0.8735
 8859TIP3   OH247991   6.197   4.561  13.577  0.4574 -0.2843  0.7561
 8859TIP3    H147992   6.268   4.609  13.619  1.1008 -0.1063 -0.5203
 8859TIP3    H247993   6.240   4.506  13.512 -0.5853 -0.0637 -0.1284
 8860TIP3   OH247994   2.168   3.604   1.011  0.2728  0.4911 -0.3093
 8860TIP3    H147995   2.098   3.613   1.076 -0.4034 -0.1095 -0.9521
 8860TIP3    H247996   2.232   3.670   1.036  0.5423 -0.4717  1.6508
 8861TIP3   OH247997   1.719   0.249  12.099 -0.3080 -0.0509  0.1899
 8861TIP3    H147998   1.626   0.241  12.120 -0.1879  0.4478  0.9418
 8861TIP3    H247999   1.723   0.250  12.003 -1.0001 -0.8898  0.1451
 8862TIP3   OH248000   0.648   3.205  11.887  0.6680 -0.0898 -0.1666
 8862TIP3    H148001   0.613   3.116  11.887  0.0857  0.0401  4.1264
 8862TIP3    H248002   0.739   3.196  11.915  0.6257  0.6814  0.2360
 8863TIP3   OH248003   1.772   2.741  14.971  0.3115 -0.0640 -0.4481
 8863TIP3    H148004   1.773   2.646  14.967  2.0924 -0.0415 -0.8958
 8863TIP3    H248005   1.806   2.762  15.058  1.2569  0.1675 -0.8607
 8864TIP3   OH248006   6.369   6.550  11.169  0.2219  0.0996 -0.2175
 8864TIP3    H148007   6.385   6.465  11.210 -1.8489 -0.9441 -1.4639
 8864TIP3    H248008   6.447   6.566  11.116  0.2174 -1.4812 -0.7138
 8865TIP3   OH248009   6.212   1.714   4.237 -0.1713  0.0592  0.1486
 8865TIP3    H148010   6.165   1.642   4.278 -0.1585 -0.0727 -0.0663
 8865TIP3    H248011   6.207   1.786   4.300  0.3473 -0.3208  0.6189
 8866TIP3   OH248012   5.898   1.832  15.607  0.3095 -0.4982  0.2695
 8866TIP3    H148013   5.935   1.887  15.677 -1.1303  0.3804  0.3813
 8866TIP3    H248014   5.972   1.812  15.550  1.5231 -1.2604  2.0690
 8867TIP3   OH248015   0.113   0.206   0.483  0.0751 -0.0114  0.0789
 8867TIP3    H148016   0.052   0.180   0.414  0.2559  1.6918 -0.7644
 8867TIP3    H248017   0.177   0.261   0.438 -0.4428  2.0574  1.7781
 8868TIP3   OH248018   1.086   5.115   6.334  0.2281 -0.2363 -0.1506
 8868TIP3    H148019   1.114   5.095   6.244  1.0768 -1.0790  0.2920
 8868TIP3    H248020   1.149   5.180   6.364 -0.5334  0.6410 -0.4340
 8869TIP3   OH248021   5.704   6.099   0.942  0.2096  0.2482 -0.2260
 8869TIP3    H148022   5.617   6.085   0.904 -0.4387  3.5408 -0.1540
 8869TIP3    H248023   5.765   6.059   0.880 -1.3099 -1.3397 -0.7082
 8870TIP3   OH248024   2.819   5.815   0.417  0.0813  0.1694  0.1862
 8870TIP3    H148025   2.795   5.791   0.327 -1.7909  3.3530 -0.2275
 8870TIP3    H248026   2.749   5.872   0.446  1.4915  0.4591  3.1403
 8871TIP3   OH248027   2.581   5.906   4.244  0.3984  0.0567  0.6965
 8871TIP3    H148028   2.570   5.999   4.265 -1.7250  0.1238 -0.5837
 8871TIP3    H248029   2.517   5.861   4.300 -0.2798 -0.4018 -0.4419
 8872TIP3   OH248030   3.101   4.280   0.989  0.0696  0.3149  0.6279
 8872TIP3    H148031   3.130   4.213   1.051  1.8820 -0.2560 -0.7843
 8872TIP3    H248032   3.015   4.250   0.959  0.4247 -0.8629  0.7704
 8873TIP3   OH248033   4.219   6.063  15.413 -0.0757  0.5842  0.9955
 8873TIP3    H148034   4.255   6.151  15.421  1.6474  0.0591 -0.8674
 8873TIP3    H248035   4.142   6.074  15.358 -1.0434  1.2089  2.4228
 8874TIP3   OH248036   4.330   1.382   4.220  0.1107  0.3291 -0.7005
 8874TIP3    H148037   4.413   1.403   4.179 -0.5076  0.7244 -1.7856
 8874TIP3    H248038   4.317   1.289   4.200 -0.7944  0.8199 -2.5610
 8875TIP3   OH248039   4.688   0.813  15.863 -0.4314 -0.0602 -0.2347
 8875TIP3    H148040   4.774   0.853  15.876 -1.0535  0.8111  1.3589
 8875TIP3    H248041   4.702   0.750  15.792  2.0730 -1.6171  1.5433
 8876TIP3   OH248042   4.411   6.057   3.775 -0.3576  0.1745  0.1656
 8876TIP3    H148043   4.392   6.029   3.685 -0.9495  1.5704 -0.1590
 8876TIP3    H248044   4.463   5.985   3.812  1.5896  0.4589 -1.9267
 8877TIP3   OH248045   5.576   6.161   4.257 -0.4435  0.4725  0.2962
 8877TIP3    H148046   5.545   6.146   4.347 -0.9616  0.0993  0.0571
 8877TIP3    H248047   5.625   6.243   4.262  0.4390 -0.0994  1.1407
 8878TIP3   OH248048   2.154   3.626  11.460  0.2732 -0.1949 -0.1378
 8878TIP3    H148049   2.229   3.569  11.443 -0.1967 -0.6527 -0.6748
 8878TIP3    H248050   2.091   3.570  11.505  0.7771  0.5384  1.5253
 8879TIP3   OH248051   5.639   3.166   4.186 -0.0126 -0.0393 -0.1689
 8879TIP3    H148052   5.556   3.172   4.139 -1.3843  0.6607  2.2699
 8879TIP3    H248053   5.650   3.253   4.225  2.4042  0.2005 -1.2913
 8880TIP3   OH248054   3.014   2.544  13.886 -0.6197  0.2255 -0.0307
 8880TIP3    H148055   3.102   2.580  13.895  0.1448 -1.5789 -0.0977
 8880TIP3    H248056   3.010   2.512  13.795 -1.2336  0.0121  0.0687
 8881TIP3   OH248057   6.406   5.958  14.218 -0.6602  0.4071  0.0864
 8881TIP3    H148058   6.410   5.982  14.311  0.0789  0.1059  0.1342
 8881TIP3    H248059   6.494   5.927  14.197 -0.6957  0.8979 -0.8301
 8882TIP3   OH248060   2.364   6.361   6.716 -0.5880  0.7411  0.0166
 8882TIP3    H148061   2.402   6.445   6.690 -0.6885  0.9372  0.5057
 8882TIP3    H248062   2.440   6.304   6.732 -0.5190  0.7771 -0.1789
 8883TIP3   OH248063   0.124   6.401   3.411 -0.5108  0.4891  0.5877
 8883TIP3    H148064   0.151   6.435   3.496  0.8470  0.4022  0.1944
 8883TIP3    H248065   0.179   6.324   3.397 -0.8635  0.3894 -0.2935
 8884TIP3   OH248066   1.453   3.206   3.326 -0.1134 -0.5016  0.7074
 8884TIP3    H148067   1.463   3.115   3.351 -1.2837 -0.6739  0.5887
 8884TIP3    H248068   1.422   3.203   3.236 -0.3378  0.0056  0.7651
 8885TIP3   OH248069   2.102   4.171   0.458 -0.4955  0.3419  0.5511
 8885TIP3    H148070   2.093   4.077   0.471 -2.9826  0.6299  1.1158
 8885TIP3    H248071   2.144   4.180   0.372 -0.8825 -1.2520  0.1811
 8886TIP3   OH248072   3.239   1.857  15.021  0.4966 -0.0365  0.3548
 8886TIP3    H148073   3.322   1.896  14.993  0.9869 -1.2908 -0.0029
 8886TIP3    H248074   3.265   1.792  15.086 -0.2012 -0.4846  0.1897
 8887TIP3   OH248075   4.967   2.852  13.506  0.2678 -0.1205 -0.0703
 8887TIP3    H148076   5.029   2.816  13.570 -0.5494 -0.4212  0.5568
 8887TIP3    H248077   5.007   2.935  13.478  0.9647 -0.3239  0.3165
 8888TIP3   OH248078   6.731   3.144  11.834  0.0580 -0.5244 -0.4674
 8888TIP3    H148079   6.710   3.236  11.851  0.8735 -0.1231 -1.6203
 8888TIP3    H248080   6.645   3.101  11.835 -0.1997 -0.0577  1.7162
 8889TIP3   OH248081   4.457   6.308   1.106 -0.6456  0.2812 -0.7943
 8889TIP3    H148082   4.405   6.250   1.161  0.6876 -1.3763 -1.2595
 8889TIP3    H248083   4.419   6.298   1.019 -0.5869  0.3390 -0.8261
 8890TIP3   OH248084   1.445   2.128   1.363 -0.5340 -0.3377 -0.2149
 8890TIP3    H148085   1.432   2.094   1.275  2.7832 -1.2557 -0.4329
 8890TIP3    H248086   1.360   2.120   1.405 -1.9042 -0.9148 -2.9673
 8891TIP3   OH248087   3.444   5.410  12.361  0.4038 -0.0871  0.0299
 8891TIP3    H148088   3.521   5.455  12.327  0.5769  1.3359  2.2231
 8891TIP3    H248089   3.478   5.331  12.403  0.8211  1.1090  1.9908
 8892TIP3   OH248090   6.752   2.150  15.398  0.8341  0.2262 -0.3515
 8892TIP3    H148091   6.694   2.211  15.444  0.1627 -1.0466  0.5249
 8892TIP3    H248092   6.712   2.064  15.412  1.2292 -0.3125 -2.4147
 8893TIP3   OH248093   5.844   5.425   5.494  0.2630 -0.5894  0.0946
 8893TIP3    H148094   5.750   5.417   5.513 -0.0426  0.0343 -1.0648
 8893TIP3    H248095   5.879   5.474   5.568 -0.3601 -0.6867  0.4633
 8894TIP3   OH248096   1.277   0.442  15.409 -0.2693  0.7296  0.6294
 8894TIP3    H148097   1.292   0.448  15.504 -2.1148  0.0947  0.9899
 8894TIP3    H248098   1.228   0.360  15.398 -1.1241  1.4049 -0.7284
 8895TIP3   OH248099   5.667   6.531   0.920  0.1639 -0.5265 -0.3157
 8895TIP3    H148100   5.744   6.479   0.945  0.4275 -0.4914 -1.0496
 8895TIP3    H248101   5.654   6.512   0.827 -0.8556 -0.7067 -0.1416
 8896TIP3   OH248102   0.517   5.822  14.202  0.0805 -0.2280  0.3142
 8896TIP3    H148103   0.574   5.825  14.126 -0.7227  0.8728 -0.2646
 8896TIP3    H248104   0.556   5.883  14.264 -0.4268  0.5199 -0.0794
 8897TIP3   OH248105   3.253   1.753  10.792 -0.7981 -0.1828  0.1285
 8897TIP3    H148106   3.258   1.659  10.811 -0.4987  0.1625  1.8675
 8897TIP3    H248107   3.334   1.771  10.744 -1.1166 -0.9108 -0.6986
 8898TIP3   OH248108   5.654   0.658  15.421 -0.3576  0.5597  0.6892
 8898TIP3    H148109   5.583   0.668  15.484 -0.8248  1.2956  0.0480
 8898TIP3    H248110   5.635   0.575  15.376 -1.0748  0.9912  0.1875
 8899TIP3   OH248111   6.541   1.098   1.599  0.0293  0.8049  0.2357
 8899TIP3    H148112   6.525   1.030   1.534 -4.7502  0.9444  1.0376
 8899TIP3    H248113   6.571   1.052   1.676  0.9142  0.0999 -0.5230
 8900TIP3   OH248114   0.907   6.317  15.792  0.6920  0.4017  0.0847
 8900TIP3    H148115   0.868   6.375  15.727 -1.5662 -0.6390  0.4744
 8900TIP3    H248116   0.841   6.310  15.861  1.2585 -1.9832  0.4221
 8901TIP3   OH248117   4.568   1.643  14.642  0.4167  0.0311 -0.0189
 8901TIP3    H148118   4.517   1.571  14.604 -0.4606  0.7936 -0.3037
 8901TIP3    H248119   4.554   1.716  14.581  3.0241 -0.1471 -0.9183
 8902TIP3   OH248120   1.015   2.262  11.102 -0.1792  0.0158 -0.1321
 8902TIP3    H148121   0.971   2.346  11.089 -0.5762 -0.1442  0.1860
 8902TIP3    H248122   1.107   2.280  11.082 -0.3644  0.3789 -0.6686
 8903TIP3   OH248123   6.455   3.752  16.568 -0.3283  0.6040 -0.0234
 8903TIP3    H148124   6.545   3.722  16.578 -0.0220  1.6205  0.2937
 8903TIP3    H248125   6.462   3.847  16.560 -1.2692  0.5934 -1.1676
 8904TIP3   OH248126   5.602   0.697   4.142  0.0430  0.4038  0.2704
 8904TIP3    H148127   5.613   0.733   4.054  0.8155 -0.0641  0.1726
 8904TIP3    H248128   5.518   0.653   4.140  0.9450 -1.3222 -0.8400
 8905TIP3   OH248129   4.161   2.790   5.490  0.0189  0.1141  0.0030
 8905TIP3    H148130   4.155   2.750   5.577  0.4249 -0.2701 -0.1455
 8905TIP3    H248131   4.138   2.720   5.429  1.8307 -0.2274 -0.3182
 8906TIP3   OH248132   4.743   2.376  16.827  0.8475 -0.7620  0.7903
 8906TIP3    H148133   4.745   2.341  16.738  0.6619  0.6246  0.2274
 8906TIP3    H248134   4.758   2.300  16.884  1.2388 -1.6038 -0.4342
 8907TIP3   OH248135   4.844   1.000  11.068  0.6271  0.0714  0.0450
 8907TIP3    H148136   4.779   1.020  11.134  1.2845 -0.8761  0.9993
 8907TIP3    H248137   4.862   0.907  11.079 -0.2282 -0.4170 -2.3570
 8908TIP3   OH248138   1.144   4.878   2.484 -0.3608 -0.1807 -0.4223
 8908TIP3    H148139   1.058   4.836   2.488 -0.6127  0.4579  1.1456
 8908TIP3    H248140   1.169   4.890   2.576  1.0887  0.2768 -0.8666
 8909TIP3   OH248141   5.766   6.184  14.450  0.2675 -0.8229  0.0137
 8909TIP3    H148142   5.803   6.250  14.509  0.0487  0.0731 -0.8344
 8909TIP3    H248143   5.672   6.202  14.450  0.1340 -1.5064  0.2223
 8910TIP3   OH248144   3.986   6.202  11.385  0.2895 -0.0512  0.5438
 8910TIP3    H148145   3.957   6.263  11.317 -0.8573 -1.6396 -0.4345
 8910TIP3    H248146   4.081   6.217  11.392  0.7629 -1.1548 -2.7634
 8911TIP3   OH248147   4.714   1.241  14.017 -0.2003  0.4323 -0.1857
 8911TIP3    H148148   4.711   1.269  13.926  0.9065 -0.4267 -0.5001
 8911TIP3    H248149   4.742   1.149  14.013  0.5780  0.6016  1.0481
 8912TIP3   OH248150   3.546   0.366   3.345  0.3770  0.6659  0.7365
 8912TIP3    H148151   3.510   0.302   3.407 -1.1597  2.2139  1.4638
 8912TIP3    H248152   3.528   0.329   3.259  2.5999 -1.5466  1.1462
 8913TIP3   OH248153   0.461   3.813  12.616 -0.1832  0.0727 -0.3781
 8913TIP3    H148154   0.502   3.765  12.544 -0.8991 -0.0581 -0.7087
 8913TIP3    H248155   0.490   3.767  12.695  1.7292  1.0673 -0.4743
 8914TIP3   OH248156   6.156   2.316   2.274 -0.6265 -0.1529 -0.0016
 8914TIP3    H148157   6.130   2.372   2.201 -1.8042  0.5168  0.9095
 8914TIP3    H248158   6.103   2.237   2.263 -0.9263  0.0172  0.2286
 8915TIP3   OH248159   1.486   4.013  10.527  0.9249  0.0867  0.5670
 8915TIP3    H148160   1.433   4.004  10.447  0.4286 -1.5692  1.0615
 8915TIP3    H248161   1.576   4.019  10.495  0.6830 -0.0612 -0.1575
 8916TIP3   OH248162   2.974   0.387   1.989  0.0648  0.5045  0.4079
 8916TIP3    H148163   2.935   0.322   1.931  1.1015 -1.5560  1.9402
 8916TIP3    H248164   2.965   0.470   1.942 -1.2659 -0.7415 -1.6070
 8917TIP3   OH248165   5.530   4.101   3.112 -0.0102 -0.0709  1.2993
 8917TIP3    H148166   5.525   4.181   3.165  0.6160 -0.7072  2.3312
 8917TIP3    H248167   5.624   4.082   3.107 -0.1683 -0.8019  1.1302
 8918TIP3   OH248168   3.734   1.634  11.806 -0.3960 -0.5343 -0.4709
 8918TIP3    H148169   3.673   1.578  11.758 -1.0514 -0.1677 -0.0791
 8918TIP3    H248170   3.752   1.706  11.747 -0.9091 -0.2754 -0.3166
 8919TIP3   OH248171   5.237   4.260   4.448 -0.2987  0.3167 -0.2364
 8919TIP3    H148172   5.200   4.312   4.376 -1.3279  0.3625  0.3183
 8919TIP3    H248173   5.257   4.176   4.408 -2.9857 -0.4416 -0.0929
 8920TIP3   OH248174   1.168   0.424  13.031 -0.5371 -0.1435  0.2681
 8920TIP3    H148175   1.234   0.356  13.047  2.0155  2.1985  0.1225
 8920TIP3    H248176   1.170   0.478  13.111 -2.5528 -0.2590  0.4074
 8921TIP3   OH248177   4.465   0.397  13.043 -0.7517  0.2832  0.5293
 8921TIP3    H148178   4.418   0.325  13.002 -0.2476 -0.9654  2.0938
 8921TIP3    H248179   4.455   0.382  13.137  0.4823  1.5041  0.8739
 8922TIP3   OH248180   0.071   6.522   3.679 -0.4683 -0.5059  0.0940
 8922TIP3    H148181   0.064   6.618   3.681 -0.9223 -0.4879 -1.4546
 8922TIP3    H248182   0.117   6.500   3.760  0.3706  1.0876  0.0891
 8923TIP3   OH248183   3.925   5.960  15.058  0.1133  0.0662  0.1476
 8923TIP3    H148184   3.959   5.904  15.128 -1.9116 -1.2800  0.0812
 8923TIP3    H248185   4.001   5.974  15.001  1.3640 -0.2169  1.6850
 8924TIP3   OH248186   5.983   2.941   5.401 -0.0833 -0.3298  0.0311
 8924TIP3    H148187   6.009   2.955   5.310 -1.3270 -0.3428 -0.3370
 8924TIP3    H248188   5.956   3.028   5.432 -1.5117 -0.6760 -0.2180
 8925TIP3   OH248189   4.336   0.491   2.080 -0.3621 -0.2294  0.2951
 8925TIP3    H148190   4.293   0.435   2.145 -0.6231 -1.3565 -0.8192
 8925TIP3    H248191   4.342   0.577   2.121  0.7053 -1.2500  2.3530
 8926TIP3   OH248192   0.446   5.218  14.778  0.3033 -0.8283 -0.6285
 8926TIP3    H148193   0.389   5.295  14.785 -0.8070 -1.6663 -0.4013
 8926TIP3    H248194   0.521   5.249  14.727  0.0171  0.4901 -0.2802
 8927TIP3   OH248195   3.793   0.495  16.708 -1.0490  0.3669  0.2614
 8927TIP3    H148196   3.760   0.540  16.630 -1.3984  1.3492  0.9698
 8927TIP3    H248197   3.823   0.565  16.765 -0.4334 -0.3740  0.8486
 8928TIP3   OH248198   4.552   2.270   1.456 -0.3904 -0.0497  0.3889
 8928TIP3    H148199   4.615   2.315   1.512 -1.7185  0.4468  1.5266
 8928TIP3    H248200   4.544   2.326   1.379  0.1932  0.1251  0.4512
 8929TIP3   OH248201   1.830   2.731   4.497  0.3394 -0.5380 -0.0666
 8929TIP3    H148202   1.889   2.660   4.471  1.2513  0.0442  0.3902
 8929TIP3    H248203   1.874   2.773   4.571 -1.8564 -1.6751  1.9437
 8930TIP3   OH248204   3.545   4.045   1.355  0.7070  0.0641 -0.0703
 8930TIP3    H148205   3.616   4.044   1.290 -0.6714 -0.8733 -1.5707
 8930TIP3    H248206   3.490   3.971   1.332 -0.4557  0.4382  1.4515
 8931TIP3   OH248207   2.224   6.749   0.861  0.0849 -0.5852  0.3082
 8931TIP3    H148208   2.316   6.726   0.847 -0.2488 -1.0386 -1.2207
 8931TIP3    H248209   2.194   6.686   0.927  0.2017 -2.1415 -1.0801
 8932TIP3   OH248210   2.897   1.129  14.315 -0.0767 -0.1566 -0.2520
 8932TIP3    H148211   2.960   1.060  14.336  0.2924 -0.0146 -0.8851
 8932TIP3    H248212   2.817   1.103  14.361  0.5644 -0.1119  0.9101
 8933TIP3   OH248213   0.500   3.566  15.693  0.2299  0.0041  0.3744
 8933TIP3    H148214   0.517   3.641  15.636 -1.5956  1.2518  1.4031
 8933TIP3    H248215   0.529   3.595  15.780  1.9007 -1.4465  0.3375
 8934TIP3   OH248216   5.942   3.886   3.857  0.3189  0.8172 -0.0524
 8934TIP3    H148217   5.971   3.845   3.939  0.6015  2.2347  0.5657
 8934TIP3    H248218   6.020   3.932   3.825  0.8342 -1.4185 -2.2164
 8935TIP3   OH248219   4.266   0.771   3.135  0.0334 -0.1924 -0.4457
 8935TIP3    H148220   4.175   0.770   3.164  0.1579  0.6406 -0.0148
 8935TIP3    H248221   4.298   0.682   3.153 -0.1758  0.0221  1.0815
 8936TIP3   OH248222   4.928   3.244  16.146 -0.2711 -0.3491 -0.9162
 8936TIP3    H148223   4.969   3.192  16.077  1.4366 -0.9600  0.5266
 8936TIP3    H248224   4.990   3.242  16.219 -1.2814  1.6692  0.0618
 8937TIP3   OH248225   0.184   3.004   2.090  0.0779  0.1944 -0.2893
 8937TIP3    H148226   0.169   3.070   2.022  1.2902  1.0272  0.2374
 8937TIP3    H248227   0.108   3.010   2.146  0.8245  2.1672  0.5643
 8938TIP3   OH248228   4.766   2.725  16.510 -0.3988  0.2347 -0.0192
 8938TIP3    H148229   4.721   2.693  16.588  0.0667  1.0569  0.5940
 8938TIP3    H248230   4.695   2.751  16.451 -0.7467 -0.2962  0.1619
 8939TIP3   OH248231   6.625   6.536   4.230  0.6404  0.4043  0.2308
 8939TIP3    H148232   6.713   6.518   4.261  1.4032 -0.3327 -2.2403
 8939TIP3    H248233   6.568   6.500   4.298  2.2323 -0.8648  0.9254
 8940TIP3   OH248234   1.222   4.386  16.589 -0.2571  0.2639  0.1797
 8940TIP3    H148235   1.204   4.311  16.533 -1.4737  0.4202  0.3509
 8940TIP3    H248236   1.174   4.459  16.549 -0.9091  0.4419  1.2350
 8941TIP3   OH248237   6.496   0.816   3.902 -0.7772 -0.0985 -0.0669
 8941TIP3    H148238   6.460   0.756   3.836  0.4900  0.7840 -1.6017
 8941TIP3    H248239   6.578   0.776   3.928 -0.9060 -0.0505  0.4096
 8942TIP3   OH248240   3.747   1.385  15.941 -0.1334  0.1549 -0.3343
 8942TIP3    H148241   3.683   1.457  15.937 -0.7316 -0.2711  1.4059
 8942TIP3    H248242   3.707   1.316  15.888 -0.2877  0.5228 -0.7089
 8943TIP3   OH248243   3.023   0.248  13.200 -0.3033  0.3726 -0.1669
 8943TIP3    H148244   3.106   0.204  13.183 -0.6399 -1.3293  2.3816
 8943TIP3    H248245   2.964   0.216  13.131  0.9255  1.1121 -1.6056
 8944TIP3   OH248246   5.972   2.709   3.455  0.1558 -0.2529  0.6013
 8944TIP3    H148247   6.054   2.734   3.414  0.3528 -1.2186  0.3942
 8944TIP3    H248248   5.993   2.698   3.548  0.2594 -0.5272  0.5432
 8945TIP3   OH248249   4.515   3.924   3.534  0.1342 -0.1260  0.0070
 8945TIP3    H148250   4.523   3.831   3.555 -1.6286 -0.2667  0.0898
 8945TIP3    H248251   4.457   3.927   3.458 -0.8192  0.9884  0.7721
 8946TIP3   OH248252   6.173   0.503  15.921  0.2324 -0.3557 -0.3114
 8946TIP3    H148253   6.241   0.446  15.885  1.7581  1.7989 -0.9217
 8946TIP3    H248254   6.102   0.500  15.856  0.5810 -0.9753 -0.6700
 8947TIP3   OH248255   1.981   1.493  16.266  0.5715  0.2571  0.5161
 8947TIP3    H148256   1.985   1.420  16.205 -1.0696  0.9903 -0.5154
 8947TIP3    H248257   1.954   1.453  16.349 -0.2107 -0.3476 -0.0167
 8948TIP3   OH248258   6.746   6.025   4.559  0.2162 -0.3517 -0.0254
 8948TIP3    H148259   6.685   5.954   4.540  0.2907 -0.3166 -0.4155
 8948TIP3    H248260   6.804   6.027   4.482  0.4283 -0.0950  0.1406
 8949TIP3   OH248261   5.880   5.601   5.730 -0.2448 -0.5062 -0.1608
 8949TIP3    H148262   5.787   5.616   5.745  0.2932  1.3935  1.4088
 8949TIP3    H248263   5.913   5.569   5.814  0.9453  0.9609 -0.0622
 8950TIP3   OH248264   4.483   0.528  16.149  0.3622  0.1430 -0.2565
 8950TIP3    H148265   4.498   0.508  16.242 -0.0299 -0.4401 -0.3168
 8950TIP3    H248266   4.399   0.572  16.147 -0.6861 -1.8220 -0.5764
 8951TIP3   OH248267   4.939   0.081  10.678 -0.1204  0.2207 -0.5037
 8951TIP3    H148268   4.975   0.035  10.754  0.4145 -1.3593 -1.6884
 8951TIP3    H248269   4.887   0.015  10.632 -2.4333  1.7903 -0.2333
 8952TIP3   OH248270   0.617   3.216   1.324 -0.0661 -0.1416 -0.2269
 8952TIP3    H148271   0.622   3.204   1.419  2.3674 -0.9448 -0.4364
 8952TIP3    H248272   0.524   3.203   1.304 -0.4528 -0.9493  1.9158
 8953TIP3   OH248273   2.306   5.420  14.964 -0.2364 -0.1213 -0.0082
 8953TIP3    H148274   2.330   5.331  14.987 -0.8035  0.0175  1.1828
 8953TIP3    H248275   2.363   5.443  14.891  1.1915 -0.8069  0.8713
 8954TIP3   OH248276   1.114   2.598   1.389 -0.1851 -0.4063 -0.3220
 8954TIP3    H148277   1.151   2.668   1.442 -0.5872 -0.1471 -0.3795
 8954TIP3    H248278   1.147   2.614   1.301 -1.7296  0.7800 -0.7089
 8955TIP3   OH248279   0.277   1.252   1.917 -0.7355  0.5035  0.8972
 8955TIP3    H148280   0.184   1.259   1.895 -0.6310  0.5495  0.4511
 8955TIP3    H248281   0.319   1.319   1.863  0.0058 -1.9962 -1.7506
 8956TIP3   OH248282   2.879   4.386  15.422 -0.3881  0.7766  0.2630
 8956TIP3    H148283   2.850   4.431  15.502 -1.3257  1.2579 -0.3309
 8956TIP3    H248284   2.974   4.400  15.420 -0.1200 -0.6288  2.1347
 8957TIP3   OH248285   0.412   4.731   3.687 -0.8221 -0.0433 -0.1862
 8957TIP3    H148286   0.334   4.709   3.738 -0.7635 -0.7054 -0.3747
 8957TIP3    H248287   0.485   4.711   3.746 -0.7959  1.0859  0.1875
 8958TIP3   OH248288   2.804   0.394  10.546 -0.1078  0.1939 -0.0424
 8958TIP3    H148289   2.763   0.480  10.537  0.4459  0.2352 -2.3126
 8958TIP3    H248290   2.852   0.400  10.629 -0.4130  1.9298  0.0388
 8959TIP3   OH248291   0.250   0.060  10.620  0.0820  0.0123 -0.2435
 8959TIP3    H148292   0.317   0.128  10.626  0.0987 -0.1434  1.4248
 8959TIP3    H248293   0.199   0.069  10.700  0.7629 -2.6613  0.5300
 8960TIP3   OH248294   3.336   3.866   3.616  0.3083 -0.6099 -0.3088
 8960TIP3    H148295   3.362   3.816   3.694  0.4620 -0.7715 -0.4639
 8960TIP3    H248296   3.402   3.845   3.551 -0.6034 -1.5990 -0.9363
 8961TIP3   OH248297   0.153   2.359   1.981  0.2854 -0.2130 -0.2862
 8961TIP3    H148298   0.108   2.412   2.046  0.1382 -0.4068 -0.2282
 8961TIP3    H248299   0.160   2.272   2.022 -0.2022 -0.4536 -0.6971
 8962TIP3   OH248300   4.145   3.346   0.889  0.1913 -0.2947  0.7131
 8962TIP3    H148301   4.069   3.307   0.844  1.1228 -0.3688 -0.8492
 8962TIP3    H248302   4.202   3.272   0.908  1.9942  0.2107 -2.3152
 8963TIP3   OH248303   0.991   4.488   2.614 -0.2148 -0.0643 -0.6956
 8963TIP3    H148304   0.938   4.411   2.633 -0.6205  0.3658 -0.0500
 8963TIP3    H248305   0.931   4.562   2.624  0.1925  0.3408 -1.2078
 8964TIP3   OH248306   4.477   1.248  15.540  0.6363 -0.4052  0.2287
 8964TIP3    H148307   4.526   1.277  15.464  1.1683  0.5750  0.9269
 8964TIP3    H248308   4.403   1.310  15.546  0.5392 -0.5394  0.4419
 8965TIP3   OH248309   6.716   5.481  16.572 -0.5869 -0.0035  0.2478
 8965TIP3    H148310   6.764   5.524  16.643 -0.6664  0.4570  0.0270
 8965TIP3    H248311   6.747   5.391  16.573  1.9322  0.8045 -1.3348
 8966TIP3   OH248312   2.583   5.147  13.433 -0.0041 -0.3261  0.0526
 8966TIP3    H148313   2.565   5.077  13.495  0.1469  0.2585  0.7698
 8966TIP3    H248314   2.496   5.172  13.400 -0.1561 -0.1453  0.5814
 8967TIP3   OH248315   6.066   3.843   6.251 -0.2258  0.1335  0.2082
 8967TIP3    H148316   6.129   3.915   6.254 -0.5234  0.3481  1.7282
 8967TIP3    H248317   5.991   3.875   6.300 -0.5577 -1.0212  0.4632
 8968TIP3   OH248318   4.969   6.354   1.640 -0.1702 -0.3977 -0.0940
 8968TIP3    H148319   4.969   6.422   1.572  0.8767 -0.4335 -0.1335
 8968TIP3    H248320   4.878   6.352   1.671  0.0681  2.0966  0.9677
 8969TIP3   OH248321   6.232   4.036  13.440  0.0670  0.8525  0.0262
 8969TIP3    H148322   6.171   4.031  13.514  0.3207 -0.0858  0.1911
 8969TIP3    H248323   6.258   4.128  13.436 -0.9478  1.1559  0.2864
 8970TIP3   OH248324   2.109   2.437  12.259  0.1458  0.0041 -0.5354
 8970TIP3    H148325   2.158   2.452  12.179 -0.7385 -1.0700 -1.2872
 8970TIP3    H248326   2.044   2.506  12.261  1.4654  1.2669  0.3222
 8971TIP3   OH248327   6.650   1.853   5.902  0.6300 -0.2133 -0.0827
 8971TIP3    H148328   6.679   1.805   5.824 -1.9526 -0.7228 -0.7934
 8971TIP3    H248329   6.591   1.792   5.946  1.2873  0.4546  1.7501
 8972TIP3   OH248330   2.616   4.811   3.288  0.2677 -0.4860  0.2794
 8972TIP3    H148331   2.535   4.802   3.339 -0.2304 -0.0790 -0.4321
 8972TIP3    H248332   2.607   4.747   3.217  0.2152  0.1193 -0.2618
 8973TIP3   OH248333   2.869   1.051  12.846 -0.2042 -0.5970  0.1191
 8973TIP3    H148334   2.791   1.090  12.805  0.3879  2.6810  1.8982
 8973TIP3    H248335   2.835   0.984  12.905 -1.3116 -2.5592 -2.6679
 8974TIP3   OH248336   3.947   2.764  13.459 -0.2619  0.4098 -0.1342
 8974TIP3    H148337   3.910   2.814  13.386 -1.1445  1.0728  0.7483
 8974TIP3    H248338   3.929   2.817  13.537  1.9011  0.3682  0.4216
 8975TIP3   OH248339   2.954   4.165   5.387  0.4134 -0.4204 -0.5955
 8975TIP3    H148340   2.864   4.139   5.368  0.3835  0.0175 -1.0601
 8975TIP3    H248341   3.007   4.098   5.344  0.3178 -0.5489 -0.5181
 8976TIP3   OH248342   2.426   6.300   3.822 -0.8676 -0.2522 -0.1981
 8976TIP3    H148343   2.382   6.328   3.903 -0.2204 -2.5340  0.9864
 8976TIP3    H248344   2.465   6.216   3.844  1.0226  0.0182 -2.3286
 8977TIP3   OH248345   5.618   0.667  11.372 -0.3007 -0.0194 -0.2255
 8977TIP3    H148346   5.551   0.610  11.408  1.6562 -1.0963  1.8152
 8977TIP3    H248347   5.617   0.745  11.427  0.8416 -0.5142  0.5283
 8978TIP3   OH248348   2.016   5.030  17.017  0.3088  0.2429 -0.1696
 8978TIP3    H148349   1.989   5.083  17.092  2.0078 -0.4744  0.9797
 8978TIP3    H248350   2.086   5.081  16.976  1.0343 -0.4793  0.1596
 8979TIP3   OH248351   0.812   5.236  13.507  0.5916 -0.3087  0.2771
 8979TIP3    H148352   0.774   5.182  13.438  0.6817 -0.7130  0.5394
 8979TIP3    H248353   0.760   5.316  13.507  1.2127  0.1033 -0.9131
 8980TIP3   OH248354   1.150   0.188  15.427  0.1067 -0.3313  0.4498
 8980TIP3    H148355   1.133   0.213  15.337 -1.3647 -1.0804  0.4970
 8980TIP3    H248356   1.069   0.146  15.456  0.8304 -0.8017  1.8671
 8981TIP3   OH248357   3.811   1.668  13.347 -0.6026  0.3004 -0.2463
 8981TIP3    H148358   3.835   1.755  13.378  0.0032  0.4598 -1.1429
 8981TIP3    H248359   3.869   1.652  13.273 -1.1228 -0.6166 -0.4655
 8982TIP3   OH248360   0.181   3.093  11.960  0.7428  0.3840  0.3138
 8982TIP3    H148361   0.237   3.021  11.929  1.0204  0.4877  0.5692
 8982TIP3    H248362   0.099   3.082  11.913  1.6777  1.4189 -1.6123
 8983TIP3   OH248363   2.382   1.943   5.033  0.2073 -0.3004  0.3629
 8983TIP3    H148364   2.455   1.982   5.080  2.0839 -1.3047 -1.6240
 8983TIP3    H248365   2.326   1.907   5.102  1.9981 -0.2227  1.8996
 8984TIP3   OH248366   4.597   0.217  16.455 -0.7485  0.8184  0.4454
 8984TIP3    H148367   4.507   0.196  16.433 -0.7519 -1.4861  2.4818
 8984TIP3    H248368   4.602   0.313  16.448 -2.5287  0.7461 -2.5035
 8985TIP3   OH248369   2.332   6.033  13.913  0.1507 -0.3163  0.5373
 8985TIP3    H148370   2.337   6.006  13.821  0.2181 -0.5366  0.6062
 8985TIP3    H248371   2.397   6.103  13.920 -0.2103  0.0446  0.2971
 8986TIP3   OH248372   1.453   5.013  15.076  0.2328  0.3871 -0.3403
 8986TIP3    H148373   1.445   5.069  15.153  0.3146  0.5692 -0.4665
 8986TIP3    H248374   1.530   5.046  15.030  0.9242 -0.5150  0.1507
 8987TIP3   OH248375   1.374   5.389   1.931 -0.2532  0.4844 -0.0494
 8987TIP3    H148376   1.284   5.389   1.964 -0.3087  0.1850 -0.1948
 8987TIP3    H248377   1.386   5.476   1.893 -0.4697  0.5360 -0.0007
 8988TIP3   OH248378   0.998   1.688   2.731  0.7284  0.1482 -0.2953
 8988TIP3    H148379   1.070   1.636   2.767  0.8272  1.3504  1.3115
 8988TIP3    H248380   1.030   1.715   2.644  1.3857 -0.9883 -0.4187
 8989TIP3   OH248381   6.326   5.500  16.066  0.2670  0.6677  0.5712
 8989TIP3    H148382   6.335   5.583  16.114  0.5689  0.7191  0.4297
 8989TIP3    H248383   6.327   5.526  15.974 -0.7091  0.6094  0.5373
 8990TIP3   OH248384   5.692   0.994  16.147  0.0900 -0.1658 -0.6220
 8990TIP3    H148385   5.662   1.013  16.236  0.3089 -1.4178 -0.2732
 8990TIP3    H248386   5.772   0.942  16.159  1.2189  1.3427 -1.5518
 8991TIP3   OH248387   1.610   5.125   6.196 -0.2224 -0.0990  0.5032
 8991TIP3    H148388   1.705   5.125   6.185 -0.0348 -4.2366  1.1038
 8991TIP3    H248389   1.597   5.124   6.291 -0.7814 -0.9725  0.4303
 8992TIP3   OH248390   4.460   5.105  16.405  0.1721  0.7074  0.0868
 8992TIP3    H148391   4.454   5.176  16.469 -0.1818  0.2968  0.5181
 8992TIP3    H248392   4.370   5.086  16.381  0.0544 -1.2567  1.8547
 8993TIP3   OH248393   5.225   5.297  12.445  0.0166  0.0327  0.1872
 8993TIP3    H148394   5.187   5.210  12.450  1.5084 -0.6983 -0.8837
 8993TIP3    H248395   5.151   5.356  12.461 -0.8146 -1.4192  1.9150
 8994TIP3   OH248396   1.774   5.679  14.797  0.0836  0.1787 -0.1384
 8994TIP3    H148397   1.694   5.707  14.754  0.0850  1.5330  0.6808
 8994TIP3    H248398   1.841   5.681  14.729 -0.2293  0.7657 -0.4279
 8995TIP3   OH248399   5.300   2.697   3.292 -0.6430 -0.4906 -0.4043
 8995TIP3    H148400   5.292   2.633   3.222 -1.5614  0.0689 -0.8280
 8995TIP3    H248401   5.344   2.772   3.251 -0.9960 -0.2434 -0.3408
 8996TIP3   OH248402   2.193   2.165  13.943 -0.4388 -0.6036 -0.1197
 8996TIP3    H148403   2.160   2.246  13.903  0.0443  0.8497  2.3143
 8996TIP3    H248404   2.288   2.176  13.946 -0.3870 -1.1420  0.4377
 8997TIP3   OH248405   0.590   2.009   5.229 -0.2747 -0.5006 -0.0383
 8997TIP3    H148406   0.635   2.090   5.206 -0.4724  0.2755  2.2098
 8997TIP3    H248407   0.549   2.027   5.313 -1.1099 -2.6356  0.0480
 8998TIP3   OH248408   4.298   1.304  15.246 -0.3988  0.2452  0.3224
 8998TIP3    H148409   4.229   1.344  15.299 -0.6774 -0.9615  0.8790
 8998TIP3    H248410   4.290   1.347  15.161  1.2828  3.5819  1.7396
 8999TIP3   OH248411   4.248   2.131   0.870  0.3398 -0.0756 -0.4246
 8999TIP3    H148412   4.250   2.190   0.945  2.3262 -0.3545 -0.2282
 8999TIP3    H248413   4.232   2.045   0.908 -0.0455 -0.0182 -0.4577
 9000TIP3   OH248414   1.899   2.965  12.597  0.4428 -0.5638  0.3053
 9000TIP3    H148415   1.937   3.051  12.611  2.4330 -1.2236 -0.8335
 9000TIP3    H248416   1.942   2.909  12.662  0.1683 -0.9836  0.1281
 9001TIP3   OH248417   0.741   5.959  11.353  0.1783 -0.4192  0.0725
 9001TIP3    H148418   0.817   5.953  11.295  1.6138 -1.9070  2.0475
 9001TIP3    H248419   0.764   6.028  11.416 -1.1580  0.8324 -0.7715
 9002TIP3   OH248420   6.445   2.484  16.413 -0.0056  0.3281 -0.3170
 9002TIP3    H148421   6.400   2.491  16.497  1.4423  1.1401  0.4179
 9002TIP3    H248422   6.422   2.565  16.366  0.0441  0.3776 -0.2557
 9003TIP3   OH248423   0.530   0.452   2.759  0.4641  0.0358  0.1593
 9003TIP3    H148424   0.564   0.409   2.837 -2.7058 -0.4535  1.3161
 9003TIP3    H248425   0.471   0.388   2.719 -0.8828  1.6775 -0.5394
 9004TIP3   OH248426   3.250   0.040  10.985 -0.0383  0.4585 -0.5296
 9004TIP3    H148427   3.196  -0.040  10.983 -0.8355  1.0102 -1.3902
 9004TIP3    H248428   3.303   0.035  10.906 -1.8780  1.9831 -1.9051
 9005TIP3   OH248429   6.116   0.688  16.783 -0.1720 -0.3497 -0.0458
 9005TIP3    H148430   6.111   0.624  16.712  1.5222 -0.2422 -0.2698
 9005TIP3    H248431   6.140   0.770  16.741  1.1387 -0.3486  0.6709
 9006TIP3   OH248432   5.418   0.304   1.228 -0.1116 -0.2403 -0.1450
 9006TIP3    H148433   5.492   0.316   1.168  1.1256  0.1034  1.4183
 9006TIP3    H248434   5.364   0.382   1.214 -0.2016 -0.5142 -1.3378
 9007TIP3   OH248435   5.241   1.637  13.222  0.0802 -0.1984  0.4389
 9007TIP3    H148436   5.263   1.656  13.313  2.0832  1.0363 -0.2635
 9007TIP3    H248437   5.289   1.556  13.202 -0.0216 -0.2392  0.3604
 9008TIP3   OH248438   2.955   5.529  16.593  0.1114  0.1221  0.4800
 9008TIP3    H148439   3.009   5.491  16.525 -0.6279 -1.8986  0.9865
 9008TIP3    H248440   2.928   5.614  16.558 -0.5029 -0.9986 -1.8609
 9009TIP3   OH248441   4.085   0.393  14.345 -0.2491  0.9658  0.0992
 9009TIP3    H148442   4.000   0.418  14.309 -0.1474  2.6498  0.9673
 9009TIP3    H248443   4.091   0.299  14.329 -1.4331  1.1780 -1.6741
 9010TIP3   OH248444   6.597   0.592  13.167  0.2882 -0.3369  0.0347
 9010TIP3    H148445   6.612   0.545  13.249 -0.0244 -0.1846  0.1779
 9010TIP3    H248446   6.594   0.684  13.193  2.1364 -0.1285 -0.4062
 9011TIP3   OH248447   4.583   0.674   0.641 -0.7657  0.0907 -0.1280
 9011TIP3    H148448   4.655   0.672   0.704 -1.5784  1.1800  0.8835
 9011TIP3    H248449   4.524   0.604   0.670 -0.5300 -0.2198 -0.4134
 9012TIP3   OH248450   4.639   2.662   3.070 -0.1767 -0.3057 -0.2666
 9012TIP3    H148451   4.550   2.642   3.042 -0.5759 -0.9945  1.4196
 9012TIP3    H248452   4.642   2.758   3.074 -1.6245 -0.3215  2.0208
 9013TIP3   OH248453   0.053   3.615  12.129 -0.4478 -0.0680 -0.0289
 9013TIP3    H148454  -0.011   3.599  12.199 -1.3919 -0.8685 -1.0609
 9013TIP3    H248455   0.077   3.707  12.139 -0.2486 -0.2860  1.6177
 9014TIP3   OH248456   3.293   4.025   5.670 -0.1647  0.2776  0.0485
 9014TIP3    H148457   3.229   4.005   5.602  0.2428  0.0907 -0.2812
 9014TIP3    H248458   3.376   3.997   5.634  0.1520  0.8308  0.3448
 9015TIP3   OH248459   3.946   5.389  15.628  0.5054  0.2345  0.0977
 9015TIP3    H148460   4.008   5.315  15.626  0.0125 -0.1748 -0.0763
 9015TIP3    H248461   3.929   5.408  15.536 -0.9657 -0.7867  0.1398
 9016TIP3   OH248462   0.759   5.060  16.334 -0.0435  0.0919 -0.0076
 9016TIP3    H148463   0.718   5.107  16.261 -1.8630 -0.5432  0.5921
 9016TIP3    H248464   0.729   5.105  16.412  0.4289 -0.3589  0.4363
 9017TIP3   OH248465   6.618   1.339   6.270  0.2307  0.1060  0.2869
 9017TIP3    H148466   6.618   1.384   6.355  0.3647  1.7145 -0.5494
 9017TIP3    H248467   6.698   1.368   6.227  0.8812 -1.7956  0.1533
 9018TIP3   OH248468   4.253   4.243  13.007 -0.0347  0.3001  0.0610
 9018TIP3    H148469   4.285   4.200  13.087 -0.0335 -0.1069 -0.1565
 9018TIP3    H248470   4.179   4.189  12.979 -0.2051  0.5984 -0.0634
 9019TIP3   OH248471   6.318   1.984  11.971 -0.0572 -0.7116 -0.2503
 9019TIP3    H148472   6.353   2.031  11.895  0.3603  1.3627  1.1651
 9019TIP3    H248473   6.225   1.975  11.953 -0.2526  1.2099 -0.3081
 9020TIP3   OH248474   0.510   0.772  16.023 -0.2761  0.2494 -0.1350
 9020TIP3    H148475   0.490   0.845  16.082 -2.1087 -0.2324 -0.1339
 9020TIP3    H248476   0.564   0.714  16.076 -1.5148  0.0527  0.9504
 9021TIP3   OH248477   3.348   5.732   5.519  0.4033 -0.1335  0.1861
 9021TIP3    H148478   3.426   5.740   5.573 -0.8555 -0.1692  2.0507
 9021TIP3    H248479   3.318   5.642   5.533  0.8673 -0.6101 -1.7160
 9022TIP3   OH248480   1.503   2.563   5.540  0.0362  0.7035 -0.3119
 9022TIP3    H148481   1.593   2.595   5.532  0.0180  1.4945  2.1332
 9022TIP3    H248482   1.478   2.584   5.630 -1.9504 -1.2164 -0.3680
 9023TIP3   OH248483   6.284   2.410  14.964  0.7774  0.1025  0.1802
 9023TIP3    H148484   6.282   2.340  15.030 -2.2151 -0.6732 -0.6404
 9023TIP3    H248485   6.270   2.490  15.014  2.9169 -0.0073  0.9786
 9024TIP3   OH248486   5.544   1.608   4.588 -0.3374  0.4279  0.2573
 9024TIP3    H148487   5.533   1.570   4.500 -0.6267 -1.6268  1.1608
 9024TIP3    H248488   5.638   1.597   4.606 -0.9950 -3.2900  1.9785
 9025TIP3   OH248489   2.635   0.430   6.044  0.0673 -0.6894 -0.6301
 9025TIP3    H148490   2.633   0.375   5.966  0.5649 -1.3641 -0.1795
 9025TIP3    H248491   2.613   0.371   6.116  0.0544 -0.1764 -0.2091
 9026TIP3   OH248492   0.500   2.355  14.129  0.0736 -0.3295  0.0735
 9026TIP3    H148493   0.421   2.388  14.172  0.2874 -0.1077  0.3011
 9026TIP3    H248494   0.566   2.355  14.198  1.0074  2.0982 -0.7515
 9027TIP3   OH248495   5.175   3.978   2.902  0.7296  0.1999 -0.6373
 9027TIP3    H148496   5.105   3.979   2.967  0.7477  1.7298 -0.6258
 9027TIP3    H248497   5.131   3.959   2.819  0.1059  2.3112 -0.8237
 9028TIP3   OH248498   5.317   5.902   4.886  0.0708  0.3663 -0.3874
 9028TIP3    H148499   5.253   5.830   4.889 -1.6626  1.8786  0.7230
 9028TIP3    H248500   5.316   5.938   4.975  2.2626  0.6220 -0.4507
 9029TIP3   OH248501   5.462   1.319  10.217 -0.2194 -0.4341  0.0965
 9029TIP3    H148502   5.548   1.323  10.176  0.0436 -2.2401  0.4302
 9029TIP3    H248503   5.480   1.332  10.310 -0.1402 -2.1783  0.3330
 9030TIP3   OH248504   1.657   0.209  16.980 -0.0197 -0.1590  0.2914
 9030TIP3    H148505   1.718   0.252  17.040 -0.1176 -1.0016  0.9943
 9030TIP3    H248506   1.571   0.244  17.005  0.1273  0.8518 -0.5477
 9031TIP3   OH248507   6.480   0.187   4.694 -0.2791  0.0949  0.8653
 9031TIP3    H148508   6.386   0.180   4.676  0.3444 -1.0469 -2.2861
 9031TIP3    H248509   6.495   0.122   4.763 -1.4495 -1.3794 -0.2118
 9032TIP3   OH248510   5.984   5.999  13.533  0.0414 -0.1174 -0.2882
 9032TIP3    H148511   5.958   6.080  13.488  0.8355  0.2573 -0.0722
 9032TIP3    H248512   5.984   5.933  13.464  1.8595  0.5833 -0.9697
 9033TIP3   OH248513   3.049   4.640  15.194 -0.1549  0.0466  0.2717
 9033TIP3    H148514   2.995   4.718  15.201 -2.2483 -1.3436  0.0824
 9033TIP3    H248515   3.108   4.644  15.269  0.4695  2.3133 -0.3201
 9034TIP3   OH248516   6.656   5.001   0.690  0.4499  0.0974  0.4492
 9034TIP3    H148517   6.621   4.974   0.605 -1.7298  2.4412  0.5480
 9034TIP3    H248518   6.590   4.972   0.753  0.9153  0.4529  1.0964
 9035TIP3   OH248519   0.175   2.715   2.520  0.8312  0.5052  0.4022
 9035TIP3    H148520   0.144   2.754   2.438 -1.0443  1.0215  1.3214
 9035TIP3    H248521   0.270   2.713   2.512  0.6540  0.3092 -1.8927
 9036TIP3   OH248522   5.466   4.591   0.059 -0.0667  0.5112 -0.3780
 9036TIP3    H148523   5.471   4.523  -0.008  0.6932  0.7046 -0.5243
 9036TIP3    H248524   5.414   4.661   0.020  1.2952  1.0937 -1.1886
 9037TIP3   OH248525   2.858   3.532   3.557  0.5202 -0.2833  0.2793
 9037TIP3    H148526   2.832   3.600   3.494  0.4238  2.0388  2.7742
 9037TIP3    H248527   2.950   3.550   3.576  0.0268  0.2273  2.2538
 9038TIP3   OH248528   3.500   4.124  16.318 -0.5727  0.6315 -0.8775
 9038TIP3    H148529   3.449   4.056  16.274  1.2324 -0.6102 -1.0931
 9038TIP3    H248530   3.577   4.136  16.262  0.7051  0.5528  0.8474
 9039TIP3   OH248531   2.300   4.946   4.571 -0.3161 -0.0934  0.5336
 9039TIP3    H148532   2.239   4.879   4.539 -0.5999 -0.2176  1.2984
 9039TIP3    H248533   2.368   4.896   4.617  1.4818 -0.1005 -2.0175
 9040TIP3   OH248534   0.170   2.767  12.329  0.2426 -0.4377 -0.0720
 9040TIP3    H148535   0.097   2.715  12.296  1.3207 -0.8847 -1.8272
 9040TIP3    H248536   0.133   2.853  12.345 -0.7047 -0.6895 -0.8438
 9041TIP3   OH248537   6.120   5.797  15.333 -0.2285  0.4497 -0.0616
 9041TIP3    H148538   6.124   5.790  15.238  0.6611 -0.5856  0.0455
 9041TIP3    H248539   6.091   5.887  15.349 -0.9458  0.4591 -1.3114
 9042TIP3   OH248540   0.308   2.139  10.941 -0.5759  0.4271 -0.2875
 9042TIP3    H148541   0.397   2.175  10.941 -0.7632  0.9236  0.9817
 9042TIP3    H248542   0.251   2.216  10.946 -0.9802  0.0056  2.7910
 9043TIP3   OH248543   5.745   3.918   6.009  0.9848  0.1981  0.1444
 9043TIP3    H148544   5.702   3.925   6.094  1.4045 -1.1145  0.4723
 9043TIP3    H248545   5.689   3.860   5.958  0.8454  0.8127 -0.4180
 9044TIP3   OH248546   4.248   5.341   0.072 -0.2112  0.3208 -0.0178
 9044TIP3    H148547   4.323   5.400   0.077 -0.4050  0.6759 -1.2531
 9044TIP3    H248548   4.178   5.389   0.118  0.0421  0.4008  0.2886
 9045TIP3   OH248549   6.129   4.200   1.837 -0.1963  0.3075 -0.6674
 9045TIP3    H148550   6.215   4.211   1.798  0.3174  0.4622  0.5039
 9045TIP3    H248551   6.145   4.194   1.931 -1.6177  2.2133 -0.2683
 9046TIP3   OH248552   6.224   3.594   0.521 -0.1916  0.0893 -0.0468
 9046TIP3    H148553   6.284   3.663   0.549 -0.4440  0.0528  0.5976
 9046TIP3    H248554   6.212   3.609   0.427  3.3265 -1.8208 -0.8851
 9047TIP3   OH248555   0.533   2.203  14.921  0.1320  0.5369 -0.2063
 9047TIP3    H148556   0.472   2.272  14.944 -1.3071 -0.6784 -0.3044
 9047TIP3    H248557   0.595   2.200  14.995 -2.3178 -0.9069  1.8937
 9048TIP3   OH248558   1.276   2.970  15.628  0.1807  0.7931  0.1929
 9048TIP3    H148559   1.297   2.880  15.654  1.1622  1.4942  1.9153
 9048TIP3    H248560   1.358   3.005  15.594 -1.1064 -0.1353 -4.1338
 9049TIP3   OH248561   1.686   0.560   5.202  0.2688  0.0442  0.2836
 9049TIP3    H148562   1.771   0.517   5.204  1.3774  2.1422 -0.0689
 9049TIP3    H248563   1.672   0.588   5.292 -0.1612 -0.4796  0.3841
 9050TIP3   OH248564   3.259   3.824  16.059  0.2236 -0.2362  0.3184
 9050TIP3    H148565   3.299   3.805  16.144  0.8693 -0.6145 -0.0627
 9050TIP3    H248566   3.178   3.871  16.080  1.6263  1.9594  1.0731
 9051TIP3   OH248567   2.582   6.588   2.872  0.2608  0.5923  0.1421
 9051TIP3    H148568   2.580   6.645   2.795  1.1897 -0.1981 -0.4751
 9051TIP3    H248569   2.644   6.631   2.932  0.2994  0.6807  0.0396
 9052TIP3   OH248570   2.334   5.937   1.528 -0.0658 -0.1259 -0.1286
 9052TIP3    H148571   2.323   6.004   1.595  0.6105  0.7298 -0.8652
 9052TIP3    H248572   2.308   5.980   1.447  0.8819 -0.5852 -0.6850
 9053TIP3   OH248573   2.120   2.282   1.064  0.3387  0.9588  0.4420
 9053TIP3    H148574   2.121   2.186   1.061  2.4358  0.9669  0.0509
 9053TIP3    H248575   2.032   2.304   1.095 -0.5497 -1.0569 -0.5298
 9054TIP3   OH248576   6.471   1.550   5.195  0.1475 -0.3624  0.1176
 9054TIP3    H148577   6.395   1.607   5.179  0.4561 -0.0584 -0.2722
 9054TIP3    H248578   6.544   1.610   5.207  0.8966 -0.6929 -2.4232
 9055TIP3   OH248579   1.195   2.496  14.115 -0.3077  0.1374  0.4844
 9055TIP3    H148580   1.191   2.588  14.087  0.7593 -0.3946 -1.4301
 9055TIP3    H248581   1.110   2.460  14.090 -0.9384  0.7201  1.7288
 9056TIP3   OH248582   5.702   4.956   0.712 -0.0514  0.6158 -0.2926
 9056TIP3    H148583   5.657   4.900   0.775  2.0232  1.5128  2.0339
 9056TIP3    H248584   5.754   4.896   0.659  0.3382  0.1114  0.6522
 9057TIP3   OH248585   6.387   0.446   2.023 -0.1477 -0.3799  0.1596
 9057TIP3    H148586   6.396   0.405   2.109 -1.3640 -0.3994  0.2973
 9057TIP3    H248587   6.463   0.416   1.974  0.6546 -0.2284  1.2806
 9058TIP3   OH248588   0.365   3.692   2.609 -0.0738  0.5389 -0.2708
 9058TIP3    H148589   0.409   3.665   2.528 -0.8773  0.5762 -0.7219
 9058TIP3    H248590   0.335   3.610   2.648 -0.0933  0.5550 -0.2517
 9059TIP3   OH248591   4.176   3.623   5.394  0.7076 -0.6232 -0.1661
 9059TIP3    H148592   4.146   3.688   5.330 -0.0534 -1.2744 -0.4939
 9059TIP3    H248593   4.270   3.618   5.381  0.8796  0.9069  0.3422
 9060TIP3   OH248594   1.157   0.501  13.847 -0.4495  0.2492 -0.3258
 9060TIP3    H148595   1.104   0.465  13.918  0.6430 -0.6846  0.0266
 9060TIP3    H248596   1.108   0.578  13.818 -1.0982  0.4330  1.1871
 9061TIP3   OH248597   3.368   4.528   0.554  0.5690 -0.0255 -0.5088
 9061TIP3    H148598   3.445   4.497   0.603  0.9639 -0.6563 -1.5127
 9061TIP3    H248599   3.298   4.468   0.581  0.3566  0.7406  0.6374
 9062TIP3   OH248600   3.327   5.472  16.220 -0.1374 -0.3312 -0.1810
 9062TIP3    H148601   3.383   5.422  16.280  3.3769  1.9885 -1.3765
 9062TIP3    H248602   3.299   5.548  16.271  2.9950  1.7328 -1.4115
 9063TIP3   OH248603   4.882   1.652   6.707 -0.5118  0.1019  0.5028
 9063TIP3    H148604   4.843   1.565   6.722  1.0773 -0.6931  0.0815
 9063TIP3    H248605   4.936   1.641   6.629  1.4446  0.8988  1.7043
 9064TIP3   OH248606   5.821   4.057   3.131 -0.5802  0.3258  0.0655
 9064TIP3    H148607   5.877   4.025   3.202  0.2254  1.0136 -0.2511
 9064TIP3    H248608   5.808   3.981   3.074 -0.3521  0.0482  0.3870
 9065TIP3   OH248609   2.121   1.434   4.831  0.4342  0.6212 -0.0831
 9065TIP3    H148610   2.045   1.484   4.803 -0.6766  0.1387  1.9824
 9065TIP3    H248611   2.110   1.424   4.926  3.3592  1.0126  0.3399
 9066TIP3   OH248612   1.208   6.659  13.231 -0.6122  0.3200  0.2849
 9066TIP3    H148613   1.122   6.660  13.188 -0.5409 -2.1986  0.0131
 9066TIP3    H248614   1.247   6.577  13.202  1.8683  1.4072  0.4817
 9067TIP3   OH248615   1.660   0.327  15.490  0.9068 -0.1325 -0.5450
 9067TIP3    H148616   1.596   0.386  15.529  1.2965 -1.2530  1.8685
 9067TIP3    H248617   1.637   0.325  15.397 -1.4482  0.8726 -0.0218
 9068TIP3   OH248618   3.063   5.410  14.065  0.1687 -0.0687 -1.2616
 9068TIP3    H148619   2.967   5.413  14.068  0.1786 -1.0803  0.9103
 9068TIP3    H248620   3.086   5.326  14.105  2.0105  1.1036  0.2559
 9069TIP3   OH248621   2.999   1.028  16.023 -0.0479 -1.3837 -0.3204
 9069TIP3    H148622   2.992   1.120  16.047 -1.0715 -1.5320 -0.0232
 9069TIP3    H248623   3.053   1.027  15.944 -0.4350 -0.4852 -0.5967
 9070TIP3   OH248624   5.746   2.790   5.282  0.3898  0.4603 -0.1863
 9070TIP3    H148625   5.805   2.752   5.216  1.5753  1.7243  0.1308
 9070TIP3    H248626   5.797   2.861   5.321  0.3618 -1.3377  3.3191
 9071TIP3   OH248627   0.236   4.386  16.745  0.0678 -0.6805 -0.0313
 9071TIP3    H148628   0.147   4.350  16.745 -0.1468 -0.1719  0.7859
 9071TIP3    H248629   0.277   4.347  16.823  0.2806 -0.2389  0.0758
 9072TIP3   OH248630   6.147   5.523   1.698  0.0348 -0.3667 -0.1604
 9072TIP3    H148631   6.086   5.452   1.676 -2.5796  1.0186  2.4388
 9072TIP3    H248632   6.230   5.495   1.658 -1.7904 -3.1549 -2.2367
 9073TIP3   OH248633   6.576   1.420  12.724 -0.8754 -0.3874  0.6021
 9073TIP3    H148634   6.595   1.508  12.693 -0.5314 -1.5700 -2.7213
 9073TIP3    H248635   6.485   1.405  12.701 -0.9440 -0.9089  1.1873
 9074TIP3   OH248636   5.155   3.235   2.629 -0.8056  0.0472  0.0709
 9074TIP3    H148637   5.148   3.328   2.648 -0.4659  0.0462  0.2013
 9074TIP3    H248638   5.101   3.222   2.551 -0.7051  0.3867 -0.0531
 9075TIP3   OH248639   3.893   3.122   1.283  0.0559  0.3447 -0.0192
 9075TIP3    H148640   3.964   3.160   1.335 -1.3562  0.4786  1.8557
 9075TIP3    H248641   3.833   3.195   1.268 -0.2397 -0.0270 -0.6503
 9076TIP3   OH248642   0.164   6.098   2.395  0.4380 -0.1262  0.1161
 9076TIP3    H148643   0.126   6.011   2.383  2.0585 -0.8610  0.2509
 9076TIP3    H248644   0.127   6.150   2.323 -0.2319 -1.0120 -0.1966
 9077TIP3   OH248645   5.019   6.408  13.181  0.3160  0.1218 -0.6381
 9077TIP3    H148646   5.045   6.316  13.191  1.8569  0.5897 -0.2450
 9077TIP3    H248647   4.939   6.404  13.129 -0.8544 -1.5838  1.2191
 9078TIP3   OH248648   3.586   1.917  17.106  0.1999 -0.2039 -0.6153
 9078TIP3    H148649   3.611   2.010  17.111  0.1681 -0.2896  1.9347
 9078TIP3    H248650   3.665   1.870  17.129 -0.5319 -0.6911  0.9970
 9079TIP3   OH248651   2.785   5.316   0.549  0.6464  0.2662 -0.7578
 9079TIP3    H148652   2.808   5.409   0.556 -0.3251  0.4824 -0.3513
 9079TIP3    H248653   2.797   5.282   0.638 -0.5609  0.3692 -0.5555
 9080TIP3   OH248654   5.850   5.896  14.002  0.1169 -0.0728  0.1577
 9080TIP3    H148655   5.940   5.879  13.972  0.3355 -0.2920  0.9158
 9080TIP3    H248656   5.806   5.932  13.925  1.5031  2.2970  0.4067
 9081TIP3   OH248657   0.835   5.527   1.018  0.1817  0.8042  0.2279
 9081TIP3    H148658   0.839   5.621   1.033 -0.2846  0.6273  1.5718
 9081TIP3    H248659   0.908   5.491   1.068  0.4571  0.4628 -0.4096
 9082TIP3   OH248660   4.836   2.236   1.590 -0.6556  0.6392 -0.3730
 9082TIP3    H148661   4.803   2.154   1.627  0.0592  0.8949  0.8899
 9082TIP3    H248662   4.916   2.212   1.545 -0.1609  0.7151  0.4542
 9083TIP3   OH248663   2.417   5.075   5.802 -0.1463  0.4866 -0.2281
 9083TIP3    H148664   2.504   5.103   5.773 -1.0928  2.2273 -1.5032
 9083TIP3    H248665   2.407   5.113   5.890  0.2219  0.6487 -0.2560
 9084TIP3   OH248666   6.448   1.390  11.406 -0.0291 -0.2288 -0.8920
 9084TIP3    H148667   6.477   1.437  11.328 -1.8293  0.4391 -1.1769
 9084TIP3    H248668   6.501   1.426  11.477 -1.2003  2.0940 -1.1494
 9085TIP3   OH248669   4.781   6.749   3.069  0.2495 -0.0782  0.1363
 9085TIP3    H148670   4.813   6.722   2.983 -0.1272  1.8499 -0.6363
 9085TIP3    H248671   4.795   6.672   3.125 -0.0875 -1.5826 -1.7749
 9086TIP3   OH248672   4.345   4.192   0.512 -0.5267  0.1595 -0.0619
 9086TIP3    H148673   4.285   4.157   0.578  0.6283  1.9993  2.0288
 9086TIP3    H248674   4.328   4.287   0.512  0.8717  0.4244 -0.9748
 9087TIP3   OH248675   4.747   4.806  13.424  0.3425  0.1621 -0.2281
 9087TIP3    H148676   4.802   4.870  13.468  0.3459  0.4790 -0.6926
 9087TIP3    H248677   4.768   4.815  13.331 -0.7132  0.5120 -0.4443
 9088TIP3   OH248678   4.992   3.563   0.801  0.1944 -0.0776 -0.0575
 9088TIP3    H148679   5.049   3.638   0.821 -0.2961  0.5647 -1.0166
 9088TIP3    H248680   5.018   3.496   0.864  2.1703  0.1366 -0.6049
 9089TIP3   OH248681   0.507   6.223  15.727 -0.4417  1.4701  0.4288
 9089TIP3    H148682   0.514   6.136  15.766  2.4043  1.7703  0.7328
 9089TIP3    H248683   0.486   6.281  15.800 -1.5169  1.1728  0.3664
 9090TIP3   OH248684   5.942   3.703   0.199  0.4717 -0.6136  0.5533
 9090TIP3    H148685   5.933   3.752   0.118  2.9848 -1.6171 -0.3816
 9090TIP3    H248686   5.891   3.623   0.186  0.2929 -0.4432  0.2304
 9091TIP3   OH248687   4.594   2.345  15.983 -0.2265 -0.0204  0.1236
 9091TIP3    H148688   4.628   2.329  16.070  0.6475  2.0086  0.2016
 9091TIP3    H248689   4.668   2.383  15.935 -1.1920  0.5640 -0.9390
 9092TIP3   OH248690   2.467   2.024   1.786  0.0953 -0.0182  0.1165
 9092TIP3    H148691   2.527   2.078   1.734  0.3456  0.1558  0.5749
 9092TIP3    H248692   2.409   2.088   1.829  0.1298 -0.1367  0.3409
 9093TIP3   OH248693   5.867   4.787   0.936  0.2437  0.2039 -0.3665
 9093TIP3    H148694   5.838   4.834   1.015  0.0153  0.9418 -0.8867
 9093TIP3    H248695   5.787   4.754   0.896  0.1724  1.5110 -1.3398
 9094TIP3   OH248696   5.514   5.923   4.154  0.3151  0.7581  0.0911
 9094TIP3    H148697   5.535   6.009   4.190  1.1971 -0.7375  3.2844
 9094TIP3    H248698   5.595   5.872   4.164 -0.9256 -1.1739  0.5367
 9095TIP3   OH248699   5.197   6.033   4.402 -0.2488 -0.2724  0.3738
 9095TIP3    H148700   5.264   6.087   4.443 -0.0234  0.8651 -1.4610
 9095TIP3    H248701   5.117   6.054   4.451  0.2541  0.1346  1.0355
 9096TIP3   OH248702   4.909   6.676   3.967 -0.4267  0.5440  0.1479
 9096TIP3    H148703   4.856   6.599   3.986 -1.5320  1.1568 -0.4561
 9096TIP3    H248704   4.995   6.655   4.004 -0.9449 -0.6417  0.7035
 9097TIP3   OH248705   5.697   4.183   2.873  0.6789 -0.0348 -0.1801
 9097TIP3    H148706   5.651   4.126   2.812  2.6930 -1.1693 -0.6783
 9097TIP3    H248707   5.784   4.195   2.834  1.3390  0.7916  1.4931
 9098TIP3   OH248708   5.385   3.287  16.109 -0.1871 -0.1025  0.1192
 9098TIP3    H148709   5.411   3.338  16.186  3.4108  0.3140 -1.3281
 9098TIP3    H248710   5.407   3.196  16.132 -3.4169 -0.6931  1.3102
 9099TIP3   OH248711   0.048   5.297  15.296 -0.0019 -0.1719 -0.1535
 9099TIP3    H148712   0.129   5.278  15.343  0.5807 -2.6777 -2.0864
 9099TIP3    H248713   0.070   5.372  15.241  0.6644 -0.1118  0.1825
 9100TIP3   OH248714   0.325   5.970   5.893  0.4093 -0.3090  0.7358
 9100TIP3    H148715   0.343   6.062   5.874 -0.1038 -0.1999  0.7763
 9100TIP3    H248716   0.281   5.937   5.815  3.6313 -1.4266 -0.6968
 9101TIP3   OH248717   5.307   5.106   6.219  0.0919  0.1978 -0.4646
 9101TIP3    H148718   5.359   5.073   6.293  1.1336 -1.4158 -1.8791
 9101TIP3    H248719   5.293   5.198   6.239 -0.8540 -0.5317  2.4223
 9102TIP3   OH248720   5.186   0.866  13.863 -0.0669 -1.0350  0.0366
 9102TIP3    H148721   5.113   0.883  13.924  0.0854  0.2754 -0.1261
 9102TIP3    H248722   5.252   0.930  13.888  0.7055 -1.6818 -0.3608
 9103TIP3   OH248723   2.932   6.736   2.764 -0.1087 -0.0226  0.1486
 9103TIP3    H148724   2.961   6.819   2.726  1.4708  0.0156  1.3638
 9103TIP3    H248725   2.866   6.761   2.829 -1.1731  0.0966 -0.9677
 9104TIP3   OH248726   3.709   3.893   4.934 -0.5900  0.1734  0.1433
 9104TIP3    H148727   3.804   3.900   4.926 -0.5696 -1.7782 -1.9223
 9104TIP3    H248728   3.680   3.984   4.942  1.4428  0.7925  0.9457
 9105TIP3   OH248729   5.230   6.036  12.304 -0.6248  0.7804  0.0483
 9105TIP3    H148730   5.266   5.957  12.345  0.1407  2.1078  2.0529
 9105TIP3    H248731   5.146   6.008  12.267  0.0067 -1.1455  0.0050
 9106TIP3   OH248732   1.233   6.737   4.998 -0.0991 -0.3206 -0.0180
 9106TIP3    H148733   1.197   6.667   4.944  0.8251  0.1049 -1.2015
 9106TIP3    H248734   1.318   6.757   4.959  0.7652 -0.2751  1.8385
 9107TIP3   OH248735   1.111   4.004  12.397 -0.3124 -0.0067  0.0746
 9107TIP3    H148736   1.106   4.051  12.480  0.2813  0.1675  0.0127
 9107TIP3    H248737   1.134   3.914  12.421  2.4258  0.6210 -0.0608
 9108TIP3   OH248738   0.824   6.530   1.302 -0.3664 -0.3206 -0.5694
 9108TIP3    H148739   0.780   6.517   1.386 -0.6403 -0.7959 -0.7852
 9108TIP3    H248740   0.755   6.563   1.244 -0.3100 -0.5363 -0.7586
 9109TIP3   OH248741   4.966   2.432  10.511  0.5141  0.1710  0.0779
 9109TIP3    H148742   4.918   2.367  10.562 -0.3688  1.2714  0.6896
 9109TIP3    H248743   4.926   2.428  10.424 -0.5144  0.8840  0.5083
 9110TIP3   OH248744   3.042   3.777   3.497  0.4026  0.0884  0.5291
 9110TIP3    H148745   3.087   3.699   3.530 -2.0676 -2.1333 -1.1913
 9110TIP3    H248746   3.080   3.792   3.411 -0.3438 -0.2848  0.1298
 9111TIP3   OH248747   0.590   0.523  13.968  0.5494 -0.4090 -0.1614
 9111TIP3    H148748   0.670   0.472  13.981  0.8226  0.2454  0.7475
 9111TIP3    H248749   0.548   0.524  14.053 -1.1478 -1.9305 -0.9567
 9112TIP3   OH248750   4.071   0.889   5.128  0.4677 -0.3900  0.1866
 9112TIP3    H148751   4.146   0.908   5.072  0.3205  1.1666  0.4905
 9112TIP3    H248752   4.019   0.969   5.126 -0.1341 -0.7340  1.5910
 9113TIP3   OH248753   0.173   4.455   1.192  0.4280 -0.0884  0.1526
 9113TIP3    H148754   0.210   4.537   1.158 -1.1422  0.5037 -0.1884
 9113TIP3    H248755   0.211   4.387   1.136  1.6102  0.4271  0.3257
 9114TIP3   OH248756   6.543   6.104   4.923 -0.1306 -0.2573 -0.1797
 9114TIP3    H148757   6.492   6.164   4.977  0.5821  0.3809 -0.2040
 9114TIP3    H248758   6.553   6.150   4.840 -0.5577 -0.9027 -0.5966
 9115TIP3   OH248759   1.005   1.545  10.832  0.2850 -0.0464 -0.2403
 9115TIP3    H148760   0.988   1.553  10.926 -0.0267  0.8563 -0.3674
 9115TIP3    H248761   0.945   1.607  10.791  1.7874  1.0245 -0.8976
 9116TIP3   OH248762   0.329   4.939   4.745  0.2873 -0.0561 -0.0538
 9116TIP3    H148763   0.283   4.889   4.813 -0.6860  1.9311  0.7943
 9116TIP3    H248764   0.334   4.879   4.671 -3.9401 -0.2873 -0.2679
 9117TIP3   OH248765   2.401   2.573   5.828 -0.0312 -0.2305  0.1330
 9117TIP3    H148766   2.406   2.506   5.897  0.8249 -0.3478 -0.0445
 9117TIP3    H248767   2.485   2.619   5.833  0.9444 -1.7044 -2.3300
 9118TIP3   OH248768   0.661   5.276  12.527 -0.1754 -0.5485  0.5085
 9118TIP3    H148769   0.704   5.336  12.588 -0.1208 -0.0826  0.0205
 9118TIP3    H248770   0.567   5.288  12.544 -0.2702  1.3191 -1.0885
 9119TIP3   OH248771   1.600   1.503  14.916 -0.4196  0.1809 -0.4544
 9119TIP3    H148772   1.530   1.544  14.865 -0.8212 -0.2868 -0.2954
 9119TIP3    H248773   1.554   1.436  14.968  0.1063  0.0788 -0.1257
 9120TIP3   OH248774   4.647   4.314  17.008 -0.6624  0.0023  0.2486
 9120TIP3    H148775   4.681   4.297  17.095  0.9454  0.3229 -0.2903
 9120TIP3    H248776   4.699   4.387  16.976 -1.6507  0.2814 -0.7401
 9121TIP3   OH248777   2.970   3.785  11.785  0.8004 -0.5107 -0.4968
 9121TIP3    H148778   2.907   3.776  11.714  0.3038  0.4690 -0.1853
 9121TIP3    H248779   3.043   3.834  11.746  0.5960 -0.1071 -0.3690
 9122TIP3   OH248780   5.744   5.219  13.606  0.0158  0.6214 -0.2684
 9122TIP3    H148781   5.743   5.287  13.538 -3.5311 -0.2981 -1.2250
 9122TIP3    H248782   5.683   5.251  13.673  0.3714 -0.4002  0.5538
 9123TIP3   OH248783   3.086   4.618  14.723  0.1566 -0.9038 -0.3497
 9123TIP3    H148784   3.159   4.640  14.781  0.3218 -4.6595  0.9472
 9123TIP3    H248785   3.011   4.667  14.759  1.5547  1.4669 -0.5700
 9124TIP3   OH248786   4.892   2.217  15.107  0.4261 -0.0909  0.5508
 9124TIP3    H148787   4.842   2.225  15.188 -0.0767 -0.3454  0.2686
 9124TIP3    H248788   4.862   2.291  15.053  2.4470  1.4594  1.4853
 9125TIP3   OH248789   5.781   3.675  12.949 -0.3721  0.1145 -0.0582
 9125TIP3    H148790   5.871   3.675  12.979  0.2514  1.6886 -1.8187
 9125TIP3    H248791   5.745   3.758  12.979 -0.6522  0.3431 -0.9974
 9126TIP3   OH248792   1.985   0.898   0.974 -0.0248  0.0551 -0.4804
 9126TIP3    H148793   1.896   0.872   0.995  0.4635 -2.1160 -0.8663
 9126TIP3    H248794   2.026   0.916   1.058 -0.8714  1.2264 -0.3153
 9127TIP3   OH248795   3.022   3.512  15.583 -0.3745 -0.4759 -0.5647
 9127TIP3    H148796   2.990   3.463  15.659 -2.9031 -1.3288 -2.1104
 9127TIP3    H248797   3.117   3.501  15.586 -0.4398 -0.6956  2.3068
 9128TIP3   OH248798   6.782   4.951   5.948 -0.1446  0.0285 -0.3287
 9128TIP3    H148799   6.781   4.899   6.028  1.2806 -1.2889 -1.1406
 9128TIP3    H248800   6.724   4.905   5.887  0.8569 -0.4525 -0.9372
 9129TIP3   OH248801   3.743   2.458   0.967 -0.7205 -0.1332 -0.6578
 9129TIP3    H148802   3.745   2.470   0.872 -1.9275  2.2834 -0.4186
 9129TIP3    H248803   3.816   2.399   0.986  0.1549  0.1816 -2.9789
 9130TIP3   OH248804   2.933   0.071   4.770  0.4016  0.1173 -0.1858
 9130TIP3    H148805   2.850   0.116   4.750 -0.7634 -1.2822  1.3209
 9130TIP3    H248806   2.932  -0.006   4.713  0.4655 -0.0932  0.0936
 9131TIP3   OH248807   0.256   0.845  13.482 -0.4054  0.4396  0.1230
 9131TIP3    H148808   0.209   0.764  13.460  4.1066 -2.3694  0.0998
 9131TIP3    H248809   0.223   0.870  13.567 -1.2504 -2.0411  0.5724
 9132TIP3   OH248810   5.360   0.296   3.440 -0.1694  0.6079  0.0228
 9132TIP3    H148811   5.357   0.386   3.409  0.5774  0.6322  0.0160
 9132TIP3    H248812   5.426   0.254   3.384  1.4481  0.7306  1.8030
 9133TIP3   OH248813   3.328   5.304   3.347 -0.7025  0.0172  0.1695
 9133TIP3    H148814   3.361   5.394   3.354  0.6180 -0.3892 -0.6701
 9133TIP3    H248815   3.398   5.256   3.303 -0.9035 -1.6907  1.6216
 9134TIP3   OH248816   1.580   5.261   3.021  0.1727 -0.4166 -0.3076
 9134TIP3    H148817   1.615   5.277   2.933  0.8545  0.1692  0.0731
 9134TIP3    H248818   1.503   5.319   3.026 -0.1813 -0.8419 -0.7073
 9135TIP3   OH248819   6.190   0.250  14.487  0.5099 -0.7929 -0.8817
 9135TIP3    H148820   6.128   0.288  14.424  0.2480  0.1321 -0.0805
 9135TIP3    H248821   6.136   0.232  14.565  0.7489 -2.2971 -1.0509
 9136TIP3   OH248822   5.524   5.770   3.257  0.3891 -0.3128 -0.3230
 9136TIP3    H148823   5.502   5.863   3.259  1.1052 -0.1645  2.1661
 9136TIP3    H248824   5.475   5.732   3.329 -1.5997 -2.3060 -2.6285
 9137TIP3   OH248825   4.732   6.143  15.757  0.0602  0.0708 -0.2551
 9137TIP3    H148826   4.779   6.173  15.835 -0.0382 -0.6643  0.0925
 9137TIP3    H248827   4.792   6.159  15.684  0.0202  1.0788 -0.0752
 9138TIP3   OH248828   1.128   4.662   2.793  0.0638  0.4500  0.4123
 9138TIP3    H148829   1.181   4.648   2.714  0.0305  2.5727 -0.0367
 9138TIP3    H248830   1.192   4.676   2.863  0.1022  0.3837  0.3900
 9139TIP3   OH248831   4.713   1.730  16.055  0.0875  0.2744 -0.3061
 9139TIP3    H148832   4.739   1.651  16.102 -1.1044  0.4510  0.6743
 9139TIP3    H248833   4.744   1.717  15.965  0.2092 -1.1334 -0.0550
 9140TIP3   OH248834   5.235   2.721   0.332 -0.3629  0.2038 -0.2197
 9140TIP3    H148835   5.229   2.752   0.241  0.1958  0.0132 -0.3195
 9140TIP3    H248836   5.192   2.636   0.331 -0.4131  0.2300 -0.2907
 9141TIP3   OH248837   3.159   0.631  16.871  0.0137  0.0882  0.5357
 9141TIP3    H148838   3.075   0.639  16.826  0.5186  0.5211 -0.3380
 9141TIP3    H248839   3.146   0.561  16.935 -0.7939 -0.3433 -0.0949
 9142TIP3   OH248840   6.419   2.727   6.638 -0.3146 -0.0223  0.1395
 9142TIP3    H148841   6.344   2.785   6.644 -1.2056 -1.2086  0.6327
 9142TIP3    H248842   6.382   2.639   6.628  0.9641 -0.8086  1.9294
 9143TIP3   OH248843   0.092   1.446   4.957 -0.9009 -0.0808  1.1010
 9143TIP3    H148844   0.101   1.461   5.051  0.3562  0.0587  0.9674
 9143TIP3    H248845   0.127   1.358   4.942  0.1393  0.4001  0.5921
 9144TIP3   OH248846   0.627   3.896   1.530 -0.6451  0.1514  0.3578
 9144TIP3    H148847   0.560   3.861   1.589 -1.2104  0.1372 -0.2821
 9144TIP3    H248848   0.622   3.840   1.453  0.3140 -0.0291  0.4195
 9145TIP3   OH248849   6.254   2.360   0.123  0.3699  0.4853 -0.1828
 9145TIP3    H148850   6.292   2.275   0.100 -1.8952 -0.5543 -0.2256
 9145TIP3    H248851   6.264   2.365   0.219 -1.5389 -0.8733  0.1016
 9146TIP3   OH248852   4.568   4.624   3.807 -0.2167 -0.4102  0.7929
 9146TIP3    H148853   4.605   4.536   3.812  0.3065 -0.1972  0.7437
 9146TIP3    H248854   4.474   4.610   3.803 -0.1336 -0.9738  0.7012
 9147TIP3   OH248855   2.366   0.990  16.664  0.0248  0.4211 -0.0532
 9147TIP3    H148856   2.289   1.023  16.618  0.2464  3.1673  1.4123
 9147TIP3    H248857   2.417   1.069  16.683  1.6958 -1.0484  1.6523
 9148TIP3   OH248858   0.179   6.314  13.017 -0.9186  0.1941  0.0973
 9148TIP3    H148859   0.121   6.375  12.971 -3.1183  0.0731  2.5760
 9148TIP3    H248860   0.225   6.368  13.082  0.8564  0.0667 -1.0252
 9149TIP3   OH248861   4.408   2.412  15.684 -0.1821 -0.6324  0.3886
 9149TIP3    H148862   4.337   2.359  15.721  0.5425 -1.0895  1.1184
 9149TIP3    H248863   4.374   2.502  15.688 -0.4903 -0.7838  1.2783
 9150TIP3   OH248864   1.004   4.366  11.794  0.5070 -1.0877 -0.2536
 9150TIP3    H148865   1.092   4.330  11.809 -0.2303 -2.6422  0.5209
 9150TIP3    H248866   0.969   4.383  11.882  0.5141  0.7579 -0.5945
 9151TIP3   OH248867   4.944   5.449   1.281  0.0011  0.5785 -0.2076
 9151TIP3    H148868   5.005   5.480   1.213 -0.7767  2.3788 -0.0920
 9151TIP3    H248869   4.996   5.388   1.333  0.6242 -0.8686 -2.4076
 9152TIP3   OH248870   0.366   3.673   3.192  0.6536  0.3932 -0.5230
 9152TIP3    H148871   0.301   3.648   3.258 -0.1175  2.4255 -0.4805
 9152TIP3    H248872   0.354   3.609   3.122 -2.4083  1.5564 -1.1408
 9153TIP3   OH248873   1.727   2.914   2.687 -0.4603  0.2665 -0.1067
 9153TIP3    H148874   1.773   2.851   2.742 -1.1971  1.3039  1.7536
 9153TIP3    H248875   1.634   2.898   2.705 -0.6506  1.8702  0.4123
 9154TIP3   OH248876   6.408   0.622   0.373  0.1899  0.7694  0.1304
 9154TIP3    H148877   6.410   0.528   0.359  0.2795  0.7496  0.2748
 9154TIP3    H248878   6.318   0.647   0.353  0.2075  0.6791 -0.0652
 9155TIP3   OH248879   4.729   6.569   5.839  0.1731 -0.5913  0.4355
 9155TIP3    H148880   4.694   6.498   5.893  0.6014 -0.3039  1.0820
 9155TIP3    H248881   4.697   6.649   5.880 -1.6484 -0.4283 -1.2041
 9156TIP3   OH248882   0.740   3.754  14.431  0.0342  0.1572 -0.2603
 9156TIP3    H148883   0.832   3.741  14.455 -0.2087  0.1227  0.6341
 9156TIP3    H248884   0.743   3.771  14.336  0.9473  0.0234 -0.2601
 9157TIP3   OH248885   0.467   0.919  13.294  0.2621 -0.2575  0.0744
 9157TIP3    H148886   0.394   0.875  13.337 -0.5888 -0.4804 -1.5336
 9157TIP3    H248887   0.441   1.011  13.288  0.9999  0.0328  1.3077
 9158TIP3   OH248888   3.726   5.982   3.412  0.4149  0.6861  0.3471
 9158TIP3    H148889   3.780   6.061   3.420 -0.6428  1.4290  0.1707
 9158TIP3    H248890   3.659   6.005   3.348  0.1343 -0.3863  0.2388
 9159TIP3   OH248891   5.950   4.320  14.618 -0.1038 -0.2484 -0.2801
 9159TIP3    H148892   5.899   4.347  14.695 -0.4402  2.3448 -1.3713
 9159TIP3    H248893   6.013   4.257  14.652  1.2899  2.5396  2.5757
 9160TIP3   OH248894   5.891   4.626   2.441 -0.3992 -1.1906  0.1550
 9160TIP3    H148895   5.806   4.581   2.440 -1.3926  0.6108  1.1359
 9160TIP3    H248896   5.955   4.555   2.455 -1.5893 -2.7305 -1.9012
 9161TIP3   OH248897   0.393   1.319  12.391 -0.1701  0.0248  0.1798
 9161TIP3    H148898   0.481   1.337  12.358  0.3350 -0.5766  1.1776
 9161TIP3    H248899   0.336   1.375  12.338  0.7561  0.0759 -0.7854
 9162TIP3   OH248900   2.833   3.192   1.331 -0.3984  0.6971  0.3383
 9162TIP3    H148901   2.738   3.200   1.318 -0.2907  2.2206  0.3923
 9162TIP3    H248902   2.846   3.218   1.422  0.0062 -0.1602  0.5279
 9163TIP3   OH248903   2.289   4.018   0.111 -0.1601 -0.3905 -0.8824
 9163TIP3    H148904   2.337   4.009   0.029 -0.6085 -0.9087 -1.0907
 9163TIP3    H248905   2.201   4.043   0.085 -0.1327  0.1115 -0.5194
 9164TIP3   OH248906   2.396   2.365   2.745  0.8483  0.5901 -0.4680
 9164TIP3    H148907   2.383   2.460   2.749  0.1280  0.5002 -0.5730
 9164TIP3    H248908   2.418   2.348   2.653  1.2057  0.6803 -0.4006
 9165TIP3   OH248909   4.499   0.022   3.556  0.4410 -0.2365  0.3523
 9165TIP3    H148910   4.420   0.073   3.539  0.0219  0.0497  3.0251
 9165TIP3    H248911   4.484  -0.019   3.641  2.7423 -1.0282  0.4164
 9166TIP3   OH248912   4.720   4.822  11.527  0.0685 -0.1180 -0.6893
 9166TIP3    H148913   4.715   4.804  11.433 -1.0069  0.4716 -0.7426
 9166TIP3    H248914   4.674   4.905  11.538  1.0946  0.3332  0.2144
 9167TIP3   OH248915   1.813   6.173   5.894  0.1059 -0.1549  0.1423
 9167TIP3    H148916   1.785   6.265   5.886 -1.0666 -0.5049  0.1518
 9167TIP3    H248917   1.822   6.159   5.988  1.0986  0.1807  0.1056
 9168TIP3   OH248918   4.871   3.880  12.290  0.2148  0.7808  0.2088
 9168TIP3    H148919   4.926   3.907  12.364  2.3289 -0.2890 -0.9153
 9168TIP3    H248920   4.844   3.791  12.311  0.5901  0.5764 -0.1525
 9169TIP3   OH248921   2.075   1.601   1.292 -0.1971  0.2047  0.1541
 9169TIP3    H148922   2.062   1.545   1.368 -1.6929 -1.0269 -0.9649
 9169TIP3    H248923   2.167   1.629   1.298 -0.0073 -0.7119  1.8242
 9170TIP3   OH248924   1.499   4.395  13.524 -0.2107  0.0474 -0.8573
 9170TIP3    H148925   1.558   4.354  13.460  0.9327  1.3200 -0.6615
 9170TIP3    H248926   1.522   4.354  13.607  0.6455  0.7561 -0.7301
 9171TIP3   OH248927   5.980   1.090  13.916 -0.0087 -0.2746  1.0047
 9171TIP3    H148928   6.067   1.052  13.903 -0.8308 -1.1811 -2.2004
 9171TIP3    H248929   5.920   1.016  13.908 -1.2676  0.8201  0.0468
 9172TIP3   OH248930   6.475   6.512  12.572 -0.2243 -0.1204 -0.0827
 9172TIP3    H148931   6.427   6.495  12.654  0.5785  0.1809  0.4539
 9172TIP3    H248932   6.459   6.605  12.554 -0.2400 -0.1389 -0.1658
 9173TIP3   OH248933   2.832   0.084   3.649  0.3517  0.1590  0.0831
 9173TIP3    H148934   2.795   0.105   3.735 -2.3322 -0.3777 -0.8654
 9173TIP3    H248935   2.881   0.162   3.623  1.0362  0.3797  2.0269
 9174TIP3   OH248936   0.094   6.545   1.235 -0.4343 -0.1308 -0.6334
 9174TIP3    H148937   0.008   6.520   1.270 -0.7409  2.4575  0.6063
 9174TIP3    H248938   0.075   6.582   1.149 -0.6277  0.8976 -0.1517
 9175TIP3   OH248939   4.300   5.482  13.582 -0.2676 -0.1920  0.1319
 9175TIP3    H148940   4.330   5.396  13.612 -1.7167 -0.5892  0.4868
 9175TIP3    H248941   4.336   5.489  13.493  0.2291 -0.9754  0.2595
 9176TIP3   OH248942   3.306   4.421  17.189  0.0561 -0.2027 -0.4060
 9176TIP3    H148943   3.260   4.405  17.271  2.1594 -1.5923  0.5718
 9176TIP3    H248944   3.368   4.491  17.209  1.0517 -1.0133 -0.5936
 9177TIP3   OH248945   1.585   2.458  14.394  0.1234  0.3527 -0.0232
 9177TIP3    H148946   1.651   2.513  14.352 -1.6590  2.7490  0.1860
 9177TIP3    H248947   1.557   2.398  14.325  0.4394  1.2710 -0.9783
 9178TIP3   OH248948   4.350   2.113  16.788  0.5706  0.4614 -0.0818
 9178TIP3    H148949   4.313   2.130  16.875 -0.7847  1.2144 -0.7898
 9178TIP3    H248950   4.385   2.025  16.794  0.1239  0.3500  1.1164
 9179TIP3   OH248951   5.765   5.012  15.803  0.1832 -0.0482 -0.1943
 9179TIP3    H148952   5.789   5.021  15.895  0.1584 -0.8240 -0.1049
 9179TIP3    H248953   5.771   5.100  15.768 -1.4616  0.5282  0.9470
 9180TIP3   OH248954   0.028   0.761   4.240  0.1677  0.2853 -0.1601
 9180TIP3    H148955   0.008   0.709   4.318  1.6811  0.2726  0.2293
 9180TIP3    H248956   0.082   0.833   4.273  3.5847 -1.5094 -1.6541
 9181TIP3   OH248957   3.287   6.115  11.858  0.0516 -0.1561  0.6869
 9181TIP3    H148958   3.344   6.046  11.825  0.0679 -0.4538  1.3114
 9181TIP3    H248959   3.289   6.183  11.791  1.1237 -0.1694  0.6959
 9182TIP3   OH248960   6.174   5.624   5.100  0.4908 -0.3908  0.1678
 9182TIP3    H148961   6.107   5.669   5.048  0.9469  1.5602  1.2018
 9182TIP3    H248962   6.249   5.619   5.041 -0.1723 -1.5523 -0.6062
 9183TIP3   OH248963   5.113   1.679   3.645  0.6153 -0.2968 -0.0431
 9183TIP3    H148964   5.085   1.764   3.679 -1.3319 -0.9188  0.0108
 9183TIP3    H248965   5.033   1.641   3.608  1.4639 -2.0803 -0.1124
 9184TIP3   OH248966   3.688   2.512  12.199 -0.1148 -0.3163 -0.1104
 9184TIP3    H148967   3.593   2.505  12.206 -0.0919 -2.1529 -1.3286
 9184TIP3    H248968   3.708   2.603  12.222 -2.0983 -0.0712  0.6995
 9185TIP3   OH248969   4.959   2.605  17.200  0.3506  0.2773  0.0455
 9185TIP3    H148970   4.990   2.515  17.214  1.8386  0.7017 -0.5120
 9185TIP3    H248971   4.981   2.624  17.109 -2.1041  0.3879 -0.5748
 9186TIP3   OH248972   1.250   6.164   0.262 -0.7499  0.5717  0.2602
 9186TIP3    H148973   1.163   6.135   0.235  0.3768 -0.8403 -2.1018
 9186TIP3    H248974   1.301   6.083   0.271 -0.2715  1.2301  3.9097
 9187TIP3   OH248975   1.973   1.396   2.702 -0.4656  0.3644 -0.1131
 9187TIP3    H148976   1.944   1.308   2.725  0.6566 -0.2847 -1.0871
 9187TIP3    H248977   1.993   1.391   2.608  1.5980  1.0878  0.2439
 9188TIP3   OH248978   5.246   5.658  10.315 -0.1870  0.5645 -0.4680
 9188TIP3    H148979   5.237   5.579  10.369  0.0161 -0.8047 -2.3865
 9188TIP3    H248980   5.341   5.671  10.308 -0.2215  1.0427 -0.0706
 9189TIP3   OH248981   1.897   2.035  16.855  0.0820  0.7953  0.1234
 9189TIP3    H148982   1.835   2.107  16.843  1.0010  1.4843 -0.6431
 9189TIP3    H248983   1.854   1.959  16.816  0.1787  1.5178 -1.4257
 9190TIP3   OH248984   5.834   5.733  11.078  0.2847  0.7181  0.5594
 9190TIP3    H148985   5.828   5.652  11.128  0.5892  1.1111  1.2485
 9190TIP3    H248986   5.817   5.802  11.142 -0.5311  1.1741 -0.1430
 9191TIP3   OH248987   0.808   4.847   4.884  0.1788 -0.2791  0.1653
 9191TIP3    H148988   0.738   4.912   4.869 -0.1943 -0.1530  2.2068
 9191TIP3    H248989   0.881   4.899   4.917  0.1151 -0.7903  1.1402
 9192TIP3   OH248990   4.366   1.077   4.498 -0.4614  0.4057  0.4255
 9192TIP3    H148991   4.401   1.153   4.545  0.5702 -0.9470  1.9020
 9192TIP3    H248992   4.377   1.004   4.559  0.2589 -1.2629 -1.6346
 9193TIP3   OH248993   0.023   2.726  14.565 -0.1925  0.3599 -0.0827
 9193TIP3    H148994   0.009   2.728  14.659 -0.6303 -0.9038 -0.1001
 9193TIP3    H248995   0.118   2.717  14.555 -0.2039 -0.1505  0.2541
 9194TIP3   OH248996   3.485   3.626   3.019  0.4169 -0.0917 -0.3448
 9194TIP3    H148997   3.425   3.564   2.977  0.9905  0.0340 -1.3744
 9194TIP3    H248998   3.520   3.678   2.947 -0.1339  1.5181  0.5181
 9195TIP3   OH248999   3.063   6.597   4.994  0.5554 -0.2801 -0.0643
 9195TIP3    H149000   3.035   6.642   5.074  0.7578  2.3944 -1.4128
 9195TIP3    H249001   3.143   6.644   4.968  1.3985 -2.1647 -0.9872
 9196TIP3   OH249002   2.465   6.725  14.207  0.1403 -0.4262  0.3535
 9196TIP3    H149003   2.414   6.668  14.149  0.3195 -0.5608  0.3288
 9196TIP3    H249004   2.542   6.673  14.230 -0.5838 -0.9093  1.8044
 9197TIP3   OH249005   3.060   4.610  13.364 -0.9048  0.1965  0.0861
 9197TIP3    H149006   3.104   4.657  13.435 -0.3374 -0.0711 -0.0854
 9197TIP3    H249007   3.055   4.520  13.395 -1.3660  0.2295  0.1151
 9198TIP3   OH249008   4.027   0.980  13.400  0.1702  0.1679 -0.4877
 9198TIP3    H149009   3.978   0.949  13.323 -0.4388 -0.2874  0.0826
 9198TIP3    H249010   3.968   1.041  13.443 -0.0207 -0.6095  0.3700
 9199TIP3   OH249011   6.100   1.411  16.497  0.5441  0.1333 -0.8912
 9199TIP3    H149012   6.061   1.439  16.580  1.4440  0.2487 -0.4944
 9199TIP3    H249013   6.106   1.315  16.505 -1.9378 -0.1541 -1.9815
 9200TIP3   OH249014   1.165   4.899  14.619 -0.3845 -0.2337 -0.3527
 9200TIP3    H149015   1.145   4.945  14.700  0.4190 -1.1126  0.3515
 9200TIP3    H249016   1.118   4.948  14.551  1.4878  2.4252  0.1772
 9201TIP3   OH249017   3.902   3.926   3.559  0.3532  0.2183  0.1669
 9201TIP3    H149018   3.897   4.020   3.543 -0.7339  0.5044  2.0515
 9201TIP3    H249019   3.919   3.918   3.653  0.2755 -1.4651  0.0561
 9202TIP3   OH249020   4.682   6.501  12.729 -0.2195 -0.0770 -0.2221
 9202TIP3    H149021   4.749   6.510  12.661 -1.2544  0.5155 -1.1981
 9202TIP3    H249022   4.707   6.566  12.796 -0.3707  0.8570 -1.0562
 9203TIP3   OH249023   3.811   1.718   2.470 -0.5243  0.4394 -0.2996
 9203TIP3    H149024   3.795   1.669   2.551  0.0350  0.4006 -0.2042
 9203TIP3    H249025   3.887   1.773   2.491 -0.3533  0.3987 -0.8088
 9204TIP3   OH249026   3.431   1.120  10.697  0.0238 -0.3889 -0.2315
 9204TIP3    H149027   3.367   1.079  10.755  0.9321 -1.1638  0.2482
 9204TIP3    H249028   3.384   1.134  10.615 -1.2578  0.6886  0.6817
 9205TIP3   OH249029   2.594   3.543  13.895 -0.1784  0.6835  0.2142
 9205TIP3    H149030   2.578   3.564  13.987 -0.0164 -0.5835  0.5406
 9205TIP3    H249031   2.540   3.465  13.878 -1.5781  1.9455 -1.2491
 9206TIP3   OH249032   1.312   5.688   4.072 -0.0808  0.2079 -0.4766
 9206TIP3    H149033   1.278   5.775   4.092 -0.3492  0.1568 -0.7153
 9206TIP3    H249034   1.327   5.689   3.978 -2.2685 -0.7753 -0.8621
 9207TIP3   OH249035   4.640   3.327   4.968 -0.2096 -0.5382  0.5637
 9207TIP3    H149036   4.704   3.257   4.980 -0.5093 -0.3210  4.0768
 9207TIP3    H249037   4.557   3.290   4.997 -1.3412 -0.1716 -2.0535
 9208TIP3   OH249038   2.769   5.000   3.112 -0.1480 -0.4136  0.2950
 9208TIP3    H149039   2.729   5.083   3.138  2.4607  0.9230  0.2425
 9208TIP3    H249040   2.707   4.933   3.141 -1.8528  1.4948  1.1845
 9209TIP3   OH249041   1.502   4.095  12.895 -0.2194  0.3456  0.2852
 9209TIP3    H149042   1.481   4.069  12.985  0.3722 -1.3424 -0.0364
 9209TIP3    H249043   1.442   4.044  12.841 -1.2907  2.1434 -0.2446
 9210TIP3   OH249044   4.442   0.232  13.764  0.6105  0.0457  0.1800
 9210TIP3    H149045   4.391   0.186  13.697  1.2026 -0.8133  0.3105
 9210TIP3    H249046   4.377   0.263  13.827  0.1990 -0.6417  0.1009
 9211TIP3   OH249047   5.756   4.021  11.462 -1.0941 -0.0800  0.2530
 9211TIP3    H149048   5.742   4.069  11.544 -2.2287 -0.9048  0.5628
 9211TIP3    H249049   5.702   3.942  11.472 -1.1315 -0.2478 -1.2296
 9212TIP3   OH249050   2.567   1.164   4.663  0.3938 -0.6174 -0.4172
 9212TIP3    H149051   2.522   1.195   4.585  1.7825  0.3395 -0.8564
 9212TIP3    H249052   2.549   1.070   4.665 -2.2686 -0.1364 -0.1262
 9213TIP3   OH249053   1.879   3.620  12.663 -0.2468  0.5530  0.5929
 9213TIP3    H149054   1.830   3.676  12.602 -0.6053 -0.6764 -0.2458
 9213TIP3    H249055   1.875   3.533  12.625  1.8318  0.2620  1.0120
 9214TIP3   OH249056   3.402   5.870  12.479  0.1210  0.2239 -0.3587
 9214TIP3    H149057   3.385   5.951  12.528  1.9204  0.1279  0.4687
 9214TIP3    H249058   3.327   5.815  12.498  0.0888  0.7456  1.1533
 9215TIP3   OH249059   2.070   5.216  11.092  0.2316 -0.0853 -0.5612
 9215TIP3    H149060   2.041   5.204  11.002  0.4935 -0.9997 -0.5236
 9215TIP3    H249061   2.161   5.247  11.084 -0.2923  1.4843 -0.6420
 9216TIP3   OH249062   5.724   1.308  16.308 -0.9194 -0.2924 -0.2464
 9216TIP3    H149063   5.810   1.335  16.277  0.4156 -1.9049  1.9121
 9216TIP3    H249064   5.734   1.215  16.329 -3.0364 -0.3682  0.5466
 9217TIP3   OH249065   1.539   6.379  15.021 -0.1939 -0.5600  0.0881
 9217TIP3    H149066   1.455   6.368  14.977 -0.7791  0.7412  0.8567
 9217TIP3    H249067   1.564   6.469  15.003 -0.4776  0.0214  2.4435
 9218TIP3   OH249068   2.781   2.032   1.957  0.3441  0.1811 -0.1481
 9218TIP3    H149069   2.699   2.045   2.004  0.2375  2.5366 -0.9145
 9218TIP3    H249070   2.835   1.980   2.017 -0.9724  0.2721  1.1596
 9219TIP3   OH249071   2.246   1.358   4.047 -1.1354 -0.3119  0.1312
 9219TIP3    H149072   2.289   1.386   3.966 -1.8736  0.0924 -0.1361
 9219TIP3    H249073   2.174   1.302   4.018  0.1787 -2.3222  0.6599
 9220TIP3   OH249074   1.521   1.756   2.219 -0.0062  0.1859  0.1259
 9220TIP3    H149075   1.582   1.687   2.193 -0.1344  0.5591 -1.2440
 9220TIP3    H249076   1.563   1.798   2.294  1.4266  0.3895 -0.7477
 9221TIP3   OH249077   2.786   2.138   2.756  0.1871 -0.1934  0.2668
 9221TIP3    H149078   2.816   2.139   2.846 -1.1146 -1.6711  0.7452
 9221TIP3    H249079   2.864   2.156   2.704  0.7373  1.7916  1.7211
 9222TIP3   OH249080   5.647   3.797   5.615  0.4078 -0.0592  0.1055
 9222TIP3    H149081   5.688   3.882   5.629 -0.3764  0.2823  0.3292
 9222TIP3    H249082   5.678   3.743   5.687  0.3479  0.2439  0.3577
 9223TIP3   OH249083   2.795   6.718  14.094  0.3936 -0.1661 -0.2112
 9223TIP3    H149084   2.721   6.667  14.128  0.3018  0.1772  0.1118
 9223TIP3    H249085   2.872   6.665  14.114  0.2110 -0.6489 -0.7853
 9224TIP3   OH249086   0.870   5.504  10.917 -0.2157 -0.0692  0.3372
 9224TIP3    H149087   0.890   5.414  10.892 -0.8101 -0.4731  1.2693
 9224TIP3    H249088   0.921   5.518  10.997 -1.2310 -0.0683  0.9953
 9225TIP3   OH249089   3.259   3.074   3.524  0.3676  0.0902 -0.1609
 9225TIP3    H149090   3.305   3.131   3.462  0.3053 -0.1808 -0.4588
 9225TIP3    H249091   3.326   3.011   3.552  0.3364  0.0713 -0.1306
 9226TIP3   OH249092   0.440   2.277   0.878 -0.2678  0.1094  0.0409
 9226TIP3    H149093   0.390   2.202   0.910  0.6872 -0.2241  0.7764
 9226TIP3    H249094   0.424   2.347   0.942  1.1295 -0.3608  0.9282
 9227TIP3   OH249095   4.153   5.879   1.496  0.3628  0.4678  0.1212
 9227TIP3    H149096   4.134   5.935   1.421 -2.4765  0.2957  0.6692
 9227TIP3    H249097   4.178   5.939   1.566 -0.1363  0.8599 -0.0347
 9228TIP3   OH249098   6.264   3.729  17.145  0.0256  0.0724 -0.0310
 9228TIP3    H149099   6.316   3.707  17.067 -0.3427  2.6495 -1.0392
 9228TIP3    H249100   6.204   3.655  17.155  0.7903 -0.7872 -1.5786
 9229TIP3   OH249101   4.143   0.363   6.033  0.3936 -0.2752 -0.1987
 9229TIP3    H149102   4.235   0.339   6.039  0.8225  1.5399  0.7790
 9229TIP3    H249103   4.109   0.353   6.122 -0.2876 -0.6145 -0.4890
 9230TIP3   OH249104   6.001   6.256  11.103  0.2992 -0.7301 -0.7183
 9230TIP3    H149105   6.073   6.225  11.157  0.3575  0.2550 -0.2164
 9230TIP3    H249106   6.043   6.304  11.032  0.1105  2.8365  1.4249
 9231TIP3   OH249107   1.078   4.367   3.353 -0.2638 -0.1625  0.2730
 9231TIP3    H149108   1.073   4.459   3.381  2.0658 -0.1589  0.7637
 9231TIP3    H249109   1.002   4.326   3.394 -0.4870  1.2309  1.3065
 9232TIP3   OH249110   0.239   5.177   2.314 -0.2198  0.1806  0.2269
 9232TIP3    H149111   0.234   5.268   2.286  1.7776 -0.2598 -1.7041
 9232TIP3    H249112   0.333   5.161   2.327 -0.5010 -1.7896 -0.0817
 9233TIP3   OH249113   5.773   5.871  10.400  0.4510  0.6707 -0.0193
 9233TIP3    H149114   5.815   5.792  10.365  0.2325  0.1967  0.7720
 9233TIP3    H249115   5.845   5.920  10.440  0.3785  0.2076  0.6950
 9234TIP3   OH249116   1.514   4.963  15.993  0.5645  0.6719  0.5913
 9234TIP3    H149117   1.553   5.026  15.932 -1.9270 -0.6017 -2.4607
 9234TIP3    H249118   1.585   4.902  16.013  1.0893  0.3177 -2.1824
 9235TIP3   OH249119   5.742   3.557   1.090  0.0283 -0.0678  0.1176
 9235TIP3    H149120   5.824   3.510   1.077 -1.1204 -2.1192  0.1123
 9235TIP3    H249121   5.767   3.636   1.139  1.8988 -1.0048  0.7092
 9236TIP3   OH249122   2.630   0.206  15.148  0.0664  0.3705 -0.3257
 9236TIP3    H149123   2.590   0.219  15.063  0.4931  0.7242 -0.4711
 9236TIP3    H249124   2.640   0.111  15.156  0.1930  0.3509 -0.7428
 9237TIP3   OH249125   3.497   3.921   5.288 -0.0199 -0.1146  0.3144
 9237TIP3    H149126   3.519   3.828   5.285 -1.9627 -0.6004  0.1907
 9237TIP3    H249127   3.433   3.933   5.218 -1.0043  0.9513  1.3577
 9238TIP3   OH249128   4.141   3.031   0.544 -0.1711  0.2465  0.4126
 9238TIP3    H149129   4.199   3.035   0.468  2.2108 -1.9697  2.0456
 9238TIP3    H249130   4.181   3.089   0.608  0.7156 -1.8247  1.7995
 9239TIP3   OH249131   4.818   0.096   0.456  0.0647  0.2011  0.7398
 9239TIP3    H149132   4.788   0.068   0.369  0.5756 -0.9102  0.9039
 9239TIP3    H249133   4.749   0.070   0.516  0.8984 -1.4840  0.9958
 9240TIP3   OH249134   5.450   2.561   3.473 -0.6474 -0.1890  0.1220
 9240TIP3    H149135   5.528   2.616   3.465  1.0893 -2.5039  0.3397
 9240TIP3    H249136   5.385   2.603   3.417  1.9921 -0.1990 -3.1684
 9241TIP3   OH249137   4.790   4.652  11.309  0.5339 -0.4840  0.1860
 9241TIP3    H149138   4.728   4.620  11.375  1.7150 -2.9513  0.1659
 9241TIP3    H249139   4.875   4.644  11.352  1.1330 -0.2032 -0.9420
 9242TIP3   OH249140   6.412   4.526   3.845 -0.3341 -0.0141 -0.4995
 9242TIP3    H149141   6.433   4.538   3.753  0.1531  2.4696 -0.1084
 9242TIP3    H249142   6.492   4.489   3.883 -0.0351  0.3026 -0.8116
 9243TIP3   OH249143   1.248   5.642   0.558 -0.5166 -0.5362 -0.5749
 9243TIP3    H149144   1.174   5.701   0.546 -1.3337 -1.6893 -1.3662
 9243TIP3    H249145   1.217   5.577   0.622  0.6156  0.2768  0.8445
 9244TIP3   OH249146   1.718   3.622  16.873  0.4595 -0.2574 -0.0481
 9244TIP3    H149147   1.681   3.539  16.905  0.5903  0.1770  1.2485
 9244TIP3    H249148   1.802   3.629  16.917 -0.4545  1.5823  1.4968
 9245TIP3   OH249149   3.713   4.021   4.371 -0.1864  0.2199  0.4722
 9245TIP3    H149150   3.661   4.098   4.347  1.2550  0.7648 -0.9636
 9245TIP3    H249151   3.717   3.969   4.291  0.4952 -0.3829  0.9001
 9246TIP3   OH249152   0.212   2.077  11.376 -0.5228 -0.4043 -0.2502
 9246TIP3    H149153   0.291   2.091  11.324  0.2172 -0.3816  0.8741
 9246TIP3    H249154   0.152   2.146  11.347 -0.0183 -0.2224 -0.8771
 9247TIP3   OH249155   6.779   6.210  11.484  0.3682 -0.4543  0.1271
 9247TIP3    H149156   6.766   6.123  11.520  0.7769 -1.2425 -1.5722
 9247TIP3    H249157   6.874   6.222  11.484  0.3593 -0.3513 -0.3780
 9248TIP3   OH249158   2.384   5.667  17.032  0.1688 -0.1058 -0.3266
 9248TIP3    H149159   2.419   5.617  16.958 -0.1909  1.3522 -1.5160
 9248TIP3    H249160   2.330   5.735  16.992  0.8283  1.3846  1.2176
 9249TIP3   OH249161   3.037   0.471  13.387  0.4924 -0.2994 -0.3643
 9249TIP3    H149162   3.011   0.535  13.321 -0.3109  0.3465  0.5621
 9249TIP3    H249163   3.035   0.387  13.342 -1.5035 -0.0493 -0.7945
 9250TIP3   OH249164   6.516   6.332   5.700  0.0767  0.0733 -0.0535
 9250TIP3    H149165   6.562   6.416   5.696  0.4998 -0.2078 -1.5540
 9250TIP3    H249166   6.482   6.327   5.789  1.5310  1.0508  0.5654
 9251TIP3   OH249167   0.686   4.018  16.303  0.3016  0.6282 -0.5560
 9251TIP3    H149168   0.664   4.097  16.254 -0.8934 -0.2054 -1.3788
 9251TIP3    H249169   0.602   3.977  16.322  0.8756 -0.1599  0.3632
 9252TIP3   OH249170   3.613   1.556   1.986 -0.4745  0.2585 -0.0562
 9252TIP3    H149171   3.517   1.550   1.983 -0.5834  2.1785 -0.9464
 9252TIP3    H249172   3.633   1.637   1.939  1.5511  0.2442  0.7710
 9253TIP3   OH249173   5.731   0.971  13.081 -0.5586  0.1832  0.2478
 9253TIP3    H149174   5.719   0.879  13.106  0.2942 -0.1679 -0.5958
 9253TIP3    H249175   5.652   1.015  13.114 -0.7101 -0.7404  1.1658
 9254TIP3   OH249176   0.760   2.109  15.748 -0.0761  0.3586  0.1596
 9254TIP3    H149177   0.813   2.182  15.717 -2.4628  1.8317 -0.6168
 9254TIP3    H249178   0.807   2.031  15.720  1.7837  1.6190 -0.2830
 9255TIP3   OH249179   5.243   3.732   4.750  0.2489 -0.0157  0.0562
 9255TIP3    H149180   5.214   3.642   4.768 -0.0052  0.0074 -0.2317
 9255TIP3    H249181   5.165   3.785   4.764 -0.0602 -0.0368 -1.4729
 9256TIP3   OH249182   1.831   2.519   1.577 -0.3794 -0.0161  0.6891
 9256TIP3    H149183   1.796   2.606   1.595 -0.2086 -0.0845  1.3375
 9256TIP3    H249184   1.916   2.518   1.620  1.0040  0.5801 -1.8737
 9257TIP3   OH249185   2.501   1.305   0.872  0.2619  0.0759 -1.0442
 9257TIP3    H149186   2.564   1.366   0.834 -0.8699  0.9597 -1.5460
 9257TIP3    H249187   2.426   1.309   0.812  1.0284 -3.4966 -2.3317
 9258TIP3   OH249188   4.347   5.982  14.676  0.7188 -0.2406 -0.4683
 9258TIP3    H149189   4.254   5.968  14.663  0.5315 -1.4917  1.9102
 9258TIP3    H249190   4.387   5.962  14.591 -0.9204 -2.4283 -0.7536
 9259TIP3   OH249191   0.494   4.370  15.465  0.1392 -0.6520  0.5086
 9259TIP3    H149192   0.479   4.410  15.380  0.3466 -0.7537  0.4234
 9259TIP3    H249193   0.589   4.373  15.477  0.0270  0.3313  1.2104
 9260TIP3   OH249194   5.999   5.990  11.724  0.0878  0.5766 -0.4690
 9260TIP3    H149195   5.918   6.039  11.739  0.3222  1.0763 -0.8294
 9260TIP3    H249196   5.980   5.937  11.647 -0.3538 -0.3213  0.2483
 9261TIP3   OH249197   0.020   2.169  15.109  0.0131 -0.1068  0.0676
 9261TIP3    H149198   0.003   2.261  15.130  1.3742  0.3053 -0.6062
 9261TIP3    H249199   0.008   2.123  15.193  0.4009  0.8291  0.6452
 9262TIP3   OH249200   2.146   3.507   4.567 -0.2659 -1.1051 -0.6189
 9262TIP3    H149201   2.184   3.572   4.627  0.2414 -3.0882  1.2990
 9262TIP3    H249202   2.057   3.537   4.553 -1.0202 -1.5722  2.7308
 9263TIP3   OH249203   4.837   6.010   2.972 -0.0733 -0.5653 -0.5855
 9263TIP3    H149204   4.856   5.920   2.945 -0.7462 -0.9173  0.0856
 9263TIP3    H249205   4.900   6.027   3.043 -0.0355 -0.5554 -0.6213
 9264TIP3   OH249206   4.820   2.403   2.174 -0.2354 -0.6368  0.3433
 9264TIP3    H149207   4.825   2.480   2.230 -0.6114 -0.5017  0.1929
 9264TIP3    H249208   4.727   2.384   2.167 -0.2299 -0.3550 -0.6326
 9265TIP3   OH249209   1.072   3.860   5.075 -0.1788 -0.1790 -0.3692
 9265TIP3    H149210   1.139   3.849   5.143  0.8819  0.6253 -1.2615
 9265TIP3    H249211   0.989   3.844   5.120  0.5503 -0.2203  0.9882
 9266TIP3   OH249212   6.727   1.550  15.517 -0.6063  0.2812 -0.0408
 9266TIP3    H149213   6.634   1.537  15.537 -0.7681  0.6702 -0.5281
 9266TIP3    H249214   6.766   1.464  15.530 -1.4753 -0.4694 -2.2238
 9267TIP3   OH249215   4.288   1.257  14.556 -0.2448  0.1641  0.0062
 9267TIP3    H149216   4.269   1.202  14.480 -0.5381  0.1379  0.0966
 9267TIP3    H249217   4.334   1.333  14.520 -0.4937  0.2114 -0.2125
 9268TIP3   OH249218   3.978   0.738   3.172 -0.3018  0.1014 -0.0385
 9268TIP3    H149219   3.953   0.667   3.232  0.4278 -1.3580 -1.4097
 9268TIP3    H249220   3.897   0.759   3.125 -0.0675 -1.3224 -1.1190
 9269TIP3   OH249221   3.559   4.196  10.922  0.5480  0.3523  0.2817
 9269TIP3    H149222   3.626   4.263  10.904 -0.2150  1.1600  0.4317
 9269TIP3    H249223   3.490   4.215  10.859 -0.7417  1.2223  1.9136
 9270TIP3   OH249224   1.465   5.730   2.933 -0.0902 -0.1100  0.0623
 9270TIP3    H149225   1.536   5.786   2.902 -1.0767  0.6032 -0.9276
 9270TIP3    H249226   1.394   5.791   2.954 -0.9749 -0.9371 -0.4730
 9271TIP3   OH249227   5.910   6.002  11.272  0.3238 -0.2211  0.5337
 9271TIP3    H149228   5.851   6.077  11.266  1.2596  0.4360 -0.8245
 9271TIP3    H249229   5.921   5.987  11.366  0.0756  1.3133  0.8225
 9272TIP3   OH249230   0.625   4.860  11.022  0.0070 -0.3425  0.1266
 9272TIP3    H149231   0.691   4.895  10.962  0.2778  0.5322  0.9300
 9272TIP3    H249232   0.546   4.911  11.004 -0.3151 -1.0126 -0.4363
 9273TIP3   OH249233   4.735   5.178  12.769  0.3650  0.2249  0.8503
 9273TIP3    H149234   4.728   5.136  12.855  1.2689  0.0455  0.8451
 9273TIP3    H249235   4.723   5.107  12.706  1.8818 -0.0443  0.8410
 9274TIP3   OH249236   3.793   0.693  16.060  0.9252  0.5176 -0.1994
 9274TIP3    H149237   3.787   0.730  16.149 -0.4264  1.2293 -0.5787
 9274TIP3    H249238   3.784   0.769  16.003  0.1803 -0.1520 -0.9723
 9275TIP3   OH249239   4.659   5.209  14.724  0.8398  0.3425  0.0041
 9275TIP3    H149240   4.703   5.190  14.641 -1.6118 -0.4607 -1.1415
 9275TIP3    H249241   4.684   5.136  14.781 -0.4511 -1.0973 -1.2270
 9276TIP3   OH249242   2.559   5.496  16.813  0.6831  0.1260 -0.3329
 9276TIP3    H149243   2.490   5.435  16.788 -0.0683  1.3569 -1.3338
 9276TIP3    H249244   2.606   5.451  16.884 -1.6867 -0.3757  0.9902
 9277TIP3   OH249245   5.711   0.578   0.162 -0.0176  0.6134 -0.1697
 9277TIP3    H149246   5.760   0.580   0.080 -0.0233 -1.2890 -0.2430
 9277TIP3    H249247   5.774   0.607   0.228  2.1281 -4.2432  0.1439
 9278TIP3   OH249248   1.912   4.693   3.613 -0.4934  0.0637  0.1198
 9278TIP3    H149249   1.967   4.764   3.580 -1.2545  0.7473  0.3016
 9278TIP3    H249250   1.837   4.737   3.652 -1.9955 -0.9258 -1.6081
 9279TIP3   OH249251   5.734   1.431   0.520 -0.1139  0.6819 -0.5719
 9279TIP3    H149252   5.769   1.354   0.475  0.6236  0.3939  0.4800
 9279TIP3    H249253   5.808   1.466   0.570 -1.2608  0.1832  1.5246
 9280TIP3   OH249254   5.825   0.490  11.073 -0.2561 -0.2062 -0.0917
 9280TIP3    H149255   5.903   0.519  11.121 -0.2329 -1.5109  0.6901
 9280TIP3    H249256   5.791   0.417  11.125 -1.4435 -0.2804 -0.9527
 9281TIP3   OH249257   5.369   4.471   5.452  0.0362 -0.1354 -0.3287
 9281TIP3    H149258   5.446   4.485   5.397  1.1887  0.6862  1.4641
 9281TIP3    H249259   5.341   4.559   5.477 -1.5071 -0.4255 -0.9803
 9282TIP3   OH249260   1.555   3.344   3.688 -0.1480 -0.1104  0.0720
 9282TIP3    H149261   1.610   3.421   3.707  1.1855 -1.0830  0.2606
 9282TIP3    H249262   1.606   3.294   3.625 -1.9702  0.2036 -1.7028
 9283TIP3   OH249263   5.684   4.002   0.868 -0.2321 -0.2790  0.4073
 9283TIP3    H149264   5.664   3.928   0.811 -0.2972 -1.4803  1.9485
 9283TIP3    H249265   5.777   3.995   0.885 -0.2901 -0.1710  0.7770
 9284TIP3   OH249266   4.987   2.031  15.364 -0.0965 -0.5340 -0.2953
 9284TIP3    H149267   4.985   1.958  15.302  0.7514 -0.3733 -0.5256
 9284TIP3    H249268   5.044   2.096  15.322  0.8053 -0.5855  0.8157
 9285TIP3   OH249269   2.083   4.842   0.564 -0.0312  0.1819  0.0966
 9285TIP3    H149270   1.989   4.851   0.550 -0.0423  2.6250  1.3986
 9285TIP3    H249271   2.091   4.797   0.648 -0.0331 -0.0251 -0.0138
 9286TIP3   OH249272   3.991   3.539  16.954 -0.0721  0.4767  0.0283
 9286TIP3    H149273   4.001   3.581  17.039 -1.6098 -1.0883  1.0115
 9286TIP3    H249274   3.929   3.595  16.907 -3.2933 -1.3511  1.8760
 9287TIP3   OH249275   2.831   3.856   4.655 -0.2026  0.0733  0.2461
 9287TIP3    H149276   2.780   3.936   4.664 -1.0291 -0.6211  2.0659
 9287TIP3    H249277   2.771   3.793   4.615  0.8184  0.6752 -2.3307
 9288TIP3   OH249278   5.213   6.282   4.065  0.1077  0.1956  0.5761
 9288TIP3    H149279   5.163   6.230   4.127 -2.8388  0.4720 -1.4365
 9288TIP3    H249280   5.269   6.219   4.020 -0.6741 -0.6403  0.7637
 9289TIP3   OH249281   0.261   3.770   2.203  0.6344  0.2780  0.0197
 9289TIP3    H149282   0.177   3.809   2.178  0.1284  0.5678  2.0596
 9289TIP3    H249283   0.240   3.679   2.222  1.0583 -0.0058 -0.8703
 9290TIP3   OH249284   4.165   4.091  13.413  0.2876  0.1191  0.1115
 9290TIP3    H149285   4.205   4.010  13.445 -0.5308 -0.5793 -0.6230
 9290TIP3    H249286   4.230   4.159  13.434  1.2012 -0.7864  0.2732
 9291TIP3   OH249287   0.496   1.608  14.563  1.1388  0.3072 -0.2376
 9291TIP3    H149288   0.420   1.637  14.612  1.4225 -0.9876  1.0053
 9291TIP3    H249289   0.543   1.689  14.542 -0.4115  1.0862 -0.7718
 9292TIP3   OH249290   3.475   1.533  16.920 -0.0913 -0.1598 -0.0835
 9292TIP3    H149291   3.436   1.485  16.846  0.4269 -0.2604 -0.2927
 9292TIP3    H249292   3.446   1.623  16.908  0.3250 -0.0991 -0.6382
 9293TIP3   OH249293   4.436   4.815  15.720 -0.1000 -0.0471 -0.8077
 9293TIP3    H149294   4.454   4.754  15.649  0.8913  0.1635 -0.7455
 9293TIP3    H249295   4.489   4.892  15.700 -1.6192  0.9459 -1.0757
 9294TIP3   OH249296   2.178   3.595  14.544  0.1807 -0.4681 -0.1808
 9294TIP3    H149297   2.231   3.625  14.618  0.3817 -1.5732  0.1279
 9294TIP3    H249298   2.241   3.588  14.472  0.1763 -0.3739 -0.1927
 9295TIP3   OH249299   1.965   5.786   4.007  0.2177  0.0017 -0.8725
 9295TIP3    H149300   2.051   5.813   4.041 -0.5183  0.9269  0.2643
 9295TIP3    H249301   1.974   5.795   3.912  1.1921  0.6621 -0.7248
 9296TIP3   OH249302   3.298   3.040   1.704 -0.2510  0.4071 -0.5109
 9296TIP3    H149303   3.205   3.042   1.680 -0.6460  2.2323  1.0370
 9296TIP3    H249304   3.334   3.120   1.667  0.5560  0.0784 -0.4521
 9297TIP3   OH249305   0.525   6.169   0.479  0.1962 -0.0073  1.0157
 9297TIP3    H149306   0.573   6.095   0.516 -1.2910 -2.1503 -1.2087
 9297TIP3    H249307   0.450   6.130   0.435 -0.9028  2.8808  0.1937
 9298TIP3   OH249308   1.350   2.081  14.859 -0.3567  0.2736 -0.3632
 9298TIP3    H149309   1.426   2.059  14.805  2.1795  1.6394  2.5443
 9298TIP3    H249310   1.338   2.004  14.916 -0.2660  0.6486  0.1620
 9299TIP3   OH249311   4.825   3.151   4.061 -0.0835  0.5278 -0.1407
 9299TIP3    H149312   4.842   3.242   4.035  1.7072  0.2972  0.1849
 9299TIP3    H249313   4.894   3.131   4.124 -1.7478 -0.3718  1.4369
 9300TIP3   OH249314   1.911   1.802  12.554  0.0601 -0.4152  0.1194
 9300TIP3    H149315   1.851   1.739  12.514  1.2603 -1.1093 -0.6231
 9300TIP3    H249316   1.997   1.775  12.523  0.8349  0.1357  1.7434
 9301TIP3   OH249317   1.746   6.475   3.136  0.1675 -0.2147  0.1581
 9301TIP3    H149318   1.739   6.554   3.190 -0.8204 -1.3599  1.7412
 9301TIP3    H249319   1.679   6.485   3.068  0.0276  0.2844  0.3718
 9302TIP3   OH249320   5.030   3.544   5.335  0.4638 -0.5129  0.2123
 9302TIP3    H149321   4.963   3.595   5.290 -0.1086 -1.1615  0.3110
 9302TIP3    H249322   5.039   3.464   5.282  1.6673 -0.1248 -0.1891
 9303TIP3   OH249323   6.546   3.193   3.085  0.2064  0.0110 -0.1847
 9303TIP3    H149324   6.483   3.265   3.094 -0.0479 -0.1560 -0.6263
 9303TIP3    H249325   6.533   3.160   2.996  1.5254  0.5444 -0.5932
 9304TIP3   OH249326   1.968   4.548   2.097  0.0148 -0.9935  0.3015
 9304TIP3    H149327   1.924   4.473   2.138 -0.2574 -0.8948  0.1861
 9304TIP3    H249328   1.955   4.536   2.003 -1.1793 -0.0937  0.3418
 9305TIP3   OH249329   3.841   4.711  11.014 -0.2561  0.1787 -0.0587
 9305TIP3    H149330   3.758   4.696  10.968 -1.2389 -0.1326  1.7738
 9305TIP3    H249331   3.875   4.792  10.976 -1.0871 -0.0383 -1.2792
 9306TIP3   OH249332   3.825   3.684   3.328 -0.0666 -0.4798 -0.3175
 9306TIP3    H149333   3.823   3.726   3.414 -0.0517  1.5313 -1.2888
 9306TIP3    H249334   3.890   3.733   3.278 -2.8653  0.9078 -2.7654
 9307TIP3   OH249335   3.264   1.133  10.440  0.1122 -0.2264 -0.4006
 9307TIP3    H149336   3.341   1.112  10.388 -0.1032 -0.8547 -0.4756
 9307TIP3    H249337   3.240   1.050  10.481  0.3851  0.2995  0.8435
 9308TIP3   OH249338   1.722   3.835  13.858  0.3540 -0.6823 -0.1895
 9308TIP3    H149339   1.714   3.930  13.856  1.0248 -0.6454 -1.8225
 9308TIP3    H249340   1.709   3.812  13.950  0.4345  1.0058  0.2651
 9309TIP3   OH249341   3.425   3.069   6.361  0.8778 -0.2661 -0.5712
 9309TIP3    H149342   3.466   3.117   6.433  1.1810 -0.9057 -0.3130
 9309TIP3    H249343   3.426   2.977   6.390  0.7270 -0.4858 -1.2572
 9310TIP3   OH249344   3.886   5.154   0.120 -0.0421 -0.7263 -0.4848
 9310TIP3    H149345   3.955   5.099   0.157  1.3204  2.0607  1.2937
 9310TIP3    H249346   3.930   5.207   0.053 -0.9302 -0.4643 -0.8682
 9311TIP3   OH249347   0.262   5.339  16.460  0.0920 -0.0872 -0.0963
 9311TIP3    H149348   0.199   5.330  16.531  0.8601 -1.1011  0.4452
 9311TIP3    H249349   0.292   5.250  16.442  0.1717  0.2007 -1.4460
 9312TIP3   OH249350   1.641   0.209  16.253  0.1555 -0.2709 -0.0181
 9312TIP3    H149351   1.640   0.278  16.320  2.0719  0.5043 -0.7178
 9312TIP3    H249352   1.549   0.189  16.236 -0.3594 -1.2800  3.6263
 9313TIP3   OH249353   1.890   2.535   2.426  0.5632  0.2640 -0.2177
 9313TIP3    H149354   1.957   2.469   2.446 -0.8550 -0.9651  0.5944
 9313TIP3    H249355   1.854   2.507   2.342  0.1444  0.1487 -0.0014
 9314TIP3   OH249356   4.632   5.568  13.940  0.2581  0.1566 -0.7312
 9314TIP3    H149357   4.690   5.639  13.968  1.9285 -0.8651 -1.5094
 9314TIP3    H249358   4.645   5.562  13.846 -1.0454 -0.1636 -0.9008
 9315TIP3   OH249359   5.098   3.823   1.409 -0.1784  0.1463  0.2063
 9315TIP3    H149360   5.189   3.808   1.385 -0.0896 -0.6209  0.9815
 9315TIP3    H249361   5.084   3.916   1.393  0.2094 -0.0974 -1.6466
 9316TIP3   OH249362   2.364   1.636  13.013  0.1090 -0.0474 -0.4319
 9316TIP3    H149363   2.295   1.620  13.078 -0.7512 -2.0662 -1.8002
 9316TIP3    H249364   2.371   1.554  12.965  2.5402  0.5800 -1.2234
 9317TIP3   OH249365   2.942   1.190  13.497  0.4464  0.5193  0.2945
 9317TIP3    H149366   2.988   1.269  13.472 -1.3549  1.4986 -0.0453
 9317TIP3    H249367   2.861   1.221  13.538 -0.7098 -1.1057 -0.6500
 9318TIP3   OH249368   5.654   3.170  11.421 -0.0736  0.2751  0.3310
 9318TIP3    H149369   5.691   3.249  11.382  0.4334  0.3421  0.9425
 9318TIP3    H249370   5.730   3.114  11.439 -0.5305 -0.8945 -1.2853
 9319TIP3   OH249371   5.964   3.099   5.845  0.2628  0.1163 -0.3376
 9319TIP3    H149372   5.949   3.119   5.752 -0.1175 -1.7755 -0.6987
 9319TIP3    H249373   6.047   3.051   5.846 -0.5836 -1.3747  0.0839
 9320TIP3   OH249374   1.549   0.939  16.096  0.8242  0.5173 -0.2215
 9320TIP3    H149375   1.465   0.978  16.072 -0.1571  0.3190  2.5981
 9320TIP3    H249376   1.605   0.952  16.020 -0.9455  3.0971 -1.1437
 9321TIP3   OH249377   6.742   2.659   4.538  0.0373  0.3757  0.0277
 9321TIP3    H149378   6.708   2.691   4.454  0.8829  3.2756  0.7519
 9321TIP3    H249379   6.805   2.725   4.565 -0.9765  0.0072  3.4810
 9322TIP3   OH249380   3.333   2.143   2.578  0.0265  0.0749 -0.2494
 9322TIP3    H149381   3.369   2.200   2.646 -2.0007  1.0145  0.0673
 9322TIP3    H249382   3.397   2.146   2.507  1.1343  0.7659  0.7667
 9323TIP3   OH249383   1.162   2.555  12.153  0.1294  0.4888 -0.0527
 9323TIP3    H149384   1.240   2.589  12.110 -0.2101  0.2688 -0.8419
 9323TIP3    H249385   1.109   2.518  12.083 -0.2420 -0.2468  0.6004
 9324TIP3   OH249386   1.461   4.288   3.414  0.0059 -0.1996 -0.2836
 9324TIP3    H149387   1.491   4.347   3.483  1.4036 -1.9769  0.6705
 9324TIP3    H249388   1.532   4.286   3.351  0.2179 -1.2546 -0.0365
 9325TIP3   OH249389   1.771   6.147   4.780 -0.4234  0.1478 -0.1304
 9325TIP3    H149390   1.751   6.167   4.871 -2.1367 -3.1092  0.2910
 9325TIP3    H249391   1.851   6.094   4.785 -1.1770 -1.0312 -0.3941
 9326TIP3   OH249392   6.020   1.825   2.736  0.1596  0.3014 -0.1078
 9326TIP3    H149393   5.949   1.877   2.774  0.5376  0.1849  0.7765
 9326TIP3    H249394   6.000   1.735   2.762  0.7675  0.3002  0.3734
 9327TIP3   OH249395   6.226   3.360  16.070  0.8372  0.0286  0.6787
 9327TIP3    H149396   6.277   3.320  16.000  0.3171  0.0597  0.2801
 9327TIP3    H249397   6.172   3.288  16.104  0.6939  0.1359  0.6808
 9328TIP3   OH249398   0.171   1.696   0.608 -0.2272  0.5285 -0.0957
 9328TIP3    H149399   0.207   1.780   0.577 -0.0705  1.0988  1.5893
 9328TIP3    H249400   0.230   1.630   0.572 -1.2060  0.9962 -2.7110
 9329TIP3   OH249401   2.452   5.150   1.123 -0.0994 -0.1674 -0.0571
 9329TIP3    H149402   2.503   5.212   1.176 -0.0591  0.3626 -0.7004
 9329TIP3    H249403   2.406   5.096   1.187 -1.9098  1.9864  0.5488
 9330TIP3   OH249404   6.245   4.890   5.404  0.2395  0.4751  0.2937
 9330TIP3    H149405   6.210   4.966   5.359 -1.3029 -1.5012 -1.9760
 9330TIP3    H249406   6.301   4.847   5.340  0.4169 -0.7489  1.2444
 9331TIP3   OH249407   6.771   3.025   2.281  0.2113 -0.0390 -0.1265
 9331TIP3    H149408   6.824   3.066   2.349  0.6603  1.9411 -1.6088
 9331TIP3    H249409   6.683   3.019   2.319  0.1258  2.3749  0.1486
 9332TIP3   OH249410   3.436   5.764   1.607  0.0123  0.1463 -0.1308
 9332TIP3    H149411   3.404   5.854   1.607  3.5194  1.5133  1.3151
 9332TIP3    H249412   3.426   5.735   1.698  1.0744 -0.0352 -0.0624
 9333TIP3   OH249413   4.331   1.930   2.794 -0.3671 -0.3574  0.5039
 9333TIP3    H149414   4.360   1.839   2.784 -0.5898 -0.4438  0.6570
 9333TIP3    H249415   4.237   1.927   2.780 -0.4213 -0.2000  0.8535
 9334TIP3   OH249416   3.349   4.396  15.685 -0.4248  0.0352 -0.2878
 9334TIP3    H149417   3.363   4.321  15.627 -1.7961  0.8709 -1.7221
 9334TIP3    H249418   3.273   4.372  15.738  0.1124 -0.2381  0.3711
 9335TIP3   OH249419   1.573   2.024  12.288 -0.1066  0.3048  0.4167
 9335TIP3    H149420   1.653   1.984  12.253 -1.4047 -1.8148 -0.2633
 9335TIP3    H249421   1.587   2.027  12.383  1.5017  1.6566  0.1596
 9336TIP3   OH249422   3.877   3.554  12.319  0.5976  0.4383  0.0591
 9336TIP3    H149423   3.816   3.576  12.390 -1.1899 -0.2247 -1.2278
 9336TIP3    H249424   3.890   3.637  12.273 -1.2376  0.1076 -1.0883
 9337TIP3   OH249425   0.269   5.023  14.581  0.0125 -0.0469  0.0092
 9337TIP3    H149426   0.328   5.046  14.653 -0.5484 -1.0769  0.8177
 9337TIP3    H249427   0.276   5.096  14.520  0.1698  1.0619  1.3249
 9338TIP3   OH249428   2.429   4.688  15.199 -0.3551  0.5630 -0.1564
 9338TIP3    H149429   2.376   4.768  15.204 -1.1226  0.0541 -0.1158
 9338TIP3    H249430   2.391   4.630  15.266 -0.2249 -0.0847 -0.6454
 9339TIP3   OH249431   3.319   4.535  16.831  0.0259  0.6987  0.1751
 9339TIP3    H149432   3.392   4.550  16.891  0.3239 -0.8911  0.2476
 9339TIP3    H249433   3.356   4.481  16.761 -0.6669  1.3413 -0.6960
 9340TIP3   OH249434   4.975   3.023  11.483  0.4892  0.5525  0.1109
 9340TIP3    H149435   4.914   3.079  11.434  0.2985  0.9431  0.7852
 9340TIP3    H249436   5.049   3.080  11.502  0.3272  0.5516  0.7361
 9341TIP3   OH249437   4.578   3.816  12.125  0.1410  0.8845  0.9842
 9341TIP3    H149438   4.596   3.900  12.167  1.0900  2.1811 -1.8596
 9341TIP3    H249439   4.650   3.805  12.062 -1.3712 -0.7876 -0.5242
 9342TIP3   OH249440   1.225   2.285  12.238 -0.2427 -0.0971  0.1103
 9342TIP3    H149441   1.179   2.238  12.168  0.3818 -2.6980  1.3743
 9342TIP3    H249442   1.188   2.373  12.236 -0.1595 -0.0720 -3.5565
 9343TIP3   OH249443   5.204   0.814   3.558  0.0207 -0.3886  0.1302
 9343TIP3    H149444   5.126   0.758   3.564 -0.3536 -0.1251 -1.8571
 9343TIP3    H249445   5.276   0.753   3.544 -0.2087 -0.4782 -0.7091
 9344TIP3   OH249446   1.639   0.646   2.819 -0.1870 -0.0948 -0.0001
 9344TIP3    H149447   1.687   0.689   2.748  0.5583 -0.0700  0.5112
 9344TIP3    H249448   1.548   0.649   2.792  0.1142 -0.2857 -1.0658
 9345TIP3   OH249449   0.758   5.787  15.308  0.5857 -0.0465  0.6869
 9345TIP3    H149450   0.717   5.790  15.394  1.8436  0.2363  1.2887
 9345TIP3    H249451   0.842   5.831  15.319  0.1135  1.3419 -1.0666
 9346TIP3   OH249452   3.243   4.818  13.153  0.9233  0.5819 -0.3923
 9346TIP3    H149453   3.204   4.732  13.138  0.8446  0.8104 -1.5746
 9346TIP3    H249454   3.322   4.801  13.204  1.3989 -0.2903 -1.4157
 9347TIP3   OH249455   4.837   6.257  16.011  0.5497 -0.2869 -0.4620
 9347TIP3    H149456   4.884   6.334  15.981 -0.5248  1.3266  1.8747
 9347TIP3    H249457   4.863   6.247  16.102 -0.2631 -1.9732 -0.3990
 9348TIP3   OH249458   1.029   0.147  14.079 -0.1449  0.0752 -0.1169
 9348TIP3    H149459   1.101   0.187  14.128  0.2109 -0.0136 -0.5574
 9348TIP3    H249460   1.073   0.093  14.013 -0.6208 -0.2933 -0.1320
 9349TIP3   OH249461   3.577   6.230  11.244  0.8836 -0.7569  0.1373
 9349TIP3    H149462   3.650   6.281  11.279 -0.0638  1.7072 -1.3801
 9349TIP3    H249463   3.500   6.284  11.262 -0.2756 -2.1931 -0.4640
 9350TIP3   OH249464   5.301   0.943   4.133  0.2912  0.1261  0.1919
 9350TIP3    H149465   5.242   0.916   4.203  0.8598 -1.1063  0.2111
 9350TIP3    H249466   5.248   0.937   4.053  0.2239 -0.4720  0.2755
 9351TIP3   OH249467   1.392   0.674  14.481  0.1422 -0.3306 -0.3573
 9351TIP3    H149468   1.459   0.742  14.486 -0.9648  0.8947 -1.4394
 9351TIP3    H249469   1.411   0.615  14.554  1.0298  1.2374  0.7096
 9352TIP3   OH249470   4.025   6.323   3.953 -0.1920 -0.2314 -0.5972
 9352TIP3    H149471   4.049   6.249   3.897  0.6770  0.6337 -1.3897
 9352TIP3    H249472   4.069   6.398   3.913 -2.3694  1.0048 -0.7425
 9353TIP3   OH249473   3.794   0.794  16.517 -0.8097  0.4060  0.2874
 9353TIP3    H149474   3.712   0.840  16.533  0.1619  1.9446  0.9522
 9353TIP3    H249475   3.837   0.844  16.448 -0.4349 -0.4124 -0.0794
 9354TIP3   OH249476   6.477   4.789  13.476 -0.0279  0.7277  0.1035
 9354TIP3    H149477   6.438   4.736  13.545  2.3087 -0.3723  0.6466
 9354TIP3    H249478   6.490   4.875  13.517  0.5029  0.3434  0.7609
 9355TIP3   OH249479   0.888   0.198  15.958  0.2454  0.7358 -0.3742
 9355TIP3    H149480   0.915   0.287  15.978  0.6202  0.7743 -1.0339
 9355TIP3    H249481   0.969   0.152  15.935 -0.1358  0.6679 -1.6501
 9356TIP3   OH249482   3.975   1.539  16.602  0.1347  0.2918  0.1248
 9356TIP3    H149483   3.990   1.629  16.573 -1.0205  0.3529 -0.3398
 9356TIP3    H249484   4.055   1.514  16.647  0.4116  1.6099  0.3889
 9357TIP3   OH249485   5.063   1.010  15.408  0.1633 -0.0732  0.7569
 9357TIP3    H149486   5.002   1.063  15.458  0.1980  1.4354 -0.7647
 9357TIP3    H249487   5.144   1.061  15.406  0.0459  0.0677 -1.1243
 9358TIP3   OH249488   5.763   4.042  14.527 -0.0379  0.2715 -0.2250
 9358TIP3    H149489   5.852   4.027  14.559  0.0159  0.4732 -0.2811
 9358TIP3    H249490   5.734   3.956  14.495  0.3839  0.3496 -0.8241
 9359TIP3   OH249491   2.685   4.157   4.026  0.3473 -0.0624  0.0111
 9359TIP3    H149492   2.641   4.183   4.107  1.6161  1.1356  0.3259
 9359TIP3    H249493   2.745   4.087   4.052 -0.1269 -0.5240 -0.1206
 9360TIP3   OH249494   5.782   1.812  11.653  0.0271  0.7530 -0.4515
 9360TIP3    H149495   5.812   1.858  11.731 -2.6081  0.0526  1.0494
 9360TIP3    H249496   5.759   1.725  11.684 -0.6270  0.3120 -2.1019
 9361TIP3   OH249497   0.044   3.879   2.057  0.1290  0.5749  0.0630
 9361TIP3    H149498   0.061   3.973   2.048 -0.8697  0.7179 -0.4209
 9361TIP3    H249499  -0.050   3.874   2.075 -0.4882 -0.5377 -3.2686
 9362TIP3   OH249500   2.182   3.670  16.060  0.2325 -0.6673  0.0685
 9362TIP3    H149501   2.176   3.736  16.129  1.1534  0.2391 -0.6948
 9362TIP3    H249502   2.273   3.639  16.064 -0.5328 -2.8888  1.2964
 9363TIP3   OH249503   4.065   2.498  12.243 -0.1215  0.2455 -0.2945
 9363TIP3    H149504   4.005   2.570  12.228 -0.1974  0.6255  1.7023
 9363TIP3    H249505   4.009   2.423  12.264  0.0403  0.4196  0.8298
 9364TIP3   OH249506   5.152   4.128  11.690  0.4220  0.5314 -0.5499
 9364TIP3    H149507   5.153   4.080  11.607  0.3499 -0.6614  0.1273
 9364TIP3    H249508   5.074   4.096  11.736  2.1373 -1.1726  1.3038
 9365TIP3   OH249509   4.086   5.262  14.771 -0.3960 -0.0096 -0.2417
 9365TIP3    H149510   4.177   5.284  14.752 -0.9515  3.3315  0.6049
 9365TIP3    H249511   4.038   5.290  14.693 -0.9903  0.5698  0.3247
 9366TIP3   OH249512   6.703   1.077   6.135 -0.2563 -0.5661  0.2225
 9366TIP3    H149513   6.619   1.060   6.092  0.3866  1.0692 -1.7213
 9366TIP3    H249514   6.687   1.151   6.193  0.0164  0.1727 -0.6505
 9367TIP3   OH249515   2.792   4.460  16.711 -0.2580 -0.3966 -0.3825
 9367TIP3    H149516   2.710   4.441  16.664 -0.0802 -0.4892 -0.6521
 9367TIP3    H249517   2.763   4.481  16.800 -0.6242  0.1567 -0.6280
 9368TIP3   OH249518   2.636   0.402   4.511 -0.0249  0.1450  0.2168
 9368TIP3    H149519   2.551   0.420   4.471  0.7910  0.7262 -1.3015
 9368TIP3    H249520   2.672   0.330   4.459  0.5449  0.1126  0.6511
 9369TIP3   OH249521   6.623   3.484   2.571  0.2467  0.1111  0.7133
 9369TIP3    H149522   6.644   3.395   2.544  0.0173  0.1995  0.2315
 9369TIP3    H249523   6.556   3.512   2.508 -0.0504  0.4377  1.1753
 9370TIP3   OH249524   1.389   5.418  15.827 -0.2348 -0.2602 -0.4104
 9370TIP3    H149525   1.441   5.398  15.905 -0.8021  0.2469  0.1037
 9370TIP3    H249526   1.447   5.473  15.774  0.1036 -0.4933 -0.2861
 9371TIP3   OH249527   5.202   0.746  15.248  0.3393  0.6052  0.1855
 9371TIP3    H149528   5.213   0.758  15.154  2.0716 -1.9966 -0.0047
 9371TIP3    H249529   5.275   0.795  15.287  1.0556 -0.3269  0.0272
 9372TIP3   OH249530   0.372   0.905  12.277 -0.4269  0.0844 -0.3126
 9372TIP3    H149531   0.444   0.958  12.309  0.5546 -0.7350 -1.1126
 9372TIP3    H249532   0.294   0.942  12.318  0.5679  0.2841  1.4124
 9373TIP3   OH249533   2.740   2.910  15.621  0.1554 -0.1324 -0.1775
 9373TIP3    H149534   2.751   2.877  15.710  0.7909 -0.6156 -0.4349
 9373TIP3    H249535   2.708   2.834  15.572 -0.3068  0.1651 -0.3402
 9374TIP3   OH249536   0.420   5.494   0.764 -0.0203  0.2090  0.2316
 9374TIP3    H149537   0.509   5.513   0.734  0.4764  2.0058  2.7548
 9374TIP3    H249538   0.366   5.563   0.726  0.1641  0.8962  1.2157
 9375TIP3   OH249539   4.516   3.337  13.144 -0.4880  0.7072 -0.4474
 9375TIP3    H149540   4.576   3.277  13.100 -1.7550 -0.3608 -0.7617
 9375TIP3    H249541   4.549   3.424  13.123  2.2199  0.1479  1.1939
 9376TIP3   OH249542   0.561   0.318   4.156 -0.0922  0.2529 -0.3619
 9376TIP3    H149543   0.518   0.403   4.140 -1.3097 -0.1734  0.5712
 9376TIP3    H249544   0.499   0.254   4.121 -0.0690 -0.3489  0.6922
 9377TIP3   OH249545   0.578   2.377  16.528 -0.2417  0.5764 -0.4838
 9377TIP3    H149546   0.668   2.357  16.555 -0.6308 -0.2328  0.2532
 9377TIP3    H249547   0.562   2.320  16.453 -0.2948  0.3743 -0.3201
 9378TIP3   OH249548   2.778   1.016  14.039  0.2939 -0.7013  0.1840
 9378TIP3    H149549   2.756   0.930  14.077 -0.9414  0.0379  1.2045
 9378TIP3    H249550   2.844   1.052  14.099 -2.1848  0.7757  2.1482
 9379TIP3   OH249551   3.900   6.573   0.542  0.0503 -0.1153 -0.5363
 9379TIP3    H149552   3.855   6.506   0.594 -1.0900  0.6761 -0.4900
 9379TIP3    H249553   3.829   6.621   0.499  0.8917  0.6856 -1.0294
 9380TIP3   OH249554   3.038   0.213  15.530 -0.3029  0.4596 -0.3670
 9380TIP3    H149555   2.993   0.257  15.602  1.1029 -0.5240  1.1345
 9380TIP3    H249556   3.105   0.276  15.503 -0.6163  0.6951 -0.5997
 9381TIP3   OH249557   6.345   3.388   3.112 -0.6295 -0.3521  0.3982
 9381TIP3    H149558   6.346   3.455   3.180  0.7104 -1.5496  1.6047
 9381TIP3    H249559   6.268   3.335   3.131 -0.2453 -0.6978  1.0248
 9382TIP3   OH249560   3.745   3.423   0.977 -0.2930  0.4669  0.0607
 9382TIP3    H149561   3.724   3.497   0.920 -0.0730  0.4626 -0.0277
 9382TIP3    H249562   3.695   3.350   0.941  0.5809  0.2337 -0.7076
 9383TIP3   OH249563   1.590   2.523   3.473 -0.0158 -0.4650 -0.7672
 9383TIP3    H149564   1.649   2.549   3.401 -0.6185 -1.3152 -1.5761
 9383TIP3    H249565   1.632   2.446   3.512 -0.6653 -1.1673 -1.4458
 9384TIP3   OH249566   5.994   3.007  16.165 -0.4584 -0.3000  0.1435
 9384TIP3    H149567   6.023   2.930  16.214  2.5567  0.3460 -0.5257
 9384TIP3    H249568   6.038   3.000  16.080  1.1493  2.9315  0.6340
 9385TIP3   OH249569   1.693   2.108  11.471 -0.0252 -0.0390 -0.0106
 9385TIP3    H149570   1.715   2.025  11.427 -0.5815 -0.9726  1.4425
 9385TIP3    H249571   1.739   2.104  11.554 -3.6953 -1.0095  2.0858
 9386TIP3   OH249572   2.841   5.362   2.152  0.2137  0.0585 -0.2359
 9386TIP3    H149573   2.843   5.357   2.056  0.3705  1.0325 -0.2844
 9386TIP3    H249574   2.751   5.339   2.175 -0.8702  3.4605 -0.8385
 9387TIP3   OH249575   1.869   0.895  12.560  0.1182  0.2478  0.5987
 9387TIP3    H149576   1.816   0.861  12.632  0.9317  0.8810  1.4925
 9387TIP3    H249577   1.880   0.820  12.501 -1.6651  0.0738  0.4606
 9388TIP3   OH249578   6.370   4.344  16.325 -0.5914  0.3849  0.4461
 9388TIP3    H149579   6.445   4.286  16.319 -0.1178  0.7781  2.2451
 9388TIP3    H249580   6.395   4.421  16.272 -0.1546  0.0707  0.1915
 9389TIP3   OH249581   2.374   2.812   1.037  0.2702 -0.3837 -0.2371
 9389TIP3    H149582   2.294   2.766   1.011  0.2474  0.2854 -1.4297
 9389TIP3    H249583   2.430   2.744   1.073 -0.8389 -0.8613  0.6251
 9390TIP3   OH249584   2.435   4.473   2.541 -0.0236  0.3328  0.6919
 9390TIP3    H149585   2.509   4.529   2.563  1.1796 -1.0597  0.2866
 9390TIP3    H249586   2.443   4.398   2.601  0.3807 -1.0471 -1.0400
 9391TIP3   OH249587   2.828   5.563  12.798  0.1024  0.3898 -0.0440
 9391TIP3    H149588   2.788   5.533  12.880  0.4516  1.8318  0.6631
 9391TIP3    H249589   2.905   5.506  12.787  0.0138  0.1463  0.5831
 9392TIP3   OH249590   0.663   2.287   6.190  0.1691  0.2530  0.5226
 9392TIP3    H149591   0.598   2.294   6.120  2.3402 -1.4448 -1.7618
 9392TIP3    H249592   0.626   2.223   6.250 -0.0649 -1.1192 -1.0384
 9393TIP3   OH249593   4.451   0.690   0.032  0.0167 -0.3572 -0.4604
 9393TIP3    H149594   4.395   0.715  -0.041 -1.1232 -0.7469  0.2537
 9393TIP3    H249595   4.408   0.730   0.109  0.8842 -0.4141  0.0554
 9394TIP3   OH249596   2.841   0.724   2.517  0.0180  0.1338  0.0276
 9394TIP3    H149597   2.906   0.654   2.526  0.4402  0.4536 -0.5244
 9394TIP3    H249598   2.830   0.758   2.606  0.1706 -0.3088  0.2194
 9395TIP3   OH249599   3.346   0.457   6.548 -0.1734  0.0729  0.0625
 9395TIP3    H149600   3.261   0.494   6.522 -0.5301 -1.3576 -0.8202
 9395TIP3    H249601   3.327   0.409   6.629  0.1749  1.3010  0.8866
 9396TIP3   OH249602   4.067   5.850  13.802 -0.2777 -0.6476 -0.5017
 9396TIP3    H149603   4.089   5.778  13.744 -0.6030 -0.0681 -1.3507
 9396TIP3    H249604   4.149   5.896  13.817 -0.0863 -1.1311 -0.0316
 9397TIP3   OH249605   0.336   4.833  16.792 -0.4328  0.0223 -0.5172
 9397TIP3    H149606   0.420   4.879  16.793 -0.5541  0.2455 -1.0928
 9397TIP3    H249607   0.294   4.859  16.711 -1.9828  1.5669  0.7399
 9398TIP3   OH249608   5.226   6.459   5.411  0.1460  0.3278  0.7497
 9398TIP3    H149609   5.320   6.441   5.418  0.5364  1.7501 -0.4381
 9398TIP3    H249610   5.185   6.399   5.473  1.7037 -1.4654  0.0905
 9399TIP3   OH249611   2.469   5.097  14.459  0.6751  0.4693 -0.0157
 9399TIP3    H149612   2.421   5.171  14.498 -0.3756 -1.2101  2.0048
 9399TIP3    H249613   2.418   5.073  14.382 -1.8722 -1.2927  2.1001
 9400TIP3   OH249614   5.818   4.555   5.540 -0.1997  0.3177 -0.2122
 9400TIP3    H149615   5.887   4.607   5.582 -0.4501  0.1720  0.3865
 9400TIP3    H249616   5.739   4.577   5.589 -0.0820 -1.5757  0.8401
 9401TIP3   OH249617   2.652   3.526   4.945  0.1481 -0.1878 -0.2394
 9401TIP3    H149618   2.669   3.473   5.023 -1.0519 -0.2655 -0.0229
 9401TIP3    H249619   2.563   3.559   4.957 -0.2123 -0.5475 -1.7869
 9402TIP3   OH249620   0.940   1.715   5.176 -0.4808 -0.5145  0.7294
 9402TIP3    H149621   1.001   1.709   5.250 -0.5347 -0.0088  0.8180
 9402TIP3    H249622   0.889   1.634   5.180 -0.2373 -0.6536  1.0318
 9403TIP3   OH249623   4.533   6.488  13.013  0.0945  0.8431  0.2087
 9403TIP3    H149624   4.540   6.506  13.107  0.3472  1.1266  0.1369
 9403TIP3    H249625   4.510   6.573  12.975 -1.4785  0.4251  0.1798
 9404TIP3   OH249626   4.133   5.375   1.255 -0.8648  0.6661 -0.0942
 9404TIP3    H149627   4.225   5.402   1.252 -0.9423  0.8522 -0.8999
 9404TIP3    H249628   4.097   5.406   1.172 -1.4614 -0.0944 -0.1162
 9405TIP3   OH249629   4.546   3.118  13.458 -0.8650  0.1580  0.5089
 9405TIP3    H149630   4.505   3.092  13.376 -0.0675 -1.8173  0.7240
 9405TIP3    H249631   4.474   3.152  13.511 -1.6860 -0.2740 -0.3206
 9406TIP3   OH249632   2.215   2.326   4.900  0.1506  0.0090  0.5401
 9406TIP3    H149633   2.188   2.237   4.878 -1.7188  0.6669  0.0189
 9406TIP3    H249634   2.310   2.326   4.892 -0.1464 -0.7050 -4.0670
 9407TIP3   OH249635   3.964   5.770   5.362  0.0470 -0.0995  0.5526
 9407TIP3    H149636   3.900   5.706   5.393 -1.3329  1.0140  0.0249
 9407TIP3    H249637   3.915   5.851   5.352  1.3620  0.5818 -0.6434
 9408TIP3   OH249638   0.603   6.368   2.797  0.2935  0.3445 -0.1380
 9408TIP3    H149639   0.591   6.438   2.733  0.1131 -0.1423 -0.6398
 9408TIP3    H249640   0.684   6.323   2.770 -1.0453 -1.3534 -1.4412
 9409TIP3   OH249641   0.901   6.190  12.415 -0.2806  0.4131 -0.5830
 9409TIP3    H149642   0.865   6.276  12.437  0.1772  0.6606 -0.7849
 9409TIP3    H249643   0.955   6.167  12.490 -0.5991  0.1914 -0.4228
 9410TIP3   OH249644   6.021   1.976  14.112 -0.2597  0.4791 -1.0073
 9410TIP3    H149645   6.097   1.918  14.098 -0.4915 -0.4883  1.4358
 9410TIP3    H249646   5.952   1.918  14.143 -1.5406  1.6091 -1.6781
 9411TIP3   OH249647   2.612   5.435  15.187  0.3376 -0.0989 -0.1926
 9411TIP3    H149648   2.632   5.518  15.143 -0.0453  0.4062  0.5745
 9411TIP3    H249649   2.693   5.412  15.233  1.3360 -1.5611 -2.6056
 9412TIP3   OH249650   5.931   2.656   1.495 -0.3588 -0.3005  0.1247
 9412TIP3    H149651   5.959   2.674   1.585  0.4912  0.8290 -0.3578
 9412TIP3    H249652   5.996   2.593   1.462  0.3725  0.6680 -0.2881
 9413TIP3   OH249653   5.212   2.949  12.362 -0.6799 -0.0543  0.1978
 9413TIP3    H149654   5.210   3.035  12.404 -0.8364  0.8378 -1.5954
 9413TIP3    H249655   5.120   2.921  12.359 -0.6209 -0.3180  0.8487
 9414TIP3   OH249656   3.819   3.810   5.445 -0.1184 -0.0632  0.5094
 9414TIP3    H149657   3.826   3.905   5.449  0.1581 -0.0095 -0.8755
 9414TIP3    H249658   3.869   3.786   5.367 -0.5462 -1.3089  0.6055
 9415TIP3   OH249659   0.155   0.432   0.656 -0.1200  0.6865 -0.2455
 9415TIP3    H149660   0.082   0.387   0.614  0.1829 -0.5707  0.5183
 9415TIP3    H249661   0.207   0.361   0.695  0.5744  1.6800  0.6750
 9416TIP3   OH249662   1.784   4.339   5.346  0.2265  0.2807 -0.0393
 9416TIP3    H149663   1.853   4.282   5.312 -0.9858 -1.5402  0.4653
 9416TIP3    H249664   1.728   4.357   5.271 -0.1599 -0.3666  0.0836
 9417TIP3   OH249665   5.512   3.290  12.485 -1.1202 -0.4962  0.3073
 9417TIP3    H149666   5.503   3.287  12.390  0.3247  1.2380  0.0814
 9417TIP3    H249667   5.458   3.364  12.512 -0.1357  0.1302  0.6126
 9418TIP3   OH249668   0.287   0.833   1.307 -0.0569  0.4032 -0.2495
 9418TIP3    H149669   0.274   0.835   1.401  1.6977 -0.7020  0.0412
 9418TIP3    H249670   0.339   0.754   1.291 -0.8599  0.2269 -2.2143
 9419TIP3   OH249671   6.600   2.930   3.593 -0.5278  0.0304  0.1647
 9419TIP3    H149672   6.649   2.865   3.542  0.7026  1.0541  0.0220
 9419TIP3    H249673   6.524   2.882   3.626  0.3375 -1.4645  0.0162
 9420TIP3   OH249674   6.008   4.863  11.046 -0.1059 -0.5375 -0.1365
 9420TIP3    H149675   6.056   4.781  11.035  0.7805 -0.0281 -0.1857
 9420TIP3    H249676   5.917   4.842  11.026 -0.3429 -2.1288  2.4052
 9421TIP3   OH249677   0.433   3.947  13.691 -0.4924  0.0730  0.7968
 9421TIP3    H149678   0.495   4.019  13.683  0.4467 -0.7561  0.5137
 9421TIP3    H249679   0.487   3.871  13.715 -1.3097 -0.7909 -0.0537
 9422TIP3   OH249680   4.901   1.407  12.815 -0.3985 -0.2591 -0.2896
 9422TIP3    H149681   4.942   1.351  12.749  0.4334  0.6165 -0.5275
 9422TIP3    H249682   4.921   1.364  12.899  0.8378  0.0440 -0.4145
 9423TIP3   OH249683   4.527   0.401  16.713  0.0310  0.1189 -0.0414
 9423TIP3    H149684   4.594   0.399  16.782  0.6005 -2.0361 -0.6282
 9423TIP3    H249685   4.454   0.351  16.749 -0.9385  1.6833  0.2276
 9424TIP3   OH249686   5.527   0.463  17.217 -0.7161 -0.5172 -0.4993
 9424TIP3    H149687   5.522   0.493  17.126  0.4496  1.0127 -0.0690
 9424TIP3    H249688   5.578   0.529  17.262  0.2013 -2.1435  0.9214
 9425TIP3   OH249689   2.677   3.224   4.126 -0.2651 -0.2082  0.6469
 9425TIP3    H149690   2.702   3.266   4.043  0.8268 -1.0447  0.5335
 9425TIP3    H249691   2.671   3.131   4.104  0.6068 -0.5049  1.6295
 9426TIP3   OH249692   5.524   0.362  11.529  0.2044 -0.6035  0.4484
 9426TIP3    H149693   5.513   0.456  11.541  4.4527 -0.2119  2.0953
 9426TIP3    H249694   5.477   0.322  11.602  0.3741  0.3372  1.0695
 9427TIP3   OH249695   2.928   6.648   0.243 -0.1414 -0.0535  0.2645
 9427TIP3    H149696   2.931   6.554   0.226  2.9258  0.0891 -0.3247
 9427TIP3    H249697   2.979   6.687   0.172  3.9083  1.4898  3.7988
 9428TIP3   OH249698   0.700   0.042   4.176 -0.0715 -0.2952  0.1819
 9428TIP3    H149699   0.784   0.073   4.144  0.3476 -2.2041 -0.6190
 9428TIP3    H249700   0.714   0.025   4.269  0.2623 -0.0367  0.1775
 9429TIP3   OH249701   2.497   2.298   3.191  0.4430 -0.3581 -0.3072
 9429TIP3    H149702   2.541   2.253   3.263 -0.0993 -0.6642 -0.1632
 9429TIP3    H249703   2.411   2.257   3.186  0.8088 -1.0221 -1.7525
 9430TIP3   OH249704   4.737   2.336   5.789  0.1806 -0.0479  0.2163
 9430TIP3    H149705   4.829   2.312   5.780  0.0403 -0.8257  0.8325
 9430TIP3    H249706   4.723   2.341   5.884 -0.5313 -0.4000  0.1302
 9431TIP3   OH249707   5.028   0.091   5.291  0.0105 -0.4537 -0.0828
 9431TIP3    H149708   4.977   0.063   5.367  1.6918  2.1734  2.1186
 9431TIP3    H249709   5.105   0.033   5.292 -0.5509 -1.2216 -0.5407
 9432TIP3   OH249710   1.946   2.674  15.835 -0.6616  0.9892  0.2140
 9432TIP3    H149711   1.999   2.598  15.811 -0.5789  1.2535 -0.4719
 9432TIP3    H249712   1.876   2.676  15.769 -0.1877  1.9837 -0.2827
 9433TIP3   OH249713   3.373   4.254  10.725  0.2464  0.2177  0.0934
 9433TIP3    H149714   3.347   4.211  10.644 -0.6923 -0.4519  0.7397
 9433TIP3    H249715   3.368   4.348  10.705  1.0789  0.0430 -0.9428
 9434TIP3   OH249716   4.422   3.336  14.485  0.3396 -0.3234  0.2957
 9434TIP3    H149717   4.398   3.263  14.428 -0.7134  1.0640 -1.0764
 9434TIP3    H249718   4.428   3.411  14.426 -1.3518  1.2623  2.0659
 9435TIP3   OH249719   4.562   0.527  12.700 -0.1282  0.5597 -0.3288
 9435TIP3    H149720   4.473   0.498  12.681  0.2248  0.5890 -2.0436
 9435TIP3    H249721   4.550   0.607  12.751 -1.0765  0.5901 -0.5917
 9436TIP3   OH249722   6.204   3.195  12.801  0.6545 -0.3103  0.4964
 9436TIP3    H149723   6.127   3.183  12.745  0.8668 -1.2023  0.3759
 9436TIP3    H249724   6.225   3.288  12.795  0.7579 -0.4188 -1.0172
 9437TIP3   OH249725   4.098   2.223  12.065 -0.5797 -0.0667 -0.3264
 9437TIP3    H149726   4.020   2.175  12.091 -0.3125 -0.8062 -0.8578
 9437TIP3    H249727   4.083   2.244  11.972  0.4136 -1.3613 -0.7951
 9438TIP3   OH249728   5.414   4.692  15.408  0.6000 -0.3052 -0.3330
 9438TIP3    H149729   5.476   4.665  15.475 -0.3764 -0.7100  0.4296
 9438TIP3    H249730   5.408   4.615  15.350 -0.9050 -1.1396  0.8894
 9439TIP3   OH249731   0.896   1.596   5.789  0.1035  0.1926  0.3704
 9439TIP3    H149732   0.958   1.645   5.735  0.3619 -0.4651  0.0677
 9439TIP3    H249733   0.824   1.657   5.805  0.3832  0.6398 -0.0742
 9440TIP3   OH249734   3.917   4.082  13.240 -0.1138 -0.3505  0.2137
 9440TIP3    H149735   3.942   4.164  13.196 -1.1796 -0.7187 -1.1284
 9440TIP3    H249736   3.970   4.080  13.319  0.2646  1.4190  0.0305
 9441TIP3   OH249737   0.413   2.135  15.182  0.8143  0.1613 -0.3910
 9441TIP3    H149738   0.398   2.228  15.164  1.0932 -0.3467 -3.5054
 9441TIP3    H249739   0.495   2.132  15.231  2.6760  1.3453 -3.3527
 9442TIP3   OH249740   2.534   6.449  12.401 -0.1975  0.6160  0.2863
 9442TIP3    H149741   2.575   6.507  12.465 -0.3098  1.0905 -0.0689
 9442TIP3    H249742   2.552   6.490  12.316 -0.1323  0.0464  0.0151
 9443TIP3   OH249743   2.357   4.142   2.135 -0.0606  0.4021  0.1413
 9443TIP3    H149744   2.355   4.084   2.211  0.0445  0.0340 -0.1373
 9443TIP3    H249745   2.450   4.151   2.113 -0.0256  1.2425  0.6150
 9444TIP3   OH249746   0.206   4.033   1.373  0.3146 -0.2965  0.0941
 9444TIP3    H149747   0.238   4.094   1.439  0.0888  1.6848 -1.5887
 9444TIP3    H249748   0.284   3.985   1.344  0.8101  0.4988  0.1029
 9445TIP3   OH249749   2.656   2.445   5.517 -0.4796  0.2171 -0.2648
 9445TIP3    H149750   2.685   2.457   5.427 -3.7152  0.3628 -1.3753
 9445TIP3    H249751   2.601   2.522   5.534  0.0903  0.1830  1.8373
 9446TIP3   OH249752   1.113   2.392   4.811  0.1576  0.6007  0.1779
 9446TIP3    H149753   1.138   2.344   4.889  0.5040  0.4339 -0.0350
 9446TIP3    H249754   1.032   2.438   4.835 -0.7284 -0.8569  0.0779
 9447TIP3   OH249755   0.516   1.011  10.611 -0.2141 -0.6327 -0.4341
 9447TIP3    H149756   0.578   0.952  10.652 -0.8634 -0.7274  0.4189
 9447TIP3    H249757   0.540   1.098  10.642  1.8909 -0.1905 -3.1117
 9448TIP3   OH249758   0.630   4.802  14.734  0.0831  0.0077 -0.5724
 9448TIP3    H149759   0.702   4.740  14.741 -0.2211 -0.2223  0.6875
 9448TIP3    H249760   0.669   4.881  14.697  0.8463 -0.3182 -0.4674
 9449TIP3   OH249761   3.115   0.180   5.669  0.0031 -0.3662  0.9251
 9449TIP3    H149762   3.095   0.106   5.612  0.4163 -0.5987  1.0785
 9449TIP3    H249763   3.064   0.253   5.632  1.5748 -0.0839 -0.7759
 9450TIP3   OH249764   6.764   1.472   0.665 -0.5747 -0.2430 -0.5065
 9450TIP3    H149765   6.830   1.404   0.678 -0.2672  0.2583  0.5472
 9450TIP3    H249766   6.811   1.554   0.674 -0.8543  0.1326 -2.2467
 9451TIP3   OH249767   4.428   3.633  12.858 -0.1541 -0.5793  0.0892
 9451TIP3    H149768   4.374   3.701  12.818  2.2042  2.6700  2.1614
 9451TIP3    H249769   4.425   3.652  12.952  1.7398 -2.4376  0.5687
 9452TIP3   OH249770   6.086   2.935   4.508 -0.0928  0.0416 -0.3094
 9452TIP3    H149771   6.086   2.918   4.414  1.7180  1.6464 -0.6330
 9452TIP3    H249772   6.085   3.030   4.515 -0.1020 -0.0607  1.2963
 9453TIP3   OH249773   3.004   1.860  10.765  0.1414  0.2675 -0.1416
 9453TIP3    H149774   2.998   1.955  10.769  0.0182  0.4393 -3.3702
 9453TIP3    H249775   3.097   1.843  10.748 -0.0507 -0.1113 -0.8417
 9454TIP3   OH249776   0.902   4.074   6.288  0.2755 -0.6675 -0.0037
 9454TIP3    H149777   0.881   4.107   6.376  0.2923  0.9418 -0.5953
 9454TIP3    H249778   0.817   4.069   6.244  0.4126 -0.3447 -0.2959
 9455TIP3   OH249779   3.408   1.448   2.626 -0.4746  0.1785 -0.3207
 9455TIP3    H149780   3.362   1.499   2.693  3.2294  0.4346  2.1531
 9455TIP3    H249781   3.470   1.510   2.587 -0.2822 -0.8485 -1.6671
 9456TIP3   OH249782   4.728   5.715   0.182  0.1321  0.4827 -0.0155
 9456TIP3    H149783   4.667   5.715   0.256  2.2208 -0.8651  1.7565
 9456TIP3    H249784   4.674   5.685   0.108 -1.5160 -0.0432  1.3526
 9457TIP3   OH249785   6.296   6.374  11.537  0.0793  0.3125  0.3491
 9457TIP3    H149786   6.391   6.387  11.533  0.3879 -0.9603  2.6111
 9457TIP3    H249787   6.284   6.280  11.527 -0.7773  0.2167  2.1294
 9458TIP3   OH249788   6.771   2.139   1.651  0.2030 -0.2949  0.4030
 9458TIP3    H149789   6.735   2.207   1.594 -0.0525 -0.8043 -0.0508
 9458TIP3    H249790   6.716   2.143   1.730  0.0267 -0.1410  0.2734
 9459TIP3   OH249791   0.297   4.601  16.577  0.2741 -0.3435  0.3081
 9459TIP3    H149792   0.382   4.614  16.618  0.3189 -0.3483  0.2178
 9459TIP3    H249793   0.261   4.523  16.621  0.1871 -0.1607  0.5628
 9460TIP3   OH249794   5.242   3.774  15.858  0.3616 -0.6401 -0.1759
 9460TIP3    H149795   5.222   3.680  15.865 -1.1547 -0.3922 -1.0287
 9460TIP3    H249796   5.162   3.813  15.825  1.3646  0.8054 -0.9590
 9461TIP3   OH249797   1.793   4.798   0.346  0.1330  0.0644  0.4522
 9461TIP3    H149798   1.744   4.880   0.345 -1.0209 -0.6057 -0.6032
 9461TIP3    H249799   1.736   4.737   0.392  0.3015 -0.5296 -0.1146
 9462TIP3   OH249800   3.283   6.414   1.311 -0.0420 -0.2844 -0.4935
 9462TIP3    H149801   3.214   6.475   1.337  2.3402  1.5565  1.7572
 9462TIP3    H249802   3.341   6.466   1.255  0.8325 -1.0735 -0.3377
 9463TIP3   OH249803   6.754   4.623  15.230  0.2395  0.7541  0.7808
 9463TIP3    H149804   6.779   4.532  15.244  2.5602  1.1155 -0.8318
 9463TIP3    H249805   6.658   4.621  15.222  0.4152 -1.8234 -1.1611
 9464TIP3   OH249806   0.788   3.911  16.839  0.3055  0.0347  0.0267
 9464TIP3    H149807   0.770   3.940  16.749  1.2212  0.5888  0.0217
 9464TIP3    H249808   0.762   3.819  16.839  3.0644 -0.8092 -1.6596
 9465TIP3   OH249809   3.806   0.252  13.198 -0.0012  0.3400 -0.3215
 9465TIP3    H149810   3.805   0.345  13.176 -1.5988  0.2152 -0.8715
 9465TIP3    H249811   3.723   0.237  13.243  1.4294 -0.2711  2.1742
 9466TIP3   OH249812   6.181   4.504   2.525 -0.6014  0.5345 -0.6205
 9466TIP3    H149813   6.275   4.507   2.506 -0.2123  4.1981  1.4757
 9466TIP3    H249814   6.157   4.412   2.512  3.4614 -0.6710 -0.2257
 9467TIP3   OH249815   2.442   5.355  13.014  0.5575 -0.4105 -0.1369
 9467TIP3    H149816   2.395   5.306  13.081  0.6461 -0.5235 -0.1584
 9467TIP3    H249817   2.506   5.293  12.978  1.6935  0.1658  0.8783
 9468TIP3   OH249818   5.989   5.818   3.868  0.4452 -0.3550  0.8738
 9468TIP3    H149819   5.958   5.731   3.891 -0.8442  0.3842  2.0387
 9468TIP3    H249820   5.911   5.865   3.840  1.0085  0.6364  0.9210
 9469TIP3   OH249821   5.215   4.175  12.300 -0.1936 -0.0857 -0.1880
 9469TIP3    H149822   5.238   4.264  12.327 -0.1375 -0.1189 -0.1255
 9469TIP3    H249823   5.220   4.123  12.380  1.4018 -0.4760 -0.5138
 9470TIP3   OH249824   1.790   1.334  15.732  0.1164 -0.7919  0.1963
 9470TIP3    H149825   1.695   1.342  15.742  0.0707 -2.5482  1.4158
 9470TIP3    H249826   1.811   1.394  15.661 -1.8526 -0.0910  0.1516
 9471TIP3   OH249827   5.184   4.252   2.679 -0.0734  0.1577  0.2969
 9471TIP3    H149828   5.227   4.216   2.757 -0.4614  1.0006  0.9109
 9471TIP3    H249829   5.158   4.341   2.705 -0.2141  0.4424 -0.7923
 9472TIP3   OH249830   3.296   2.653   4.218  0.0145  0.1059  0.2789
 9472TIP3    H149831   3.383   2.658   4.179 -0.0857  0.4513  0.1041
 9472TIP3    H249832   3.302   2.580   4.280  0.2191 -0.3399 -0.2623
 9473TIP3   OH249833   2.424   4.966  13.603 -0.7182 -0.2187  0.4818
 9473TIP3    H149834   2.378   4.919  13.534 -1.5029  0.6637  0.3859
 9473TIP3    H249835   2.394   4.925  13.684 -1.0036 -0.2282  0.3741
 9474TIP3   OH249836   0.838   6.418   5.510  0.6545 -0.1392 -0.4381
 9474TIP3    H149837   0.809   6.402   5.600  2.0032  0.2597  0.0742
 9474TIP3    H249838   0.776   6.482   5.476  0.3788  0.0037  0.3288
 9475TIP3   OH249839   3.526   4.754  15.550  0.2778  0.0050 -0.6598
 9475TIP3    H149840   3.459   4.784  15.488  0.0197  0.1123 -0.3333
 9475TIP3    H249841   3.532   4.825  15.614  1.1696  0.2840 -1.0458
 9476TIP3   OH249842   6.154   1.948  11.738 -0.4436  0.1715  0.5458
 9476TIP3    H149843   6.234   1.896  11.745 -0.2705  0.4923  0.8927
 9476TIP3    H249844   6.093   1.890  11.692 -0.2589 -0.3539  0.9549
 9477TIP3   OH249845   4.135   1.354   2.530  0.3539  0.3759 -0.2497
 9477TIP3    H149846   4.228   1.354   2.508  0.4363  1.6997  0.0608
 9477TIP3    H249847   4.103   1.270   2.498  1.5043  0.2094 -1.0003
 9478TIP3   OH249848   3.477   6.751   6.761 -0.0483 -0.2888 -0.6153
 9478TIP3    H149849   3.452   6.661   6.783  2.3018 -0.1876  2.7498
 9478TIP3    H249850   3.547   6.742   6.697 -0.4491 -0.8085 -0.9833
 9479TIP3   OH249851   5.898   5.451  11.441  0.1170 -0.3320 -0.3943
 9479TIP3    H149852   5.987   5.443  11.476  0.2516  0.2477 -0.6023
 9479TIP3    H249853   5.845   5.393  11.497  0.0919  1.5214  1.5829
 9480TIP3   OH249854   1.711   5.278   0.313  0.4720  0.3017 -0.3037
 9480TIP3    H149855   1.639   5.320   0.361 -0.4243  0.7613 -2.0076
 9480TIP3    H249856   1.689   5.291   0.221  2.0275 -0.8077 -0.8505
 9481TIP3   OH249857   1.217   1.983   1.086 -0.0304 -0.1972 -0.0400
 9481TIP3    H149858   1.193   1.913   1.025  0.8444  1.2306 -2.0686
 9481TIP3    H249859   1.307   2.006   1.062  0.2264  0.6187  1.6114
 9482TIP3   OH249860   5.219   6.476   2.095  0.0153  0.3080 -0.2497
 9482TIP3    H149861   5.202   6.386   2.124  1.6053 -0.1162 -0.5915
 9482TIP3    H249862   5.221   6.471   2.000  1.0106  0.5106 -0.2536
 9483TIP3   OH249863   3.179   0.429   5.282  0.2147  0.1066  0.1814
 9483TIP3    H149864   3.233   0.409   5.206  0.6108  1.6522  0.0479
 9483TIP3    H249865   3.225   0.386   5.355  1.5522  1.2686  0.0463
 9484TIP3   OH249866   3.085   2.583  15.956  0.4865  0.2155  0.0814
 9484TIP3    H149867   3.039   2.553  15.878  2.1706 -0.7172 -0.5942
 9484TIP3    H249868   3.017   2.593  16.022 -0.7879 -0.2404 -1.1349
 9485TIP3   OH249869   6.732   0.750   5.060  0.8686 -0.1801  0.1269
 9485TIP3    H149870   6.696   0.775   4.975  0.2701 -0.0583  0.4128
 9485TIP3    H249871   6.758   0.658   5.049  1.5350  0.0695 -0.4232
 9486TIP3   OH249872   4.139   3.045   4.851  0.7929 -0.5806 -0.3139
 9486TIP3    H149873   4.064   2.989   4.869  0.4421  0.4503  1.5997
 9486TIP3    H249874   4.116   3.093   4.771  0.5309 -2.1547 -1.1960
 9487TIP3   OH249875   1.321   1.676   0.573  0.6153  0.3342  0.3797
 9487TIP3    H149876   1.306   1.769   0.554 -0.5565  0.5082  1.9588
 9487TIP3    H249877   1.416   1.667   0.579  0.7955  1.1685 -0.9618
 9488TIP3   OH249878   5.409   4.069   0.221  0.2493 -0.7830 -0.1291
 9488TIP3    H149879   5.349   4.135   0.256  0.8914 -0.5210  0.4806
 9488TIP3    H249880   5.459   4.039   0.297 -1.3488 -3.3586 -0.0178
 9489TIP3   OH249881   3.179   3.997  13.924 -0.3149  0.5653  0.4324
 9489TIP3    H149882   3.126   3.963  13.852 -0.2744  2.0374 -0.3154
 9489TIP3    H249883   3.180   3.927  13.989 -2.0374 -0.0111 -0.1431
 9490TIP3   OH249884   1.403   5.749   1.410 -0.8914  0.2602  0.4374
 9490TIP3    H149885   1.474   5.751   1.474 -0.4835  0.5258 -0.0196
 9490TIP3    H249886   1.391   5.656   1.391  0.1849  0.2760 -0.4101
 9491TIP3   OH249887   0.701   5.353  17.219 -0.7174 -0.2858 -0.3015
 9491TIP3    H149888   0.741   5.272  17.189  1.6802  1.0802 -0.9499
 9491TIP3    H249889   0.751   5.377  17.297 -1.7508  0.3069  0.1879
 9492TIP3   OH249890   6.589   1.783   1.819 -0.1016 -0.5230 -0.4731
 9492TIP3    H149891   6.580   1.848   1.889  0.6092 -1.5001  0.5392
 9492TIP3    H249892   6.557   1.828   1.741  1.1205  1.3283  0.0459
 9493TIP3   OH249893   4.149   3.410  12.211 -0.4711  0.1050  0.0731
 9493TIP3    H149894   4.095   3.340  12.176 -0.0595  0.8347 -2.0561
 9493TIP3    H249895   4.088   3.483  12.223 -0.5046  0.0235  0.4257
 9494TIP3   OH249896   1.756   5.928  13.585  0.5627  0.0537  0.2627
 9494TIP3    H149897   1.833   5.951  13.532  0.5778  1.6651  0.9653
 9494TIP3    H249898   1.689   5.992  13.559  0.3379  0.4007  1.6337
 9495TIP3   OH249899   5.887   5.643   4.339  0.0490 -0.3433 -0.6541
 9495TIP3    H149900   5.964   5.669   4.390  0.4866  2.0658 -2.4595
 9495TIP3    H249901   5.902   5.550   4.321  1.0471 -0.6487  1.5442
 9496TIP3   OH249902   6.305   3.264  16.919 -0.4437 -0.3704 -0.5983
 9496TIP3    H149903   6.307   3.308  16.834 -2.6040 -0.9380 -0.9598
 9496TIP3    H249904   6.353   3.323  16.977 -0.8030  1.0697 -1.7324
 9497TIP3   OH249905   4.323   1.962   5.863 -0.2486  0.1172 -0.2740
 9497TIP3    H149906   4.267   1.911   5.921 -0.5888  1.9043  1.0240
 9497TIP3    H249907   4.290   2.052   5.871  1.2564  0.7913 -1.3717
 9498TIP3   OH249908   1.494   2.672   6.144 -0.1485  0.3813 -0.2915
 9498TIP3    H149909   1.469   2.646   6.233  0.9225  1.3740  0.3086
 9498TIP3    H249910   1.539   2.595   6.109 -1.7923 -0.5126 -0.4872
 9499TIP3   OH249911   5.306   0.166  15.576  0.6005 -0.0257  0.5407
 9499TIP3    H149912   5.336   0.078  15.553  1.4133  0.8035 -1.7477
 9499TIP3    H249913   5.264   0.156  15.661  1.4090 -2.4709  0.6872
 9500TIP3   OH249914   5.051   1.813  10.905  0.1315 -0.6193 -0.1404
 9500TIP3    H149915   4.999   1.774  10.835 -2.6362 -0.1219  1.5890
 9500TIP3    H249916   5.078   1.738  10.958  2.7309 -1.0632 -1.9724
 9501TIP3   OH249917   1.862   4.287   0.298 -0.0722  0.3650  0.1875
 9501TIP3    H149918   1.858   4.275   0.393 -1.5370 -0.3479  0.0467
 9501TIP3    H249919   1.808   4.216   0.263 -0.4937  1.3352 -1.1286
 9502TIP3   OH249920   1.196   1.746  13.953  0.3043  0.7300 -0.2961
 9502TIP3    H149921   1.131   1.773  14.019  0.2602  0.1894 -0.1187
 9502TIP3    H249922   1.162   1.781  13.871  0.9948  2.4990  0.1444
 9503TIP3   OH249923   3.232   2.558   3.588 -0.4014 -0.0205 -0.5443
 9503TIP3    H149924   3.211   2.472   3.551  0.5060 -0.9516  1.0642
 9503TIP3    H249925   3.166   2.572   3.656 -0.8659  0.8079 -1.1551
 9504TIP3   OH249926   3.295   1.680   6.691 -0.0164 -0.1009 -0.1458
 9504TIP3    H149927   3.378   1.664   6.735 -0.2489  0.1759  0.3930
 9504TIP3    H249928   3.320   1.700   6.600  0.4695 -0.4819 -0.1000
 9505TIP3   OH249929   5.763   4.975   3.856 -0.3438 -0.4662  0.0809
 9505TIP3    H149930   5.679   5.021   3.845 -0.3374 -0.8638 -1.7601
 9505TIP3    H249931   5.753   4.894   3.806  1.1695 -0.4856 -0.2160
 9506TIP3   OH249932   3.780   5.878   1.364 -0.0523  0.3231  0.0010
 9506TIP3    H149933   3.832   5.956   1.385  2.3842 -1.4859  0.8683
 9506TIP3    H249934   3.737   5.855   1.446  0.8839 -0.4339  0.2901
 9507TIP3   OH249935   0.086   5.854  14.878 -0.0172 -0.0971  0.0963
 9507TIP3    H149936   0.011   5.854  14.818  1.0479 -0.2934 -1.2663
 9507TIP3    H249937   0.138   5.778  14.851  0.2985 -0.3864  1.5092
 9508TIP3   OH249938   2.955   1.570  15.240 -0.7146 -0.4890  0.2489
 9508TIP3    H149939   3.046   1.541  15.247 -0.1886  1.0075 -0.2454
 9508TIP3    H249940   2.909   1.520  15.308  0.7379 -0.2300  1.4549
 9509TIP3   OH249941   1.930   5.988   5.026  0.4588 -0.2118 -0.0920
 9509TIP3    H149942   1.835   5.999   5.030  0.7377  2.5520  0.4467
 9509TIP3    H249943   1.951   5.986   4.933 -0.1511 -1.0086 -0.2114
 9510TIP3   OH249944   2.073   2.090  11.474  0.0498 -0.4399  0.9786
 9510TIP3    H149945   2.031   2.163  11.429 -0.9217 -0.0315  2.5001
 9510TIP3    H249946   2.167   2.102  11.459 -0.2413 -0.0923 -0.5715
 9511TIP3   OH249947   0.048   5.740  15.409  0.1116 -0.0691  0.0678
 9511TIP3    H149948   0.049   5.830  15.443  0.8892 -0.2125  0.4380
 9511TIP3    H249949  -0.028   5.737  15.352 -0.2733  0.6567  0.5273
 9512TIP3   OH249950   5.103   1.237   4.097  0.2091 -0.4298  0.4485
 9512TIP3    H149951   5.190   1.253   4.060 -0.1948  1.8414  0.4479
 9512TIP3    H249952   5.120   1.218   4.190  0.7686 -0.7733  0.2761
 9513TIP3   OH249953   5.120   6.519  12.950 -0.5241  0.0283  0.1813
 9513TIP3    H149954   5.084   6.462  13.018 -0.4211  1.1718  1.2137
 9513TIP3    H249955   5.091   6.479  12.868 -0.1765 -1.6896  0.8658
 9514TIP3   OH249956   1.157   5.641   1.693 -0.4863  0.1849 -0.1579
 9514TIP3    H149957   1.065   5.634   1.716  0.4683 -2.9971  3.0553
 9514TIP3    H249958   1.202   5.658   1.776  1.9117  0.9565 -1.5583
 9515TIP3   OH249959   0.390   5.705   2.529 -0.3011 -0.4824 -0.1669
 9515TIP3    H149960   0.337   5.742   2.459  0.5248 -1.0735 -1.1077
 9515TIP3    H249961   0.362   5.614   2.535 -0.4922 -0.3931  0.3989
 9516TIP3   OH249962   2.245   1.830  11.548  0.2669 -0.2123  0.6194
 9516TIP3    H149963   2.191   1.885  11.491  0.8635 -0.5561 -0.2973
 9516TIP3    H249964   2.282   1.764  11.489 -0.1854 -1.4078  1.6448
 9517TIP3   OH249965   4.752   3.008   1.363  0.4677 -0.0322  0.2790
 9517TIP3    H149966   4.691   3.023   1.291  1.0478 -1.0184 -0.4264
 9517TIP3    H249967   4.754   2.913   1.374 -0.8996  0.1808  2.7318
 9518TIP3   OH249968   0.709   5.506  13.969 -0.1801 -0.3515  0.1542
 9518TIP3    H149969   0.641   5.496  13.902  0.6170  0.1563 -0.7403
 9518TIP3    H249970   0.789   5.471  13.928  0.2919 -0.1377  0.8786
 9519TIP3   OH249971   2.629   0.847  15.960  0.1706 -0.8872 -0.5636
 9519TIP3    H149972   2.692   0.780  15.985  1.7980 -0.6083 -3.7197
 9519TIP3    H249973   2.578   0.806  15.890 -2.5765 -0.7682  1.2933
 9520TIP3   OH249974   3.446   5.997  11.229  0.6217  0.0174  0.0833
 9520TIP3    H149975   3.492   6.078  11.248  1.6307 -0.5061 -0.0824
 9520TIP3    H249976   3.398   6.014  11.148 -0.6110  1.0198  1.0156
 9521TIP3   OH249977   2.225   0.739  15.163 -0.2802  0.4094  0.1846
 9521TIP3    H149978   2.285   0.688  15.110 -1.7600 -0.2548 -0.8928
 9521TIP3    H249979   2.196   0.680  15.232 -2.0959 -0.3156 -1.1393
 9522TIP3   OH249980   0.590   1.175  16.092 -0.1808 -0.1219 -0.0818
 9522TIP3    H149981   0.646   1.098  16.096 -0.8142 -0.5855 -0.0343
 9522TIP3    H249982   0.524   1.160  16.160 -0.8588  0.0133 -0.6933
 9523TIP3   OH249983   6.184   1.027   5.094 -0.0759  0.0885  0.2812
 9523TIP3    H149984   6.107   1.081   5.082  0.0973  0.5041  1.0392
 9523TIP3    H249985   6.151   0.937   5.095 -0.7283  0.3470  2.1392
 9524TIP3   OH249986   3.674   3.906   3.027 -0.3470 -0.2966  0.0167
 9524TIP3    H149987   3.721   3.978   2.986 -1.7994  1.2690  1.0733
 9524TIP3    H249988   3.668   3.839   2.959  0.7078  0.6967 -1.0702
 9525TIP3   OH249989   2.795   1.674   3.556 -0.2559 -0.3938  0.3555
 9525TIP3    H149990   2.710   1.701   3.590 -0.3371 -1.7432  1.2390
 9525TIP3    H249991   2.815   1.593   3.602  0.4528 -1.3142 -1.5075
 9526TIP3   OH249992   5.141   0.172  10.985  0.3191 -0.0989  0.0452
 9526TIP3    H149993   5.157   0.116  11.060  0.0632  0.7068  0.7039
 9526TIP3    H249994   5.180   0.256  11.008  1.9673 -0.3856 -1.5051
 9527TIP3   OH249995   0.398   3.821   5.608 -0.0203  0.0722 -0.3247
 9527TIP3    H149996   0.348   3.811   5.527  1.0833 -0.5079 -0.9503
 9527TIP3    H249997   0.341   3.871   5.666 -0.9489  0.2123 -1.3496
 9528TIP3   OH249998   5.167   1.429   2.831  0.5808  0.0572 -0.0880
 9528TIP3    H149999   5.089   1.461   2.877  1.6881  2.2051  0.3444
 9528TIP3    H250000   5.138   1.347   2.790 -1.8151  0.6605  0.3073
 9529TIP3   OH250001   6.642   3.453  16.471  0.0128 -0.2092  0.6246
 9529TIP3    H150002   6.689   3.397  16.532  0.6447  1.5842  1.8094
 9529TIP3    H250003   6.691   3.446  16.389 -0.4780 -2.1207  0.4736
 9530TIP3   OH250004   3.544   0.230  14.990 -0.0297 -0.7049  0.8109
 9530TIP3    H150005   3.569   0.317  14.960  1.1007 -1.1241  0.5208
 9530TIP3    H250006   3.587   0.220  15.074  0.6302 -1.3570  0.3998
 9531TIP3   OH250007   4.445   3.999   5.008 -0.9873 -0.0140  0.1917
 9531TIP3    H150008   4.367   3.976   4.957  0.2461 -0.5113 -1.5357
 9531TIP3    H250009   4.518   3.969   4.954  0.4367  1.3359  1.3162
 9532TIP3   OH250010   3.461   5.334  14.394 -0.2209 -0.0296 -0.6953
 9532TIP3    H150011   3.528   5.401  14.407  1.0753 -1.2348 -1.0841
 9532TIP3    H250012   3.378   5.380  14.408  0.7331  0.9245  2.2713
 9533TIP3   OH250013   5.237   4.863  15.537 -0.2339 -0.6550  0.3948
 9533TIP3    H150014   5.150   4.863  15.497  0.9150  0.7618 -2.2570
 9533TIP3    H250015   5.277   4.781  15.507  0.4599  0.1896 -1.0575
 9534TIP3   OH250016   5.358   0.746   1.409 -0.5508  0.4225 -0.6910
 9534TIP3    H150017   5.450   0.735   1.384 -0.3521  2.2474 -0.8357
 9534TIP3    H250018   5.362   0.800   1.488 -1.3832 -1.8237  0.9549
 9535TIP3   OH250019   2.515   1.503   1.860 -0.2852 -0.1863  0.0374
 9535TIP3    H150020   2.446   1.438   1.871 -0.3669 -0.2931 -1.0816
 9535TIP3    H250021   2.578   1.483   1.930 -0.5530 -1.1473  0.0078
 9536TIP3   OH250022   4.043   4.245  14.677  0.3438  0.5510 -0.0086
 9536TIP3    H150023   4.016   4.191  14.751  0.5434 -1.1066 -1.1074
 9536TIP3    H250024   3.972   4.235  14.613  1.8766 -1.0525 -1.5247
 9537TIP3   OH250025   2.870   1.380  15.017 -0.2068  0.1978 -0.0190
 9537TIP3    H150026   2.928   1.402  15.090 -0.3900 -0.5666  0.3536
 9537TIP3    H250027   2.884   1.452  14.954  1.1326  0.0391  0.0769
 9538TIP3   OH250028   4.753   3.596  11.772 -0.9628  0.1867 -0.4485
 9538TIP3    H150029   4.697   3.574  11.846  1.4841  0.0279  1.4093
 9538TIP3    H250030   4.804   3.516  11.756 -0.4543  0.6903 -1.3855
 9539TIP3   OH250031   2.282   2.913  14.146  0.1404 -0.0852 -0.7474
 9539TIP3    H150032   2.335   2.861  14.207 -0.0133  1.0717  0.3888
 9539TIP3    H250033   2.312   3.003  14.159 -0.8957  0.3470 -1.3416
 9540TIP3   OH250034   4.233   5.148  11.312 -0.2736 -0.0790  0.5046
 9540TIP3    H150035   4.153   5.201  11.304 -1.1055 -1.4310 -0.4260
 9540TIP3    H250036   4.230   5.113  11.401 -0.2402  0.6205  0.7849
 9541TIP3   OH250037   3.509   3.635   0.385  0.0575  0.3753  0.4751
 9541TIP3    H150038   3.523   3.701   0.317  0.8979  0.8240  1.0711
 9541TIP3    H250039   3.489   3.554   0.336 -1.3071  1.1374 -0.2434
 9542TIP3   OH250040   4.299   1.300  11.929  0.2864 -0.0242 -0.6909
 9542TIP3    H150041   4.262   1.236  11.990  0.4768 -0.1778 -0.7358
 9542TIP3    H250042   4.223   1.340  11.887  0.1541  0.1860 -0.2470
 9543TIP3   OH250043   1.633   2.922   2.304  0.7666 -0.2716 -0.1007
 9543TIP3    H150044   1.635   2.837   2.260  0.6923 -1.1662  1.5462
 9543TIP3    H250045   1.633   2.899   2.398  1.6586  1.5538  0.3655
 9544TIP3   OH250046   0.917   2.347  15.440 -0.6180 -0.7153  0.4268
 9544TIP3    H150047   0.953   2.353  15.351 -0.4213 -0.5327  0.5189
 9544TIP3    H250048   0.900   2.437  15.466 -1.5519 -0.8257  0.2208
 9545TIP3   OH250049   3.299   5.207  13.848  0.8976  0.1312 -0.1062
 9545TIP3    H150050   3.289   5.128  13.901 -1.5559  0.8218  0.4965
 9545TIP3    H250051   3.386   5.241  13.871  0.2993 -0.1515  2.6551
 9546TIP3   OH250052   5.804   0.862  13.911 -0.4393 -0.7133  0.1482
 9546TIP3    H150053   5.841   0.775  13.895 -1.9128 -1.3510  0.1357
 9546TIP3    H250054   5.742   0.848  13.983  2.1040  1.0569  2.7813
 9547TIP3   OH250055   5.264   4.644  12.234  0.1626  0.0106  0.6122
 9547TIP3    H150056   5.198   4.603  12.179  1.3244  0.2774 -1.0443
 9547TIP3    H250057   5.231   4.732  12.250  0.7338  0.6147 -1.3788
 9548TIP3   OH250058   1.713   0.774   2.587  0.3467  0.2646  0.0796
 9548TIP3    H150059   1.668   0.774   2.502 -0.4268 -1.2483  0.4670
 9548TIP3    H250060   1.804   0.752   2.566  0.2567  0.3535 -0.4084
 9549TIP3   OH250061   4.305   5.723   0.675  0.5263  0.2177  0.2669
 9549TIP3    H150062   4.335   5.792   0.616 -1.2176  0.3279 -0.5232
 9549TIP3    H250063   4.211   5.719   0.661  0.4914 -1.7651  0.8997
 9550TIP3   OH250064   1.868   0.975  15.395 -0.4534  0.2512 -0.4530
 9550TIP3    H150065   1.905   0.947  15.312  0.2835 -0.3662  0.0728
 9550TIP3    H250066   1.910   0.919  15.460  0.4356  2.0374  0.5442
 9551TIP3   OH250067   1.215   5.333  11.573 -0.2974 -0.0607  0.1748
 9551TIP3    H150068   1.275   5.266  11.608  0.7369  0.3290 -0.8319
 9551TIP3    H250069   1.150   5.283  11.523 -0.4130 -0.4243  0.6783
 9552TIP3   OH250070   3.305   3.968  15.531  0.0648  0.4639  0.2824
 9552TIP3    H150071   3.213   3.954  15.552  0.5677  0.1492  2.4037
 9552TIP3    H250072   3.345   3.881  15.535 -0.1400  0.0693 -3.9944
 9553TIP3   OH250073   4.959   2.138   3.698 -0.0366  0.4371  0.1075
 9553TIP3    H150074   4.924   2.055   3.730  0.6346  1.0161  2.4992
 9553TIP3    H250075   5.053   2.122   3.687 -0.1837  0.3923 -1.1054
 9554TIP3   OH250076   2.961   1.227  17.098 -0.6679  0.1892 -0.1513
 9554TIP3    H150077   3.014   1.282  17.041 -0.5643 -0.7398 -0.9756
 9554TIP3    H250078   2.973   1.263  17.185  0.9396  0.2802 -0.4068
 9555TIP3   OH250079   1.393   2.468   5.013  0.3374  0.5056  0.1844
 9555TIP3    H150080   1.386   2.374   5.030  0.9952  0.5105  0.5057
 9555TIP3    H250081   1.479   2.492   5.047  0.2335  1.1971 -0.0335
 9556TIP3   OH250082   1.053   1.816  10.953  0.0246 -0.1156  0.0464
 9556TIP3    H150083   1.007   1.822  10.869 -1.3365  0.0738  0.7891
 9556TIP3    H250084   1.126   1.755  10.936 -0.9994 -1.1014 -0.9377
 9557TIP3   OH250085   5.284   0.637  13.772 -0.4092  0.4071  0.2826
 9557TIP3    H150086   5.298   0.649  13.678 -1.5805 -1.8417 -0.2259
 9557TIP3    H250087   5.253   0.722  13.803 -0.9603  0.8953 -1.5471
 9558TIP3   OH250088   2.662   2.465  12.320  0.2861 -0.2290  0.2800
 9558TIP3    H150089   2.607   2.541  12.301  0.2051 -0.4727 -0.4767
 9558TIP3    H250090   2.656   2.411  12.241 -0.7089 -1.6580  1.2976
 9559TIP3   OH250091   4.514   5.166   6.322  0.5583 -0.4473 -0.3494
 9559TIP3    H150092   4.566   5.216   6.259 -0.0354 -3.0139 -3.0222
 9559TIP3    H250093   4.437   5.219   6.338  2.1547  1.6364  0.6247
 9560TIP3   OH250094   3.168   4.213   4.766 -0.1240  0.0493  0.8049
 9560TIP3    H150095   3.235   4.149   4.789  0.5873  0.6605  0.4700
 9560TIP3    H250096   3.113   4.219   4.844  1.0010  0.5214  1.5716
 9561TIP3   OH250097   1.432   1.117  16.848  0.0983 -0.1237  0.7931
 9561TIP3    H150098   1.518   1.153  16.868  0.5578 -0.6917 -0.1405
 9561TIP3    H250099   1.419   1.048  16.913  0.1563  0.2433  1.1965
 9562TIP3   OH250100   6.533   5.294  15.886  0.3096  0.0578  0.2017
 9562TIP3    H150101   6.555   5.201  15.881  0.1311 -0.0296  0.9706
 9562TIP3    H250102   6.580   5.326  15.963 -0.7200  0.2855  0.7454
 9563TIP3   OH250103   5.510   1.705   4.190 -0.6451  0.7289  0.3749
 9563TIP3    H150104   5.458   1.642   4.141  0.2558  0.1032  0.1998
 9563TIP3    H250105   5.547   1.762   4.123  1.4649 -0.7874  0.1780
 9564TIP3   OH250106   5.339   4.186   2.920 -0.7611  0.5972 -0.1295
 9564TIP3    H150107   5.416   4.162   2.973 -0.7838  1.0600  0.1249
 9564TIP3    H250108   5.280   4.111   2.927 -0.9584  0.8355  0.8838
 9565TIP3   OH250109   5.568   2.361   0.277  0.2998  0.3745  0.4848
 9565TIP3    H150110   5.573   2.416   0.355 -0.6293  1.3665 -0.1369
 9565TIP3    H250111   5.654   2.319   0.271  0.5039  0.5883  1.8136
 9566TIP3   OH250112   5.275   0.035  13.513  0.4539  0.4320  0.0793
 9566TIP3    H150113   5.242  -0.029  13.450  1.5020  0.7145 -0.7657
 9566TIP3    H250114   5.257  -0.004  13.598 -2.3974  0.7443 -0.3271
 9567TIP3   OH250115   2.036   4.370  12.591 -0.6316 -0.2032  0.9834
 9567TIP3    H150116   2.002   4.306  12.652 -2.4346 -0.3045 -0.0795
 9567TIP3    H250117   2.127   4.384  12.618 -1.1612 -0.8090  3.1730
 9568TIP3   OH250118   5.653   2.500  15.325 -0.4282  0.3481 -0.7711
 9568TIP3    H150119   5.621   2.540  15.406 -1.4198 -0.1410 -0.9051
 9568TIP3    H250120   5.687   2.415  15.352  1.3520  1.1111 -0.5395
 9569TIP3   OH250121   4.758   0.652  15.427 -1.2114  0.4986 -0.0554
 9569TIP3    H150122   4.770   0.708  15.350 -1.3166 -0.6644 -0.9358
 9569TIP3    H250123   4.836   0.597  15.430 -1.0807  0.7269  0.8263
 9570TIP3   OH250124   5.240   5.153  13.653  0.0934 -0.3358  0.3013
 9570TIP3    H150125   5.234   5.248  13.651  0.0125 -0.3524 -3.8710
 9570TIP3    H250126   5.152   5.123  13.674 -0.9836  0.4934 -2.7967
 9571TIP3   OH250127   1.202   1.084  15.096  0.0013  0.4918  0.0218
 9571TIP3    H150128   1.265   1.028  15.142 -0.3685 -0.5395 -0.7030
 9571TIP3    H250129   1.246   1.107  15.014 -0.5700 -0.2810 -0.5136
 9572TIP3   OH250130   1.567   6.653   1.536 -0.1178 -1.0103  0.4763
 9572TIP3    H150131   1.605   6.623   1.453 -0.2253 -1.3473  0.5483
 9572TIP3    H250132   1.497   6.590   1.554 -1.0914 -0.0813  0.0456
 9573TIP3   OH250133   0.849   0.943   2.835  0.2495 -0.1147 -0.0221
 9573TIP3    H150134   0.823   0.902   2.918  0.1945  0.1757  0.1042
 9573TIP3    H250135   0.937   0.910   2.819  0.9220  1.1224  0.9982
 9574TIP3   OH250136   3.900   1.493   5.297 -0.1200  0.0688 -0.1190
 9574TIP3    H150137   3.817   1.506   5.343  0.4054  0.2546  0.7849
 9574TIP3    H250138   3.934   1.411   5.333  0.8184  0.7758  0.6259
 9575TIP3   OH250139   3.261   5.505   1.551  0.0549  0.4071 -0.1450
 9575TIP3    H150140   3.318   5.499   1.473 -0.8250  0.6285 -0.8127
 9575TIP3    H250141   3.227   5.595   1.548 -1.0828 -0.0254 -0.2824
 9576TIP3   OH250142   0.453   4.905  14.976  0.4139  0.2916  0.1533
 9576TIP3    H150143   0.516   4.887  14.906  1.2092 -1.1178  1.2073
 9576TIP3    H250144   0.504   4.954  15.041 -0.0241  0.5813  0.2769
 9577TIP3   OH250145   2.759   1.786  13.829  1.0185  0.0529  0.1805
 9577TIP3    H150146   2.800   1.705  13.798 -0.3560 -0.7515  0.4424
 9577TIP3    H250147   2.665   1.772  13.816  0.8112  1.9071 -0.5007
 9578TIP3   OH250148   5.495   1.669   5.623  0.2591 -0.7834 -0.3565
 9578TIP3    H150149   5.462   1.759   5.620  0.7528 -0.4927  2.0717
 9578TIP3    H250150   5.508   1.651   5.716 -0.3704 -3.5908 -0.7738
 9579TIP3   OH250151   0.830   5.950   2.190 -0.2150 -0.1590  0.1984
 9579TIP3    H150152   0.804   6.036   2.159 -2.3554 -1.6396 -2.3473
 9579TIP3    H250153   0.759   5.922   2.248 -0.1263 -0.6842  0.0645
 9580TIP3   OH250154   5.175   3.832   6.667 -0.5288 -0.2978  0.0626
 9580TIP3    H150155   5.205   3.837   6.757  1.9471 -1.1306 -0.6809
 9580TIP3    H250156   5.246   3.871   6.615 -2.2286  0.8570 -1.4794
 9581TIP3   OH250157   4.745   5.202   1.704 -0.0693 -0.0597 -0.1496
 9581TIP3    H150158   4.654   5.229   1.692 -0.2240  0.1054  1.2646
 9581TIP3    H250159   4.743   5.148   1.783  1.0458 -0.1003 -0.1511
 9582TIP3   OH250160   4.873   0.821   3.040  0.0385 -0.0623  0.0549
 9582TIP3    H150161   4.813   0.792   3.109 -0.1286  0.3196  0.0692
 9582TIP3    H250162   4.926   0.889   3.082  0.6125 -0.5247  0.1010
 9583TIP3   OH250163   0.178   1.983   5.517  0.2849  0.2098  0.5533
 9583TIP3    H150164   0.112   2.049   5.540  1.5311  1.1992  1.3345
 9583TIP3    H250165   0.208   2.008   5.430 -0.8192 -0.6132 -0.0732
 9584TIP3   OH250166   5.518   1.384   2.565 -0.2348  0.0218  0.1881
 9584TIP3    H150167   5.574   1.458   2.592 -0.4798  1.3151 -2.6465
 9584TIP3    H250168   5.579   1.312   2.551  0.4793  0.7286 -0.4668
 9585TIP3   OH250169   6.689   6.307   6.023  0.1034 -0.0471  0.0787
 9585TIP3    H150170   6.610   6.278   5.979 -0.2448 -0.6212  1.0631
 9585TIP3    H250171   6.673   6.400   6.043 -0.4400 -0.2409  0.5417
 9586TIP3   OH250172   1.574   2.783  11.973  0.1737 -0.2517 -0.5135
 9586TIP3    H150173   1.480   2.797  11.967 -0.2637 -2.1907  1.1974
 9586TIP3    H250174   1.605   2.847  12.036  0.3185  1.5454 -2.3530
 9587TIP3   OH250175   5.844   6.309  13.011  0.3031  0.1605 -0.2181
 9587TIP3    H150176   5.877   6.396  13.036 -2.9094  1.2646  0.3350
 9587TIP3    H250177   5.849   6.308  12.915  0.8945  0.7162 -0.2001
 9588TIP3   OH250178   4.423   3.934  14.282  0.1304  0.3376 -0.0275
 9588TIP3    H150179   4.439   3.898  14.195  1.7072 -0.4189  0.5575
 9588TIP3    H250180   4.506   3.974  14.308 -0.4643  0.9969  0.9302
 9589TIP3   OH250181   4.963   2.105  15.828 -0.0226 -0.1380 -0.3670
 9589TIP3    H150182   4.905   2.059  15.889  0.3913  0.5676  0.5680
 9589TIP3    H250183   4.978   2.042  15.758 -0.0134 -1.1926  0.5615
 9590TIP3   OH250184   4.093   2.835   5.094  0.4438  0.1880 -0.2617
 9590TIP3    H150185   4.018   2.886   5.064  0.3363  0.6752  0.8074
 9590TIP3    H250186   4.089   2.841   5.189  1.3132 -0.5548 -0.1700
 9591TIP3   OH250187   0.898   1.065  12.121 -0.1739  0.0315  0.0911
 9591TIP3    H150188   0.831   1.119  12.079 -0.4630 -0.8617 -0.6325
 9591TIP3    H250189   0.972   1.068  12.060  0.5994  1.3532  1.0894
 9592TIP3   OH250190   6.009   1.820  11.482  0.2723 -0.4948  0.1141
 9592TIP3    H150191   5.919   1.807  11.513  0.8494 -2.1305  1.1550
 9592TIP3    H250192   6.008   1.908  11.444 -2.2843 -1.2153 -1.6787
 9593TIP3   OH250193   2.808   3.071  15.014  0.1703 -0.4035  0.1106
 9593TIP3    H150194   2.787   3.095  14.924 -1.3186 -0.1610  0.4971
 9593TIP3    H250195   2.837   3.152  15.055 -1.3938  0.0147  0.4510
 9594TIP3   OH250196   0.820   5.616  14.195  0.2039 -0.3604  0.7533
 9594TIP3    H150197   0.838   5.540  14.252  1.1863 -0.8414 -0.1807
 9594TIP3    H250198   0.781   5.578  14.117  1.3216  0.0147 -0.0051
 9595TIP3   OH250199   5.942   5.146  14.568  0.1459  0.6224  0.4607
 9595TIP3    H150200   5.905   5.178  14.650 -1.4792  0.5033 -0.2163
 9595TIP3    H250201   5.960   5.225  14.517  1.6540  0.7258  1.1157
 9596TIP3   OH250202   1.708   5.959   0.311  0.2621  0.1068  0.4999
 9596TIP3    H150203   1.628   6.000   0.344 -0.0491  0.1410 -0.2914
 9596TIP3    H250204   1.706   5.870   0.347 -1.0458 -0.4815 -0.9880
 9597TIP3   OH250205   3.468   4.212   6.185 -0.2224  0.5452 -0.0434
 9597TIP3    H150206   3.544   4.155   6.173  0.3860  1.2392  0.5411
 9597TIP3    H250207   3.428   4.181   6.267  0.8995  1.8583  1.0116
 9598TIP3   OH250208   4.872   0.351   4.695 -0.3837 -0.5190 -0.0394
 9598TIP3    H150209   4.783   0.324   4.673 -1.1925 -0.7795  3.3318
 9598TIP3    H250210   4.910   0.276   4.741  1.1088  0.0903 -0.2422
 9599TIP3   OH250211   1.273   2.529  15.527 -0.0790  0.4339 -0.1085
 9599TIP3    H150212   1.182   2.552  15.548 -0.0736  0.1064  0.2751
 9599TIP3    H250213   1.266   2.442  15.488  0.0982  0.2947  0.1708
 9600TIP3   OH250214   5.093   1.969   1.892  0.2240  0.1216  0.4093
 9600TIP3    H150215   5.185   1.960   1.918  0.3040 -2.4219 -0.5161
 9600TIP3    H250216   5.079   2.063   1.882  2.8114  0.5287  0.3105
 9601TIP3   OH250217   4.976   2.574   0.556 -0.1462  0.2546 -0.6358
 9601TIP3    H150218   5.048   2.568   0.493 -1.2042  0.0556 -1.8474
 9601TIP3    H250219   4.898   2.589   0.502 -0.8077  1.9906  0.7478
 9602TIP3   OH250220   4.810   1.480   5.069 -0.0969  0.1932 -0.4601
 9602TIP3    H150221   4.734   1.521   5.026  0.0499 -0.8476 -1.7677
 9602TIP3    H250222   4.772   1.411   5.123 -0.1198 -0.1476 -0.9012
 9603TIP3   OH250223   5.020   3.477  10.772 -0.5819  0.7318 -0.2500
 9603TIP3    H150224   5.096   3.532  10.793  0.0148  0.1746 -0.9369
 9603TIP3    H250225   4.957   3.496  10.841  0.8944 -0.1804  1.3790
 9604TIP3   OH250226   6.322   4.036   4.550 -0.0168 -0.2434  0.4437
 9604TIP3    H150227   6.401   4.080   4.582  1.8689 -1.8842 -1.7530
 9604TIP3    H250228   6.274   4.103   4.502  1.1054  0.2577  0.0207
 9605TIP3   OH250229   4.996   5.460  10.966  0.0516  0.3215  0.2840
 9605TIP3    H150230   4.931   5.397  10.998  0.2123 -0.3240 -0.6269
 9605TIP3    H250231   5.064   5.406  10.926  2.1429  0.8757  2.9473
 9606TIP3   OH250232   1.147   4.617   2.271  0.5609 -0.1190  0.1363
 9606TIP3    H150233   1.229   4.580   2.241 -0.3750 -0.1072 -2.5210
 9606TIP3    H250234   1.079   4.567   2.225 -0.8454  1.6422  0.2408
 9607TIP3   OH250235   6.103   3.350  13.856 -0.2219 -0.6564 -0.3260
 9607TIP3    H150236   6.049   3.428  13.841  0.3781 -0.3851 -1.0847
 9607TIP3    H250237   6.072   3.287  13.791  0.4945 -0.4342 -0.8926
 9608TIP3   OH250238   6.271   5.043  11.609  0.3932  0.3150  0.6502
 9608TIP3    H150239   6.231   5.130  11.615  0.8295  0.7522 -1.9182
 9608TIP3    H250240   6.342   5.044  11.674  1.2416  2.3775 -0.2475
 9609TIP3   OH250241   6.353   5.745  13.924 -0.3365  0.0763  0.1518
 9609TIP3    H150242   6.385   5.663  13.887 -1.9003 -0.4597 -0.0407
 9609TIP3    H250243   6.261   5.729  13.941 -0.0023  0.8226  2.8772
 9610TIP3   OH250244   5.624   4.054   0.038 -0.7437 -0.2703 -0.9005
 9610TIP3    H150245   5.547   4.110   0.052 -1.0881 -1.1652  0.8036
 9610TIP3    H250246   5.676   4.064   0.117 -0.3439 -1.6603 -0.9819
 9611TIP3   OH250247   5.074   0.509   5.410  0.3219 -0.3493  0.1712
 9611TIP3    H150248   5.121   0.430   5.385  2.3913  0.7125  0.5728
 9611TIP3    H250249   5.042   0.546   5.328 -1.7139 -2.2166  0.0873
 9612TIP3   OH250250   4.977   6.000  10.797 -0.2139 -0.3841 -0.4856
 9612TIP3    H150251   5.000   6.076  10.744 -2.6154 -0.0325 -1.0875
 9612TIP3    H250252   4.914   6.034  10.861 -1.5938 -1.9049 -0.9899
 9613TIP3   OH250253   2.104   5.865   0.517 -0.3260  0.6111  0.1296
 9613TIP3    H150254   2.010   5.870   0.499 -0.5335  1.0778  1.3210
 9613TIP3    H250255   2.113   5.893   0.608  0.9726  0.5891  0.0198
 9614TIP3   OH250256   4.330   0.270   3.515 -0.0319 -0.2114  0.1299
 9614TIP3    H150257   4.379   0.346   3.482 -1.1090  0.7261  0.6657
 9614TIP3    H250258   4.337   0.276   3.610  0.2305 -1.0222  0.1655
 9615TIP3   OH250259   2.232   2.445  12.019  0.3372 -0.5700  0.3768
 9615TIP3    H150260   2.165   2.414  11.957  2.1188 -2.1430 -0.8593
 9615TIP3    H250261   2.277   2.515  11.972 -1.5462  1.7389  1.9029
 9616TIP3   OH250262   4.269   1.095  12.477  0.1744  0.6653  0.2118
 9616TIP3    H150263   4.341   1.087  12.413 -0.1890 -0.5005 -0.0651
 9616TIP3    H250264   4.213   1.164  12.441 -0.0713 -0.0404 -0.7837
 9617TIP3   OH250265   1.417   5.994   4.536 -0.3924  0.6673 -0.0341
 9617TIP3    H150266   1.381   6.041   4.460 -1.8818 -0.2332  0.1092
 9617TIP3    H250267   1.410   5.902   4.513 -1.1239  0.3739  1.3304
 9618TIP3   OH250268   0.148   0.476   2.714  0.1483 -0.0842  0.4361
 9618TIP3    H150269   0.208   0.403   2.728 -0.1055 -0.2826  0.5069
 9618TIP3    H250270   0.076   0.439   2.663  0.3316  0.2747 -0.0982
 9619TIP3   OH250271   2.821   2.612  13.107 -0.5661 -0.2036  0.6286
 9619TIP3    H150272   2.779   2.655  13.032 -0.5055 -0.0897  0.6580
 9619TIP3    H250273   2.832   2.521  13.079  0.4308  0.0720  0.0834
 9620TIP3   OH250274   5.591   0.832  15.890 -0.6596  0.3041 -0.7314
 9620TIP3    H150275   5.520   0.886  15.855 -1.4064 -0.8331 -1.0137
 9620TIP3    H250276   5.620   0.878  15.969 -0.3222  1.8414 -1.7224
 9621TIP3   OH250277   3.357   4.147   1.933  0.7999 -0.1507  0.1007
 9621TIP3    H150278   3.314   4.140   2.018 -1.3656  1.9321 -0.7817
 9621TIP3    H250279   3.316   4.080   1.878 -0.5210  1.0534 -0.3983
 9622TIP3   OH250280   2.925   6.384   2.251  0.5226 -0.1606  0.1628
 9622TIP3    H150281   2.903   6.434   2.172 -0.4832  0.0563  0.5648
 9622TIP3    H250282   2.944   6.296   2.219 -0.6895 -0.2867 -0.2531
 9623TIP3   OH250283   1.768   0.227   3.212 -0.1069 -0.4589 -0.9243
 9623TIP3    H150284   1.721   0.291   3.266  0.5837 -1.1243  0.4946
 9623TIP3    H250285   1.859   0.234   3.242 -0.1901 -2.8523  0.0102
 9624TIP3   OH250286   2.401   5.999   4.055  0.1748 -0.1910  0.1917
 9624TIP3    H150287   2.489   6.014   4.090 -0.1963 -0.7904  1.4278
 9624TIP3    H250288   2.411   5.928   3.992  1.1051  1.8614 -2.0812
 9625TIP3   OH250289   1.787   2.224  12.125 -0.2190 -0.1374  0.1028
 9625TIP3    H150290   1.796   2.264  12.211 -0.6016  0.3873 -0.0919
 9625TIP3    H250291   1.775   2.131  12.142 -1.9493  0.1743  0.6978
 9626TIP3   OH250292   1.415   0.501  10.781  0.2121 -0.3313  0.4975
 9626TIP3    H150293   1.387   0.555  10.708  0.3730  1.3224  1.6403
 9626TIP3    H250294   1.497   0.540  10.811 -0.5337 -0.1242  2.4071
 9627TIP3   OH250295   0.473   3.691   0.362 -0.2894  0.4529 -0.5226
 9627TIP3    H150296   0.518   3.744   0.297  0.5186  0.4042 -0.0099
 9627TIP3    H250297   0.540   3.668   0.426 -0.4765 -1.6575 -1.0260
 9628TIP3   OH250298   5.286   0.981   0.383 -0.0429 -0.3130 -0.6049
 9628TIP3    H150299   5.379   0.989   0.403  0.2599  0.9698 -2.3826
 9628TIP3    H250300   5.263   0.893   0.411  2.0375 -1.1164 -1.3096
 9629TIP3   OH250301   4.070   0.050  17.205  0.3590 -0.2858  0.0034
 9629TIP3    H150302   4.053   0.139  17.175 -0.7052 -0.8276 -1.0838
 9629TIP3    H250303   4.125   0.012  17.136 -0.6678 -1.0041 -0.4395
 9630TIP3   OH250304   0.117   1.234  15.689  0.5836  0.3605 -0.0096
 9630TIP3    H150305   0.076   1.151  15.716  0.6268  0.8295  1.5427
 9630TIP3    H250306   0.073   1.256  15.607 -0.1254 -0.6974  0.0682
 9631TIP3   OH250307   2.608   3.934  14.004  0.6290  0.0321 -0.2996
 9631TIP3    H150308   2.626   3.882  13.926  0.4944 -2.5164  1.2856
 9631TIP3    H250309   2.525   3.899  14.038 -0.5006  2.6324 -0.2262
 9632TIP3   OH250310   4.660   4.006  13.576 -0.0990  0.0739 -0.5619
 9632TIP3    H150311   4.594   3.936  13.584  1.4794 -1.4332 -0.4939
 9632TIP3    H250312   4.738   3.962  13.544  1.4665  1.5247  1.1853
 9633TIP3   OH250313   3.735   3.755  12.484 -0.1035  0.4844 -0.5765
 9633TIP3    H150314   3.818   3.782  12.523  0.0201 -0.1518 -0.3895
 9633TIP3    H250315   3.672   3.756  12.556  0.1065 -0.6077 -0.3572
 9634TIP3   OH250316   3.609   3.660   4.242 -0.0735 -0.6010  0.7063
 9634TIP3    H150317   3.692   3.687   4.281  1.2491 -0.9237 -1.7660
 9634TIP3    H250318   3.567   3.608   4.310  1.7678 -0.4600  2.0037
 9635TIP3   OH250319   0.256   0.976  11.235 -0.0751  0.5231 -0.1690
 9635TIP3    H150320   0.259   0.886  11.203  1.8296  0.6301 -0.3303
 9635TIP3    H250321   0.295   0.971  11.323 -0.6560  1.0644  0.1188
 9636TIP3   OH250322   6.310   6.690  17.030  0.1243 -0.3284 -0.5880
 9636TIP3    H150323   6.341   6.600  17.045 -0.7727 -0.3454  1.3937
 9636TIP3    H250324   6.221   6.690  17.065 -0.9627  0.5846 -3.2363
 9637TIP3   OH250325   1.881   1.748  15.817  0.3273  0.0008  0.3525
 9637TIP3    H150326   1.823   1.735  15.892  0.2006 -1.7047 -0.0414
 9637TIP3    H250327   1.824   1.778  15.747 -0.0424 -1.3393  0.0683
 9638TIP3   OH250328   5.653   2.888   6.190  0.3445 -0.1637 -0.5916
 9638TIP3    H150329   5.612   2.826   6.128  0.1565  0.2107 -0.8429
 9638TIP3    H250330   5.730   2.841   6.222  1.0902  0.0661 -1.9855
 9639TIP3   OH250331   0.258   1.362   3.322  0.5872 -0.5316 -0.1025
 9639TIP3    H150332   0.300   1.359   3.409 -1.6494 -0.2178  1.0106
 9639TIP3    H250333   0.214   1.278   3.315 -0.7206  0.1613 -0.1815
 9640TIP3   OH250334   1.974   3.564  15.879  0.1511 -0.3185 -0.3426
 9640TIP3    H150335   2.057   3.570  15.926  1.1156 -0.2394 -2.0026
 9640TIP3    H250336   1.968   3.647  15.831 -2.3106  0.9305  2.0077
 9641TIP3   OH250337   4.678   0.553   5.171 -0.2113  0.3249 -0.4354
 9641TIP3    H150338   4.731   0.497   5.113  0.0013 -0.0570  0.1191
 9641TIP3    H250339   4.588   0.526   5.154 -0.0479 -0.9409  0.5828
 9642TIP3   OH250340   5.435   0.018  17.218  0.2845 -0.0266 -0.3849
 9642TIP3    H150341   5.346   0.043  17.244  0.0688 -0.8222 -0.3443
 9642TIP3    H250342   5.491   0.054  17.287  0.0088  0.6188 -0.4960
 9643TIP3   OH250343   5.520   5.025  13.752  0.1154 -0.2148 -0.0414
 9643TIP3    H150344   5.528   5.113  13.715 -0.0955 -0.4818 -0.7259
 9643TIP3    H250345   5.563   5.031  13.837  0.6628  0.3909 -0.3581
 9644TIP3   OH250346   0.456   5.096   2.630 -0.6573  0.0710 -0.2381
 9644TIP3    H150347   0.464   5.121   2.538 -3.3900  0.1971 -0.4891
 9644TIP3    H250348   0.388   5.154   2.665 -0.0164 -0.3186  1.7509
 9645TIP3   OH250349   6.351   2.984   0.606  0.3386 -0.0698 -0.1138
 9645TIP3    H150350   6.329   2.930   0.530 -2.4093  1.0744 -0.2019
 9645TIP3    H250351   6.324   3.072   0.581  1.8556  0.7924  1.2175
 9646TIP3   OH250352   2.943   6.151  12.533 -0.0497 -0.0560 -0.3717
 9646TIP3    H150353   2.950   6.063  12.496  1.2514  0.2733 -0.9343
 9646TIP3    H250354   2.964   6.139  12.626  1.0965 -0.1970 -0.6432
 9647TIP3   OH250355   0.228   0.311  15.381  0.4764 -0.2828  0.2364
 9647TIP3    H150356   0.283   0.384  15.352 -0.3120 -0.7507 -2.5524
 9647TIP3    H250357   0.154   0.353  15.426  1.7656  0.4516  1.7136
 9648TIP3   OH250358   1.486   0.336   5.500 -0.1314  0.1185  0.4169
 9648TIP3    H150359   1.477   0.340   5.595  0.3649 -0.0250  0.4687
 9648TIP3    H250360   1.580   0.337   5.484 -0.2175  0.4445 -0.0897
 9649TIP3   OH250361   3.259   2.593   4.535  0.1492  0.0413 -0.1439
 9649TIP3    H150362   3.268   2.572   4.628  0.3093 -0.1451 -0.2005
 9649TIP3    H250363   3.167   2.616   4.524 -0.4288 -2.2331 -0.3904
 9650TIP3   OH250364   5.819   4.540  13.439 -0.9865  0.1617  0.3255
 9650TIP3    H150365   5.859   4.622  13.470 -2.3398  0.6180  0.9266
 9650TIP3    H250366   5.873   4.471  13.477  0.3351  0.7707 -0.4092
 9651TIP3   OH250367   3.653   6.635  15.452 -0.1065  0.2722 -0.4674
 9651TIP3    H150368   3.653   6.578  15.530  2.6497 -0.3877 -0.8884
 9651TIP3    H250369   3.657   6.724  15.488 -1.3034  0.0926  0.1547
 9652TIP3   OH250370   3.283   4.551  16.270 -0.2868 -0.0132  1.1051
 9652TIP3    H150371   3.203   4.599  16.247 -0.1648  0.2014  1.1200
 9652TIP3    H250372   3.313   4.592  16.351 -1.2337 -1.4063  2.1898
 9653TIP3   OH250373   1.706   3.850  15.367 -0.3488 -0.6480  0.1490
 9653TIP3    H150374   1.800   3.864  15.379 -0.3292 -0.7578  0.1236
 9653TIP3    H250375   1.669   3.938  15.365 -0.0814 -0.5430 -1.1202
 9654TIP3   OH250376   0.143   5.499   6.649 -0.4985  0.0090 -0.6782
 9654TIP3    H150377   0.227   5.484   6.605  0.2630  0.8913  0.4494
 9654TIP3    H250378   0.133   5.425   6.708  0.3890  0.8461  0.5387
 9655TIP3   OH250379   1.881   4.158   1.591 -0.3061 -0.0471  0.0007
 9655TIP3    H150380   1.794   4.192   1.609 -0.2477 -1.2817  2.8000
 9655TIP3    H250381   1.939   4.234   1.594 -0.9943  0.4627  0.2416
 9656TIP3   OH250382   0.192   4.815  11.388  0.7955 -0.1786 -0.2541
 9656TIP3    H150383   0.143   4.738  11.414  4.6501 -1.8043  2.7320
 9656TIP3    H250384   0.230   4.792  11.303  0.0053 -0.5970 -0.4976
 9657TIP3   OH250385   1.425   5.112   0.780 -0.2424 -0.2736 -0.4714
 9657TIP3    H150386   1.426   5.061   0.699  1.4304 -0.5187 -0.3108
 9657TIP3    H250387   1.507   5.162   0.778  0.1303 -0.7825  1.3847
 9658TIP3   OH250388   3.638   0.132  13.468  0.2880  1.1428 -0.5715
 9658TIP3    H150389   3.704   0.067  13.442 -0.6478 -0.0789  0.0598
 9658TIP3    H250390   3.556   0.100  13.432 -0.1866  1.9917 -0.2676
 9659TIP3   OH250391   6.304   5.941   1.688 -0.2816  0.1149 -0.3341
 9659TIP3    H150392   6.244   6.015   1.690  0.0743  0.4096 -0.4444
 9659TIP3    H250393   6.376   5.970   1.633  0.1956 -0.0575  0.1883
 9660TIP3   OH250394   0.054   5.805   3.142  0.2888  0.7420  0.1195
 9660TIP3    H150395  -0.036   5.774   3.154  0.4402  0.4621  0.5410
 9660TIP3    H250396   0.074   5.852   3.223  0.7135  0.3305  0.2575
 9661TIP3   OH250397   1.020   3.767  14.479  0.0920  0.1553  0.7575
 9661TIP3    H150398   1.026   3.862  14.477  3.4369 -0.0127 -0.4406
 9661TIP3    H250399   1.077   3.741  14.551  2.0752 -1.0351 -1.1559
 9662TIP3   OH250400   6.391   0.792   3.020 -0.1290 -0.0258  0.1891
 9662TIP3    H150401   6.320   0.855   3.017 -2.8813 -2.9709  0.9568
 9662TIP3    H250402   6.383   0.749   3.105  1.4414 -1.6732 -0.4450
 9663TIP3   OH250403   5.250   0.295   2.976  0.2412  0.6945 -0.5135
 9663TIP3    H150404   5.226   0.381   2.940  1.5457  0.9065 -0.9040
 9663TIP3    H250405   5.252   0.237   2.900  0.3272  0.5349 -0.3896
 9664TIP3   OH250406   1.965   4.142  16.079  0.6570  0.3102  0.4498
 9664TIP3    H150407   2.053   4.106  16.080  0.5806  0.1228  0.4341
 9664TIP3    H250408   1.977   4.237  16.077  0.8524  0.2687 -0.2489
 9665TIP3   OH250409   3.356   2.363   4.359  0.0116 -0.2123  0.1276
 9665TIP3    H150410   3.288   2.297   4.344  1.0090 -1.1561 -0.3005
 9665TIP3    H250411   3.317   2.423   4.422 -0.0026 -2.6389  2.5371
 9666TIP3   OH250412   5.306   6.166   2.994  0.0297  0.5940 -0.1323
 9666TIP3    H150413   5.337   6.240   2.941  0.2492  0.4521 -0.2031
 9666TIP3    H250414   5.212   6.182   3.005 -0.2066  0.1547 -1.3410
 9667TIP3   OH250415   2.317   2.084   2.702  0.8728 -0.5624 -0.0375
 9667TIP3    H150416   2.318   2.178   2.685 -0.1466 -0.5021  0.1627
 9667TIP3    H250417   2.224   2.061   2.697  1.2032 -1.7401 -1.0901
 9668TIP3   OH250418   2.651   2.219  15.447  0.2242 -0.4493  0.2839
 9668TIP3    H150419   2.658   2.272  15.367  0.1962 -0.5283  0.2288
 9668TIP3    H250420   2.563   2.239  15.480 -0.2432 -1.3687 -0.3805
 9669TIP3   OH250421   3.934   5.501  13.985  0.3434 -0.1693 -0.1485
 9669TIP3    H150422   3.931   5.406  13.969 -2.0471 -0.0192 -0.7137
 9669TIP3    H250423   3.990   5.535  13.916  0.3789 -1.0564 -0.5709
 9670TIP3   OH250424   6.080   2.370   3.228 -0.0255  0.7368 -0.2917
 9670TIP3    H150425   6.152   2.350   3.169 -0.5894 -1.0002 -0.4313
 9670TIP3    H250426   6.119   2.419   3.300  1.0717  0.8458 -0.9667
 9671TIP3   OH250427   3.105   3.202   2.553 -0.5623 -0.2595 -0.5389
 9671TIP3    H150428   3.016   3.224   2.525 -0.0717  3.5179  0.5176
 9671TIP3    H250429   3.156   3.200   2.471 -0.9224  1.3510 -0.8223
 9672TIP3   OH250430   0.072   6.061   4.133 -0.0091 -0.2166 -0.0277
 9672TIP3    H150431   0.127   6.138   4.119 -1.5871  1.0387  0.5453
 9672TIP3    H250432   0.116   6.013   4.203  1.0215  0.1316 -0.4319
 9673TIP3   OH250433   0.052   4.118  17.069 -0.0634 -0.6193  0.1238
 9673TIP3    H150434   0.030   4.154  17.156 -0.1476  0.0854 -0.1829
 9673TIP3    H250435   0.004   4.175  17.008  1.1616 -0.2068 -0.4599
 9674TIP3   OH250436   4.540   5.613  11.535  0.4083  0.0097  0.8198
 9674TIP3    H150437   4.459   5.638  11.579 -0.9743 -1.5337 -0.7544
 9674TIP3    H250438   4.536   5.518  11.529  2.1338 -0.0491  0.3535
 9675TIP3   OH250439   6.660   2.212  14.444 -0.3701  0.0513  0.2883
 9675TIP3    H150440   6.754   2.217  14.462 -0.3891 -0.4309  0.5412
 9675TIP3    H250441   6.640   2.293  14.397  0.0918  0.3542  0.6033
 9676TIP3   OH250442   2.250   5.920  11.042  0.2185  0.1944 -0.0719
 9676TIP3    H150443   2.294   5.904  10.959 -0.7653  1.1866 -0.7918
 9676TIP3    H250444   2.164   5.880  11.032  0.1639  0.1497  0.5433
 9677TIP3   OH250445   4.403   0.081   3.906 -0.3721 -0.2020  0.0530
 9677TIP3    H150446   4.486   0.052   3.868  0.4541  2.2510 -0.0848
 9677TIP3    H250447   4.418   0.078   4.000 -0.9687 -2.1034  0.1064
 9678TIP3   OH250448   5.546   4.154   1.641 -0.3115 -0.0688  0.0539
 9678TIP3    H150449   5.539   4.180   1.550 -0.9900 -0.4048  0.0032
 9678TIP3    H250450   5.573   4.062   1.638 -1.1488 -0.3238  0.1736
 9679TIP3   OH250451   0.475   1.559   6.413  0.2171 -0.0293 -0.2170
 9679TIP3    H150452   0.464   1.651   6.437  1.3264  0.3635 -1.1418
 9679TIP3    H250453   0.417   1.547   6.338 -1.8405 -0.7674  1.4464
 9680TIP3   OH250454   3.493   5.194   3.127  0.1069 -0.1343 -0.1878
 9680TIP3    H150455   3.557   5.136   3.086  1.5886  0.8781  0.6848
 9680TIP3    H250456   3.435   5.220   3.055  0.7469 -0.9301 -1.0038
 9681TIP3   OH250457   0.352   4.812   5.086  0.0699  0.1047 -0.2749
 9681TIP3    H150458   0.302   4.780   5.161 -1.7893  0.3795 -1.3505
 9681TIP3    H250459   0.399   4.889   5.120  1.1135 -1.1508  1.1867
 9682TIP3   OH250460   4.164   3.701   5.942  0.2919 -0.2461 -0.4184
 9682TIP3    H150461   4.179   3.771   6.005  1.1234 -0.4450 -0.3831
 9682TIP3    H250462   4.193   3.739   5.858 -1.2982  0.2016 -0.7820
 9683TIP3   OH250463   2.327   1.249   4.844  0.4101 -0.2807  0.4851
 9683TIP3    H150464   2.385   1.268   4.771 -0.4320 -1.7173 -0.5685
 9683TIP3    H250465   2.249   1.303   4.829  0.0066 -0.9852  0.0177
 9684TIP3   OH250466   1.424   5.311  11.248 -0.1298  0.1964  0.4138
 9684TIP3    H150467   1.496   5.250  11.232 -0.1909 -0.1071  1.2392
 9684TIP3    H250468   1.466   5.394  11.268 -0.0216  0.1740  0.2753
 9685TIP3   OH250469   0.572   0.220  12.631 -0.3881 -0.1665 -0.0706
 9685TIP3    H150470   0.578   0.188  12.721  1.8019 -2.3934 -0.9441
 9685TIP3    H250471   0.608   0.309  12.635 -0.6341 -0.1059  1.2742
 9686TIP3   OH250472   6.139   5.123  16.683 -0.5074 -0.2285 -0.0769
 9686TIP3    H150473   6.089   5.196  16.648 -0.9057 -0.2412  0.4616
 9686TIP3    H250474   6.174   5.155  16.766  0.2998 -0.2524 -0.3960
 9687TIP3   OH250475   1.396   1.340  17.045  0.2096 -0.5643  0.1775
 9687TIP3    H150476   1.384   1.415  17.104 -1.4128 -0.2509 -0.5305
 9687TIP3    H250477   1.490   1.341  17.025 -0.0790  2.4243 -1.3057
 9688TIP3   OH250478   1.012   3.397   0.018  0.2306 -0.4027  0.3631
 9688TIP3    H150479   0.951   3.414   0.089  0.3508 -0.1419  0.3999
 9688TIP3    H250480   1.039   3.306   0.031 -0.9286 -0.8413 -0.2440
 9689TIP3   OH250481   3.568   4.936   1.279 -0.0701  0.3413  0.0860
 9689TIP3    H150482   3.515   5.000   1.325 -2.9792 -1.5008 -0.5308
 9689TIP3    H250483   3.611   4.886   1.348  0.2855  1.3637  0.6167
 9690TIP3   OH250484   5.373   1.590  11.541  0.5168 -0.4842  0.2375
 9690TIP3    H150485   5.452   1.567  11.491  0.3390  1.5490 -1.0515
 9690TIP3    H250486   5.403   1.601  11.631  1.3853 -1.3632  0.0585
 9691TIP3   OH250487   3.716   6.239  13.169  0.2817  0.2639 -0.6487
 9691TIP3    H150488   3.645   6.197  13.122  0.6379 -0.5719 -0.4467
 9691TIP3    H250489   3.676   6.274  13.249  0.0816 -0.1062 -0.5903
 9692TIP3   OH250490   0.517   5.950   6.256  0.1794  0.0287  0.5524
 9692TIP3    H150491   0.460   5.990   6.321  0.7741 -2.0729  2.4328
 9692TIP3    H250492   0.605   5.955   6.293  0.5863 -0.8423 -0.2484
 9693TIP3   OH250493   4.896   3.623   4.989  0.0334  0.3181 -0.1311
 9693TIP3    H150494   4.892   3.682   5.064  2.6225  0.7595 -0.2882
 9693TIP3    H250495   4.885   3.536   5.026 -0.9562  0.6756  0.4518
 9694TIP3   OH250496   0.530   3.120   6.967  0.0776 -0.7611 -0.3546
 9694TIP3    H150497   0.468   3.111   6.894  0.2305 -0.5889 -0.5083
 9694TIP3    H250498   0.497   3.195   7.017 -0.1213 -0.9841 -0.1540
 9695TIP3   OH250499   4.552   3.166  14.130 -0.4939 -0.1867 -0.2113
 9695TIP3    H150500   4.520   3.248  14.092  1.9508 -0.0248 -2.0929
 9695TIP3    H250501   4.516   3.098  14.074 -1.5624 -0.3292  0.6441
 9696TIP3   OH250502   3.565   3.360   5.353 -0.3649  0.1713  0.0134
 9696TIP3    H150503   3.613   3.420   5.410 -1.0680  1.5541 -0.8223
 9696TIP3    H250504   3.620   3.353   5.274 -0.4486 -0.0076 -0.0282
 9697TIP3   OH250505   2.777   0.899   4.038 -0.0057  0.3254 -0.7170
 9697TIP3    H150506   2.687   0.883   4.067 -0.2397  1.5138 -0.7368
 9697TIP3    H250507   2.798   0.825   3.981 -0.2166 -1.0527  0.9585
 9698TIP3   OH250508   4.221   3.755   5.668 -0.0262  0.6778  0.1974
 9698TIP3    H150509   4.203   3.762   5.574 -0.3754  2.4605  0.3864
 9698TIP3    H250510   4.317   3.757   5.674  0.1433 -2.6951 -0.3356
 9699TIP3   OH250511   2.119   4.206  16.757  0.4882 -0.1091  0.3773
 9699TIP3    H150512   2.079   4.246  16.679 -1.6048  0.3626  1.6674
 9699TIP3    H250513   2.212   4.203  16.736  0.0718  0.8286 -1.8010
 9700TIP3   OH250514   4.017   5.753   4.894  0.1548  0.1014  0.8008
 9700TIP3    H150515   3.934   5.798   4.878  0.6214  0.8878  0.5588
 9700TIP3    H250516   4.078   5.822   4.920  0.7451 -0.4622  0.9396
 9701TIP3   OH250517   3.718   2.939  10.701 -0.0827  0.3455  0.0366
 9701TIP3    H150518   3.648   2.894  10.748  0.5554  0.0110  0.6777
 9701TIP3    H250519   3.677   3.018  10.666 -0.2712  1.1973  2.1524
 9702TIP3   OH250520   5.581   4.118   2.639  0.6222  0.1601  0.2987
 9702TIP3    H150521   5.489   4.093   2.627  0.6048  0.7827 -0.9103
 9702TIP3    H250522   5.630   4.057   2.583  1.0593 -0.9957  1.9072
 9703TIP3   OH250523   0.138   6.264   5.685  0.5450  0.0523 -0.3088
 9703TIP3    H150524   0.068   6.316   5.645 -0.1326  0.4325  1.3038
 9703TIP3    H250525   0.145   6.186   5.630 -1.4293 -0.1705 -0.3021
 9704TIP3   OH250526   6.387   2.199  15.139 -0.2063 -0.0420 -0.1411
 9704TIP3    H150527   6.421   2.111  15.120  0.3367  0.6170 -2.3985
 9704TIP3    H250528   6.353   2.193  15.228 -0.4406 -2.6267 -0.3656
 9705TIP3   OH250529   2.154   3.975   3.328 -0.1104 -0.2875 -0.5135
 9705TIP3    H150530   2.215   3.930   3.269 -1.5335 -2.4256 -0.4020
 9705TIP3    H250531   2.207   4.043   3.370  1.4139  0.0029 -2.7816
 9706TIP3   OH250532   4.570   6.696   2.617  0.6267 -0.5896  0.7159
 9706TIP3    H150533   4.591   6.754   2.544  2.0948  0.4411  1.9299
 9706TIP3    H250534   4.559   6.610   2.576  0.3404  0.1687 -0.8535
 9707TIP3   OH250535   2.938   0.356   4.530  0.0018  0.2441  0.3721
 9707TIP3    H150536   3.031   0.379   4.521  0.0086  0.2673  0.5010
 9707TIP3    H250537   2.939   0.265   4.558 -0.0192  0.1673  0.1212
 9708TIP3   OH250538   0.660   0.813  13.427 -0.0452 -0.7557  0.0058
 9708TIP3    H150539   0.596   0.842  13.362 -0.3445  0.5700  0.8756
 9708TIP3    H250540   0.691   0.893  13.468  0.4986 -1.5519  1.1735
 9709TIP3   OH250541   4.663   4.963   4.049 -0.1771  0.2249  0.4171
 9709TIP3    H150542   4.686   4.890   3.991  1.7045  0.1977  1.1781
 9709TIP3    H250543   4.683   4.931   4.137 -0.7397  1.1367  0.8797
 9710TIP3   OH250544   3.580   2.315  14.294 -0.4230 -0.1727  0.3988
 9710TIP3    H150545   3.557   2.257  14.367 -0.5939 -0.6333 -0.0130
 9710TIP3    H250546   3.664   2.353  14.320 -0.1394 -0.8654  0.5294
 9711TIP3   OH250547   3.282   5.709  12.009  0.3812  0.0357 -0.1411
 9711TIP3    H150548   3.338   5.637  11.979  0.0700 -0.4522  0.4439
 9711TIP3    H250549   3.274   5.766  11.932  0.9743 -0.3343 -0.4839
 9712TIP3   OH250550   0.795   1.397   1.066  0.2025 -0.3597 -0.6551
 9712TIP3    H150551   0.793   1.365   0.976 -0.7075  0.1053 -0.8065
 9712TIP3    H250552   0.718   1.359   1.107  1.2549 -1.5285  0.2744
 9713TIP3   OH250553   2.992   6.620  16.518  0.6630 -0.6067 -0.0887
 9713TIP3    H150554   2.961   6.534  16.490 -0.2485  0.3286 -2.0672
 9713TIP3    H250555   3.035   6.656  16.440  0.5429  0.9540  0.5475
 9714TIP3   OH250556   4.920   2.259   4.922 -0.0082  0.3566  0.7570
 9714TIP3    H150557   4.907   2.276   4.829  1.2906  2.5096  0.9417
 9714TIP3    H250558   4.953   2.169   4.926 -2.8320 -0.8002 -0.6164
 9715TIP3   OH250559   5.049   4.240  16.184  0.1318  0.3119 -0.2877
 9715TIP3    H150560   5.047   4.266  16.276 -1.3696  1.0273 -0.5030
 9715TIP3    H250561   5.057   4.322  16.136  0.4310 -0.0239 -0.8123
 9716TIP3   OH250562   3.663   2.977  11.606  0.0574  0.1498 -0.5516
 9716TIP3    H150563   3.612   2.902  11.637  0.6159  0.7053  1.8785
 9716TIP3    H250564   3.637   3.049  11.665  3.7442  0.3879  0.9063
 9717TIP3   OH250565   3.223   1.726   3.793 -0.1408  0.6790 -0.2136
 9717TIP3    H150566   3.166   1.649   3.794 -0.2352  0.7395 -0.6880
 9717TIP3    H250567   3.243   1.740   3.700  1.5909 -0.0251  0.0318
 9718TIP3   OH250568   3.707   1.049   3.534  0.1647 -0.0792 -0.1855
 9718TIP3    H150569   3.751   1.101   3.468  0.4324 -0.2349 -0.1329
 9718TIP3    H250570   3.669   0.976   3.486 -1.6160  1.0296 -0.4948
 9719TIP3   OH250571   4.029   2.251  16.698 -0.0877  0.5297 -0.2335
 9719TIP3    H150572   3.947   2.287  16.666 -2.0715 -3.3955  0.1296
 9719TIP3    H250573   4.082   2.237  16.619 -1.4411 -0.7602 -0.9441
 9720TIP3   OH250574   5.299   5.258   2.167  0.5386 -0.1606  0.0034
 9720TIP3    H150575   5.282   5.190   2.102  0.1666  0.7408 -0.8710
 9720TIP3    H250576   5.258   5.227   2.247  2.0636 -1.8559  0.1508
 9721TIP3   OH250577   0.683   6.111   3.147 -0.2867  0.4626  0.7001
 9721TIP3    H150578   0.700   6.149   3.234  2.3800  2.7707 -0.7380
 9721TIP3    H250579   0.719   6.023   3.152 -0.3823  0.4778  2.0000
 9722TIP3   OH250580   3.743   1.073  10.975  0.5544 -0.3180 -0.4563
 9722TIP3    H150581   3.823   1.125  10.968  0.1964  0.1250 -1.3964
 9722TIP3    H250582   3.746   1.014  10.900  0.3805 -0.8480 -0.0544
 9723TIP3   OH250583   5.847   1.030  12.835 -0.3276 -0.4270  0.1771
 9723TIP3    H150584   5.812   1.002  12.920 -0.0541 -0.3003  0.3312
 9723TIP3    H250585   5.824   1.123  12.830  0.3342 -0.2445  0.4535
 9724TIP3   OH250586   6.086   4.821  14.250  0.1606 -0.3629  1.0710
 9724TIP3    H150587   6.122   4.741  14.288  1.2376 -1.7170 -2.5611
 9724TIP3    H250588   6.062   4.796  14.160 -1.8913  2.7379  0.6737
 9725TIP3   OH250589   3.695   2.912   1.198 -0.1079  0.4958  0.0325
 9725TIP3    H150590   3.712   2.878   1.286  0.1216  0.7089  0.0690
 9725TIP3    H250591   3.737   2.998   1.196 -0.7749  0.8220 -0.0332
 9726TIP3   OH250592   0.572   4.671   2.698 -0.3051  0.1760  0.1293
 9726TIP3    H150593   0.567   4.591   2.751  0.1406  0.3096  0.3733
 9726TIP3    H250594   0.663   4.699   2.706  0.1512 -0.6201 -1.8941
 9727TIP3   OH250595   0.906   3.537  14.138 -0.5389  0.5144 -0.1230
 9727TIP3    H150596   0.988   3.566  14.178 -0.7242  0.2717  0.4416
 9727TIP3    H250597   0.841   3.601  14.168 -0.8478 -0.1684  0.6894
 9728TIP3   OH250598   5.190   3.698   0.984  0.4405  0.2220  0.2531
 9728TIP3    H150599   5.162   3.640   1.054  3.6202 -1.1466  0.4439
 9728TIP3    H250600   5.272   3.737   1.015  0.2231  2.0841 -1.3664
 9729TIP3   OH250601   2.614   2.397  14.800 -0.2385 -0.0693  0.1018
 9729TIP3    H150602   2.690   2.415  14.856 -0.5619 -0.6653  0.7409
 9729TIP3    H250603   2.552   2.353  14.858 -0.0967 -1.8169 -1.0292
 9730TIP3   OH250604   3.955   1.514  13.136 -0.1972  0.3302 -0.0462
 9730TIP3    H150605   4.002   1.570  13.074  0.9643  0.3473  0.8254
 9730TIP3    H250606   3.936   1.434  13.087  0.6339  0.3736 -0.4586
 9731TIP3   OH250607   0.659   3.995   4.872 -0.1650 -0.0998  0.0738
 9731TIP3    H150608   0.680   3.986   4.779 -0.8864 -0.5490 -0.0504
 9731TIP3    H250609   0.612   4.078   4.879  0.4007  0.2175  0.1310
 9732TIP3   OH250610   6.586   1.913   1.557 -0.0171 -0.3712 -0.1010
 9732TIP3    H150611   6.652   1.976   1.585  0.5701 -0.3190 -1.6054
 9732TIP3    H250612   6.546   1.952   1.479  0.4196 -1.9059 -1.1155
 9733TIP3   OH250613   4.737   1.433   2.428 -0.6024  0.4568 -0.1003
 9733TIP3    H150614   4.794   1.505   2.400  1.4701  0.3237  3.5001
 9733TIP3    H250615   4.703   1.397   2.347  2.4682  2.1829 -2.2751
 9734TIP3   OH250616   2.930   3.036  11.067  0.5456  0.6102 -0.2031
 9734TIP3    H150617   2.949   3.018  10.975  0.7746 -2.3904  0.3778
 9734TIP3    H250618   2.967   3.123  11.083  2.1192  0.3915 -2.4692
 9735TIP3   OH250619   0.216   6.091   1.376 -0.1968  0.8360 -0.0692
 9735TIP3    H150620   0.294   6.125   1.421 -0.6316  0.1904  1.1947
 9735TIP3    H250621   0.250   6.045   1.300  0.5558  1.9823 -0.4425
 9736TIP3   OH250622   4.669   2.415   0.870  0.1509 -0.2407 -0.0635
 9736TIP3    H150623   4.634   2.326   0.872 -0.8053  0.1560  0.6672
 9736TIP3    H250624   4.753   2.408   0.915 -0.4672 -0.5379  1.0556
 9737TIP3   OH250625   2.084   2.349  12.534  0.2892  0.0544  0.1644
 9737TIP3    H150626   2.117   2.415  12.595 -0.7751  0.4962  0.2612
 9737TIP3    H250627   2.118   2.376  12.449  2.5596 -1.0770  0.6751
 9738TIP3   OH250628   0.012   3.953   0.446 -0.2620  0.5540 -0.6665
 9738TIP3    H150629  -0.043   4.027   0.472 -1.3435 -0.5882  0.3194
 9738TIP3    H250630   0.059   3.985   0.369 -0.8287  2.2163 -0.3457
 9739TIP3   OH250631   0.942   2.988  15.336 -0.1395  0.0709 -0.4218
 9739TIP3    H150632   0.863   2.964  15.287 -0.7616 -2.3719  1.6492
 9739TIP3    H250633   0.910   3.017  15.421  1.0948  1.2156 -0.3282
 9740TIP3   OH250634   0.323   2.142   1.857 -0.2035  0.0947 -0.5300
 9740TIP3    H150635   0.308   2.199   1.782  1.9958 -0.4062 -1.3740
 9740TIP3    H250636   0.393   2.184   1.906  0.4738 -1.1512 -0.4055
 9741TIP3   OH250637   5.559   1.669   5.896  0.1930 -0.1525 -0.3105
 9741TIP3    H150638   5.636   1.681   5.951 -0.6815 -1.8384  1.3714
 9741TIP3    H250639   5.507   1.748   5.910  0.3159 -0.2474  0.7588
 9742TIP3   OH250640   4.233   0.649   2.603  0.4215 -0.2378 -0.0932
 9742TIP3    H150641   4.255   0.740   2.588  0.5446 -0.3714 -0.7309
 9742TIP3    H250642   4.153   0.651   2.655  1.6230  0.2507  1.8092
 9743TIP3   OH250643   2.195   5.602   0.834  0.2290  0.4217 -0.3995
 9743TIP3    H150644   2.290   5.591   0.831  0.2791 -0.1937  2.3293
 9743TIP3    H250645   2.180   5.657   0.912 -1.8526 -2.3618  1.2464
 9744TIP3   OH250646   1.536   1.508   4.763 -0.3690  0.1924 -0.3543
 9744TIP3    H150647   1.517   1.543   4.850 -0.6329  0.8353 -0.6705
 9744TIP3    H250648   1.576   1.581   4.716 -1.6997  0.3235 -1.2826
 9745TIP3   OH250649   0.336   0.455   3.701  0.3636  0.3665  0.0747
 9745TIP3    H150650   0.342   0.549   3.718  0.7885  0.5137 -0.8471
 9745TIP3    H250651   0.379   0.414   3.776 -1.7967  0.8110  1.5960
 9746TIP3   OH250652   5.702   4.551   0.689 -0.4095  0.9048 -0.2588
 9746TIP3    H150653   5.613   4.526   0.664  0.4385 -1.2438 -1.2992
 9746TIP3    H250654   5.719   4.503   0.770 -0.1062  1.0651 -0.2279
 9747TIP3   OH250655   6.165   0.244  13.086 -0.1870 -0.0317  0.5255
 9747TIP3    H150656   6.234   0.293  13.131 -0.4621 -0.2215  1.1738
 9747TIP3    H250657   6.112   0.208  13.158 -1.1291  0.3633  0.0356
 9748TIP3   OH250658   1.864   4.949  14.722  0.2099  0.2108  0.0685
 9748TIP3    H150659   1.824   4.987  14.644  0.4454 -1.4153 -0.8724
 9748TIP3    H250660   1.905   5.022  14.767 -0.0523  1.1815 -1.2653
 9749TIP3   OH250661   3.492   1.041  15.972 -0.5057 -0.4890  0.5818
 9749TIP3    H150662   3.528   1.112  16.026 -0.4650  0.5545 -0.7970
 9749TIP3    H250663   3.400   1.064  15.961 -0.5725 -0.8390  0.4144
 9750TIP3   OH250664   4.086   4.828   3.862 -0.0955  0.1767  0.0559
 9750TIP3    H150665   4.132   4.861   3.939  0.8434  0.5237 -0.6533
 9750TIP3    H250666   3.996   4.859   3.873  0.4625  1.8131  0.0826
 9751TIP3   OH250667   1.410   3.100  14.150  0.4622 -0.2864 -0.0452
 9751TIP3    H150668   1.411   3.141  14.236  1.9236  1.1479 -0.7190
 9751TIP3    H250669   1.498   3.064  14.140 -0.2928 -2.1921 -0.1472
 9752TIP3   OH250670   2.286   3.474  15.813  0.3976 -0.0664  0.2380
 9752TIP3    H150671   2.253   3.388  15.838 -1.7017  0.6112 -0.0943
 9752TIP3    H250672   2.221   3.508  15.752  1.3489  1.6284  0.1367
 9753TIP3   OH250673   2.351   5.250  11.192  0.4061 -0.3905  0.2182
 9753TIP3    H150674   2.330   5.311  11.122  0.6325  0.3823  0.8238
 9753TIP3    H250675   2.416   5.191  11.153 -1.5090 -1.6977 -1.0908
 9754TIP3   OH250676   4.612   0.247   2.044 -0.3112 -0.8341 -0.0609
 9754TIP3    H150677   4.668   0.170   2.057  0.0896 -0.4704  0.3699
 9754TIP3    H250678   4.672   0.321   2.040 -0.7746 -0.4191  0.5822
 9755TIP3   OH250679   5.104   5.675   4.274 -0.3634  0.2551  0.1651
 9755TIP3    H150680   5.062   5.597   4.237 -0.2752 -0.7814  2.1879
 9755TIP3    H250681   5.050   5.748   4.242 -2.0684 -0.8351  0.4499
 9756TIP3   OH250682   2.537   4.411  16.558 -0.1379  0.5231 -0.4534
 9756TIP3    H150683   2.516   4.502  16.537 -3.1143  0.0858  0.4233
 9756TIP3    H250684   2.487   4.360  16.495  1.0127 -0.5500 -0.5191
 9757TIP3   OH250685   4.989   2.710   0.794 -0.4474 -0.3749 -0.9607
 9757TIP3    H150686   4.998   2.804   0.808 -0.5401 -0.3527 -1.0528
 9757TIP3    H250687   4.948   2.702   0.708 -1.6623 -0.4607 -0.3810
 9758TIP3   OH250688   0.420   3.399   1.071 -0.4354  0.3356  0.3593
 9758TIP3    H150689   0.374   3.316   1.087 -0.0590  0.2897  1.2032
 9758TIP3    H250690   0.414   3.411   0.976  2.1211 -2.1818 -0.1819
 9759TIP3   OH250691   6.718   2.043  16.766 -0.0112  0.1896 -0.2404
 9759TIP3    H150692   6.742   2.040  16.858 -1.0363 -0.4468  0.0156
 9759TIP3    H250693   6.624   2.058  16.766 -0.6196 -3.2161 -1.1069
 9760TIP3   OH250694   0.974   0.585   5.221  0.3078  0.4535  0.6788
 9760TIP3    H150695   1.020   0.503   5.202  0.8076  1.2933 -2.0491
 9760TIP3    H250696   1.044   0.649   5.234 -0.0780  0.8327  0.9065
 9761TIP3   OH250697   6.134   3.014  13.414 -0.1576 -0.1320 -0.1000
 9761TIP3    H150698   6.185   2.938  13.388  1.0219  0.4922  0.3466
 9761TIP3    H250699   6.193   3.088  13.402 -0.5269  0.4718  1.6331
 9762TIP3   OH250700   6.241   1.328  16.077  0.1833 -0.2975 -0.5203
 9762TIP3    H150701   6.291   1.390  16.024  0.0037 -0.3057 -0.7002
 9762TIP3    H250702   6.195   1.274  16.013  0.3808 -0.6533 -0.3644
 9763TIP3   OH250703   6.579   5.093  12.515  0.1402  0.4074 -0.3615
 9763TIP3    H150704   6.534   5.026  12.566  0.8637  0.8556  0.8760
 9763TIP3    H250705   6.514   5.122  12.451 -1.1143  0.5635  0.9612
 9764TIP3   OH250706   2.703   2.750  14.157  0.6983  0.2744 -0.2939
 9764TIP3    H150707   2.720   2.724  14.247 -0.6713  1.1526  0.2417
 9764TIP3    H250708   2.637   2.687  14.126  0.7925  0.2843 -0.5153
 9765TIP3   OH250709   1.763   5.247   5.807 -0.4920 -0.3013 -0.6029
 9765TIP3    H150710   1.828   5.183   5.778 -0.5865 -0.9107  0.5142
 9765TIP3    H250711   1.701   5.197   5.860 -0.4539  0.7412  0.4487
 9766TIP3   OH250712   0.615   1.200  16.586 -0.7073  0.0924  0.1831
 9766TIP3    H150713   0.639   1.290  16.611 -1.9934  0.0106  1.8519
 9766TIP3    H250714   0.698   1.158  16.565  0.1064  1.1623  1.1570
 9767TIP3   OH250715   2.550   0.674   6.079  0.2020  0.1961  0.0552
 9767TIP3    H150716   2.614   0.744   6.092  1.6685 -1.0454 -0.2592
 9767TIP3    H250717   2.600   0.593   6.091 -1.3507 -0.8043 -0.0453
 9768TIP3   OH250718   0.949   4.800   1.812 -0.0264 -0.0993 -0.0089
 9768TIP3    H150719   0.974   4.891   1.825  1.1456 -0.4742  0.3299
 9768TIP3    H250720   0.940   4.791   1.717 -0.8888  0.5559  0.0023
 9769TIP3   OH250721   4.261   5.566  16.275  0.1005 -0.2885  0.0756
 9769TIP3    H150722   4.256   5.643  16.219  1.8867  0.6277  1.1168
 9769TIP3    H250723   4.180   5.568  16.326  0.2877  1.1034  0.3369
 9770TIP3   OH250724   5.280   0.028   3.524 -0.3461  0.2858 -0.8303
 9770TIP3    H150725   5.284   0.115   3.485 -2.0843  0.0198 -1.6655
 9770TIP3    H250726   5.193   0.024   3.563 -0.9366 -1.6834 -2.2720
 9771TIP3   OH250727   5.459   1.614  15.665 -0.3449  0.0132 -0.5475
 9771TIP3    H150728   5.538   1.608  15.718  0.3097  1.4836 -1.3411
 9771TIP3    H250729   5.416   1.530  15.677  1.8542 -1.2092 -0.9196
 9772TIP3   OH250730   5.997   0.792  13.020 -0.0731  0.0355 -0.7911
 9772TIP3    H150731   6.064   0.747  13.071 -0.6627 -0.2762 -0.2881
 9772TIP3    H250732   6.020   0.885  13.026 -0.9589  0.1521  1.2800
 9773TIP3   OH250733   2.244   1.346  12.461 -0.1832  0.5127 -0.0267
 9773TIP3    H150734   2.330   1.323  12.498 -0.1325 -0.1628 -0.5515
 9773TIP3    H250735   2.184   1.281  12.497  0.4457 -2.2968 -3.6919
 9774TIP3   OH250736   3.144   3.558   1.558 -0.1557  0.1502 -0.1640
 9774TIP3    H150737   3.087   3.599   1.623  0.1614  1.4155 -0.6659
 9774TIP3    H250738   3.178   3.631   1.506  2.1534 -0.5547  0.2988
 9775TIP3   OH250739   6.146   5.335   3.855 -0.0507  0.1161  0.1904
 9775TIP3    H150740   6.132   5.240   3.859  1.5595 -0.0546  2.1230
 9775TIP3    H250741   6.240   5.345   3.843 -0.3865  1.4636 -1.5075
 9776TIP3   OH250742   1.536   5.679   3.305  0.4042  0.0466 -0.1715
 9776TIP3    H150743   1.508   5.589   3.287 -0.5848  0.2711  0.1856
 9776TIP3    H250744   1.456   5.731   3.295  0.8360  0.7999  0.2606
 9777TIP3   OH250745   6.331   4.378  12.005  0.3870  0.2506 -0.0772
 9777TIP3    H150746   6.377   4.462  11.996  0.4630  0.3199  0.9332
 9777TIP3    H250747   6.239   4.400  11.997  0.4141  0.4096  0.0445
 9778TIP3   OH250748   3.276   0.765   2.848 -0.5093  0.4765 -0.5098
 9778TIP3    H150749   3.248   0.845   2.804  0.7728  2.2359  1.8013
 9778TIP3    H250750   3.372   0.765   2.840 -0.5667 -1.4260 -1.4823
 9779TIP3   OH250751   5.894   3.845   3.599  0.3258 -0.6645 -0.0605
 9779TIP3    H150752   5.878   3.884   3.685 -1.3444 -1.0377 -0.1935
 9779TIP3    H250753   5.865   3.754   3.607  0.7589 -0.8788 -0.8367
 9780TIP3   OH250754   4.237   4.887   4.082 -0.1139  0.3095  0.4503
 9780TIP3    H150755   4.181   4.918   4.153 -0.4764  1.3041 -0.2599
 9780TIP3    H250756   4.302   4.831   4.125 -0.2900  0.9611  1.5761
 9781TIP3   OH250757   5.833   2.124   1.003  0.4664  0.4114  0.9381
 9781TIP3    H150758   5.887   2.130   1.082  0.9271  2.4351  0.4822
 9781TIP3    H250759   5.887   2.161   0.933 -0.9436  1.1064  0.1927
 9782TIP3   OH250760   2.410   5.963  12.458 -0.2016  0.1248  0.0709
 9782TIP3    H150761   2.486   5.937  12.510 -0.0397  0.7198  0.1412
 9782TIP3    H250762   2.414   6.059  12.457 -0.2221  0.1126 -1.0241
 9783TIP3   OH250763   1.781   4.237  11.523  0.3887  0.3201  0.3429
 9783TIP3    H150764   1.840   4.259  11.595 -0.0641  4.1749 -0.3381
 9783TIP3    H250765   1.838   4.218  11.449  0.8183  0.7867  0.5506
 9784TIP3   OH250766   3.460   3.639  10.575 -0.3511 -0.0567  0.1423
 9784TIP3    H150767   3.406   3.642  10.654 -1.0588 -0.3672 -0.3243
 9784TIP3    H250768   3.409   3.587  10.513  0.0233  0.5021 -0.6459
 9785TIP3   OH250769   3.663   1.944  13.138 -0.3633 -0.3580 -0.1669
 9785TIP3    H150770   3.609   1.971  13.212  0.7166  0.3509  0.3806
 9785TIP3    H250771   3.626   1.860  13.111 -2.4538  0.6443 -0.5477
 9786TIP3   OH250772   5.720   1.533  12.310  0.4974 -0.7624  0.1441
 9786TIP3    H150773   5.659   1.493  12.371  0.0338 -0.2594  0.0172
 9786TIP3    H250774   5.807   1.509  12.343  0.2404 -0.9692  0.6703
 9787TIP3   OH250775   2.260   4.702   4.958  0.1406 -0.5191  0.2367
 9787TIP3    H150776   2.187   4.747   4.999  0.6316 -0.2593  0.8403
 9787TIP3    H250777   2.322   4.686   5.029  0.8430 -0.3924 -0.3319
 9788TIP3   OH250778   4.765   5.067   1.942 -0.2973 -0.4834  0.1524
 9788TIP3    H150779   4.740   5.118   2.019 -0.3832 -2.0390  1.1783
 9788TIP3    H250780   4.709   4.989   1.946 -1.5982  0.2792 -2.5066
 9789TIP3   OH250781   3.704   0.950  15.586 -0.5146  0.1292  0.3259
 9789TIP3    H150782   3.692   1.043  15.567 -1.4412 -0.6074 -2.9505
 9789TIP3    H250783   3.792   0.944  15.621  0.0212  2.0943 -0.6064
 9790TIP3   OH250784   1.678   5.665  13.523  0.0830  0.1589  0.0072
 9790TIP3    H150785   1.691   5.759  13.529 -0.2331  0.1697  0.4939
 9790TIP3    H250786   1.588   5.655  13.493 -0.2335 -0.0146  1.0222
 9791TIP3   OH250787   5.344   4.792  13.886 -0.0345  0.2068  0.9196
 9791TIP3    H150788   5.317   4.724  13.824 -2.2188  0.7002  1.2666
 9791TIP3    H250789   5.409   4.844  13.838  1.7467 -2.1801  0.7075
 9792TIP3   OH250790   1.261   5.662  14.945 -0.4594  0.2828 -0.0214
 9792TIP3    H150791   1.231   5.730  15.006 -1.5308 -0.6700  0.5180
 9792TIP3    H250792   1.198   5.667  14.872 -1.5109 -1.2216  0.7700
 9793TIP3   OH250793   2.128   3.100   5.709 -0.3915  0.0274  0.0568
 9793TIP3    H150794   2.114   3.119   5.617  1.7405  0.7286 -0.1524
 9793TIP3    H250795   2.179   3.019   5.709  0.2465  0.4189  0.5803
 9794TIP3   OH250796   5.123   5.037  16.446  0.4909  0.5239  0.1417
 9794TIP3    H150797   5.054   5.103  16.446 -0.3907 -0.3997  0.6704
 9794TIP3    H250798   5.092   4.969  16.506  2.0665  0.3277  0.7587
 9795TIP3   OH250799   6.428   2.055  11.716  0.4738  0.1821  0.0560
 9795TIP3    H150800   6.355   2.109  11.686 -0.5706 -2.2826 -2.0736
 9795TIP3    H250801   6.506   2.106  11.697 -0.4430  0.5812 -2.8198
 9796TIP3   OH250802   2.263   6.476  12.155 -0.0565  0.1932 -0.7828
 9796TIP3    H150803   2.199   6.463  12.225  0.8757 -0.5091 -0.0453
 9796TIP3    H250804   2.259   6.570  12.135 -0.6436  0.3133 -0.1014
 9797TIP3   OH250805   4.013   0.656  17.027 -0.1523  0.4191  0.6302
 9797TIP3    H150806   3.931   0.662  16.979 -0.0429 -2.0024  0.0776
 9797TIP3    H250807   3.993   0.600  17.102  1.1268 -0.6950  0.1527
 9798TIP3   OH250808   4.420   5.900  12.643 -0.3228 -0.0996  0.3824
 9798TIP3    H150809   4.494   5.891  12.582 -0.0406 -1.1966  0.8732
 9798TIP3    H250810   4.448   5.966  12.705  0.8647 -1.5630  1.4394
 9799TIP3   OH250811   1.763   3.328   1.279 -0.3537  0.3441  0.1966
 9799TIP3    H150812   1.669   3.315   1.267 -0.3349 -0.4955  0.8872
 9799TIP3    H250813   1.774   3.423   1.285 -1.3435  0.3881  1.5298
 9800TIP3   OH250814   5.643   5.498   1.385  0.3628  0.0768  0.2576
 9800TIP3    H150815   5.666   5.450   1.464  0.9160  2.1253  1.3668
 9800TIP3    H250816   5.644   5.590   1.411 -3.2014  0.6025 -1.1526
 9801TIP3   OH250817   2.365   1.124   3.341 -0.0408 -0.2978  0.7304
 9801TIP3    H150818   2.399   1.060   3.405 -0.8625 -0.1305  1.3429
 9801TIP3    H250819   2.423   1.115   3.265  0.0968 -1.4886  0.9672
 9802TIP3   OH250820   4.708   5.540  12.177 -0.3392 -0.4190  0.3101
 9802TIP3    H150821   4.699   5.627  12.138  0.6530 -0.1743  0.6206
 9802TIP3    H250822   4.674   5.481  12.109 -2.3675  0.2971  0.6653
 9803TIP3   OH250823   3.057   0.821   3.495 -0.3858  0.4009 -0.0978
 9803TIP3    H150824   3.096   0.812   3.582 -0.3561  0.5645 -0.0945
 9803TIP3    H250825   3.030   0.913   3.490  2.6304  1.2512 -1.5278
 9804TIP3   OH250826   3.465   6.063  15.803  0.6457 -0.2009 -0.2938
 9804TIP3    H150827   3.406   6.087  15.731  0.6034 -1.1779 -0.5912
 9804TIP3    H250828   3.411   6.008  15.861  0.9402 -0.1579  0.0201
 9805TIP3   OH250829   1.896   0.391  15.262 -0.0550 -0.2595 -0.0704
 9805TIP3    H150830   1.925   0.335  15.334 -0.3427 -1.0224 -0.5396
 9805TIP3    H250831   1.835   0.336  15.212 -0.1582  0.3940 -0.6689
 9806TIP3   OH250832   5.400   3.132  14.852 -0.5999 -0.1426 -0.3859
 9806TIP3    H150833   5.352   3.049  14.850  1.4032 -1.3715  0.5695
 9806TIP3    H250834   5.394   3.165  14.763 -0.8481 -1.6726 -0.9603
 9807TIP3   OH250835   3.360   5.770  15.634 -0.4765  0.0068 -0.2653
 9807TIP3    H150836   3.419   5.753  15.706 -1.3398 -0.1839  0.4042
 9807TIP3    H250837   3.343   5.685  15.595 -1.3755 -0.1247  0.3927
 9808TIP3   OH250838   0.542   0.765   3.952 -0.0718 -0.3162  0.0030
 9808TIP3    H150839   0.545   0.743   4.045  1.3532 -1.1991 -0.2381
 9808TIP3    H250840   0.584   0.691   3.908  0.2679  0.5942 -1.2370
 9809TIP3   OH250841   3.552   0.412  13.191  0.2702 -0.2507  0.0394
 9809TIP3    H150842   3.554   0.407  13.095 -0.8229 -0.0279  0.0003
 9809TIP3    H250843   3.615   0.482  13.212 -0.1671  0.3321 -0.5633
 9810TIP3   OH250844   5.969   5.077  10.380 -0.0361  0.1164  0.1006
 9810TIP3    H150845   5.958   5.169  10.355 -1.4759 -0.2705 -0.7659
 9810TIP3    H250846   6.031   5.041  10.317  0.7120  0.5614  0.5885
 9811TIP3   OH250847   3.423   0.083   2.579  0.0175  0.4485 -0.2991
 9811TIP3    H150848   3.476   0.006   2.559 -0.1866  0.3112 -0.3126
 9811TIP3    H250849   3.392   0.068   2.668  1.4433  1.3496  0.3638
 9812TIP3   OH250850   3.241   6.079   2.112  0.6306  0.3546  0.1818
 9812TIP3    H150851   3.280   6.101   2.197 -1.0544 -1.5994  1.5233
 9812TIP3    H250852   3.314   6.048   2.059  1.3531 -0.6562  1.7161
 9813TIP3   OH250853   3.068   6.025  16.632  0.6489 -0.4707  0.4365
 9813TIP3    H150854   3.121   6.051  16.557 -0.7070 -1.8279 -1.0045
 9813TIP3    H250855   3.086   5.932  16.643 -0.5831 -0.6856  0.6393
 9814TIP3   OH250856   2.420   1.251  17.102 -1.0352  0.2299  0.0697
 9814TIP3    H150857   2.346   1.192  17.086 -1.7048  0.8730  0.7854
 9814TIP3    H250858   2.497   1.195  17.091 -1.5921 -0.2138 -1.6506
 9815TIP3   OH250859   4.302   3.447   2.209  0.1349  0.0619 -0.2100
 9815TIP3    H150860   4.374   3.505   2.183  0.3036 -0.0880 -0.0797
 9815TIP3    H250861   4.312   3.370   2.152 -0.9250  0.7497 -1.3605
 9816TIP3   OH250862   6.204   6.264  13.103 -0.1230 -0.3031 -0.2314
 9816TIP3    H150863   6.278   6.225  13.058  0.2834  0.4614 -0.2241
 9816TIP3    H250864   6.151   6.189  13.130  1.6448 -0.9602  1.5200
 9817TIP3   OH250865   2.639   1.183   6.357  0.0209 -0.5017 -0.0984
 9817TIP3    H150866   2.724   1.140   6.368  0.6253  0.7871  0.3916
 9817TIP3    H250867   2.623   1.226   6.441 -0.5145  0.3141 -0.6073
 9818TIP3   OH250868   6.605   0.487   1.588  0.0776 -0.2903  0.3381
 9818TIP3    H150869   6.645   0.529   1.664 -1.0050  2.5140 -0.6046
 9818TIP3    H250870   6.515   0.471   1.614 -0.1296  0.1008 -0.1376
 9819TIP3   OH250871   4.742   3.171   1.092 -0.0524  0.4586 -0.7356
 9819TIP3    H150872   4.802   3.186   1.165  0.7072 -1.9538 -0.8439
 9819TIP3    H250873   4.702   3.086   1.110 -0.3546  0.1379 -2.7938
 9820TIP3   OH250874   5.553   5.507  11.743 -0.7133 -0.1188  0.1794
 9820TIP3    H150875   5.546   5.564  11.667  2.2430  1.6970  1.2219
 9820TIP3    H250876   5.522   5.560  11.816  1.7053  0.0665  1.1007
 9821TIP3   OH250877   5.494   1.391  12.021 -0.3132  0.5345  0.4474
 9821TIP3    H150878   5.569   1.336  12.041  0.2514  0.6662 -1.1810
 9821TIP3    H250879   5.420   1.331  12.013 -0.2476  0.3299  1.3835
 9822TIP3   OH250880   3.081   4.828   0.968  0.4017 -0.7161 -0.0163
 9822TIP3    H150881   3.105   4.741   0.936  2.4951 -0.1301 -0.0733
 9822TIP3    H250882   3.121   4.888   0.905  1.6983  0.3680  1.8099
 9823TIP3   OH250883   2.995   6.113   1.387  0.8884 -0.3646 -0.2661
 9823TIP3    H150884   2.962   6.023   1.393  0.4838 -0.3529 -1.9943
 9823TIP3    H250885   2.916   6.167   1.380  1.1774 -0.0203 -0.8834
 9824TIP3   OH250886   2.602   2.907  15.178  0.6261  0.4138  0.0822
 9824TIP3    H150887   2.525   2.962  15.195  0.9246  0.9321 -0.2122
 9824TIP3    H250888   2.657   2.961  15.120  0.5487 -0.5238 -0.8818
 9825TIP3   OH250889   6.085   2.146  15.568  0.1602 -0.4410 -0.4400
 9825TIP3    H150890   6.002   2.153  15.521  0.8773 -1.6834 -1.9149
 9825TIP3    H250891   6.061   2.107  15.652 -0.8265 -0.3155 -0.6553
 9826TIP3   OH250892   2.790   4.032   2.970  0.1936 -0.1626  0.5338
 9826TIP3    H150893   2.820   4.122   2.985 -2.2553  0.3560  2.8182
 9826TIP3    H250894   2.707   4.042   2.922 -1.0142 -1.0577  2.3536
 9827TIP3   OH250895   2.297   5.007   0.962  0.2959 -0.6727  0.1218
 9827TIP3    H150896   2.337   5.073   1.019 -4.0714  0.6647  1.8268
 9827TIP3    H250897   2.282   4.932   1.020 -1.0889 -0.5414 -0.0424
 9828TIP3   OH250898   2.451   0.610   0.639  0.5704 -0.1248 -0.6953
 9828TIP3    H150899   2.416   0.593   0.726  2.0097 -0.8610 -0.2642
 9828TIP3    H250900   2.472   0.704   0.639  2.5815 -0.5537  0.4854
 9829TIP3   OH250901   4.335   3.772   0.183  0.5486 -0.5659 -0.1037
 9829TIP3    H150902   4.366   3.722   0.107  1.9748  2.3762 -1.5610
 9829TIP3    H250903   4.392   3.744   0.255  2.7200  0.4168 -1.3873
 9830TIP3   OH250904   4.741   5.464  16.186  0.3544 -0.2057  0.2705
 9830TIP3    H150905   4.811   5.500  16.132 -0.7533 -0.6914 -1.5586
 9830TIP3    H250906   4.766   5.373  16.202  0.3196 -0.2755 -0.0753
 9831TIP3   OH250907   3.278   4.435   1.372  0.9480  0.0511  0.2139
 9831TIP3    H150908   3.297   4.351   1.329 -0.6715  1.5491 -3.6126
 9831TIP3    H250909   3.336   4.498   1.328 -0.2052  1.5027  0.7419
 9832TIP3   OH250910   3.349   0.951   6.068 -0.0561 -0.3197  0.1776
 9832TIP3    H150911   3.413   0.974   6.001 -0.9072  0.7523 -0.2905
 9832TIP3    H250912   3.378   0.998   6.146  0.7036 -1.2361  0.4506
 9833TIP3   OH250913   6.391   3.230   4.198  0.6571 -0.3079  0.2294
 9833TIP3    H150914   6.348   3.269   4.122  1.7708  0.5238  0.0184
 9833TIP3    H250915   6.481   3.214   4.170  0.1370 -3.4008  0.1932
 9834TIP3   OH250916   4.337   0.510   1.075  0.1083  0.4298  0.4786
 9834TIP3    H150917   4.348   0.417   1.056  0.9570  0.6952 -0.3662
 9834TIP3    H250918   4.415   0.552   1.038 -0.8375  1.6190 -0.2090
 9835TIP3   OH250919   5.627   2.367  16.974  0.6637  0.1535  0.3716
 9835TIP3    H150920   5.672   2.437  16.927  0.4987  0.8896  1.2895
 9835TIP3    H250921   5.635   2.291  16.917 -0.3750  1.2578 -1.2994
 9836TIP3   OH250922   1.878   4.490  16.825  0.4741  0.1233 -0.0329
 9836TIP3    H150923   1.923   4.480  16.742  2.3915 -0.1708  1.0209
 9836TIP3    H250924   1.912   4.572  16.861 -2.8320  2.0466 -1.0175
 9837TIP3   OH250925   4.093   2.036   4.119 -0.4248 -0.9507  0.2741
 9837TIP3    H150926   4.130   2.115   4.080 -0.1159 -1.1857  0.0931
 9837TIP3    H250927   4.029   2.068   4.183 -0.9439 -0.5659 -0.4380
 9838TIP3   OH250928   4.904   1.410  15.476  0.5108  0.0275 -0.3100
 9838TIP3    H150929   4.925   1.500  15.499 -2.5513  0.4669  1.1439
 9838TIP3    H250930   4.922   1.360  15.556  1.0918 -0.4446 -0.7370
 9839TIP3   OH250931   6.042   5.842   0.727 -0.2765 -0.7047  0.1617
 9839TIP3    H150932   6.071   5.862   0.638  1.1642  0.4205  0.8557
 9839TIP3    H250933   6.122   5.817   0.773 -0.6968  0.5480  1.6216
 9840TIP3   OH250934   5.186   5.724  13.471 -0.0602 -0.3590 -0.3750
 9840TIP3    H150935   5.181   5.662  13.398 -0.6987  1.2474 -1.7217
 9840TIP3    H250936   5.280   5.739  13.482  0.0616 -0.9570 -0.5639
 9841TIP3   OH250937   4.353   5.094  12.249 -0.2284  0.5716 -0.6721
 9841TIP3    H150938   4.432   5.147  12.243 -0.9960  2.3945  3.6587
 9841TIP3    H250939   4.305   5.113  12.169  1.9613  2.3214 -1.6267
 9842TIP3   OH250940   4.585   4.037  16.756  0.0985 -0.0031  0.5190
 9842TIP3    H150941   4.549   4.059  16.842 -2.5335  1.2813 -0.8401
 9842TIP3    H250942   4.510   4.002  16.707  1.9657 -2.4330 -0.6678
 9843TIP3   OH250943   5.833   3.389   2.648  0.6364  0.0470  0.3913
 9843TIP3    H150944   5.860   3.450   2.718 -1.6322  0.1476  1.2328
 9843TIP3    H250945   5.827   3.444   2.570 -2.3401  1.2124  1.3401
 9844TIP3   OH250946   1.129   4.724   4.423 -0.1119  0.1002 -0.3045
 9844TIP3    H150947   1.169   4.805   4.453 -0.4554  0.1010  0.1570
 9844TIP3    H250948   1.163   4.656   4.481 -1.5467  0.2512  0.7632
 9845TIP3   OH250949   2.784   0.764  12.884 -0.0914  0.2080  0.4614
 9845TIP3    H150950   2.753   0.811  12.962 -2.7088  0.7438 -0.8389
 9845TIP3    H250951   2.723   0.690  12.876 -0.4762  0.7220 -1.6196
 9846TIP3   OH250952   4.283   3.752  12.326 -0.0854 -0.1428  0.3279
 9846TIP3    H150953   4.378   3.749  12.315 -0.0429  1.1903  0.2875
 9846TIP3    H250954   4.263   3.675  12.379  0.8271 -1.3259 -1.0058
 9847TIP3   OH250955   5.726   5.469   0.602  0.2801 -0.1134 -0.0309
 9847TIP3    H150956   5.697   5.395   0.655  0.6181 -0.4507 -0.3129
 9847TIP3    H250957   5.727   5.543   0.662 -1.2605 -0.0681 -0.0312
 9848TIP3   OH250958   0.144   6.307  11.804 -0.0422 -0.1247  0.0541
 9848TIP3    H150959   0.066   6.351  11.838 -0.4533 -0.1082 -0.9010
 9848TIP3    H250960   0.180   6.369  11.740  1.8422  0.7220  1.8399
 9849TIP3   OH250961   5.304   6.519   3.337 -0.2628  0.1488 -0.1113
 9849TIP3    H150962   5.334   6.430   3.317  0.8826  0.8422 -1.5167
 9849TIP3    H250963   5.312   6.526   3.432  1.4140 -0.6108 -0.1849
 9850TIP3   OH250964   6.238   0.102  11.341 -0.2105 -0.5664 -0.6873
 9850TIP3    H150965   6.160   0.095  11.285  1.0410 -2.3980 -2.2895
 9850TIP3    H250966   6.311   0.093  11.280  1.2460  0.3414  0.9036
 9851TIP3   OH250967   3.135   2.285  13.145 -0.0029  0.2859 -0.1571
 9851TIP3    H150968   3.108   2.307  13.234  0.8837  1.2513 -0.1138
 9851TIP3    H250969   3.150   2.191  13.147 -2.5398 -0.1615  0.0237
 9852TIP3   OH250970   3.184   4.575   4.171  0.5131  1.0522 -0.3610
 9852TIP3    H150971   3.268   4.614   4.147  1.5330 -1.5342 -1.0924
 9852TIP3    H250972   3.142   4.556   4.087  0.5293 -0.4581 -0.0429
 9853TIP3   OH250973   4.737   6.012   3.556  0.0556 -0.2841 -0.3267
 9853TIP3    H150974   4.740   6.046   3.646 -0.0588 -0.7256 -0.1528
 9853TIP3    H250975   4.774   5.923   3.563  0.8923  0.0154 -0.8753
 9854TIP3   OH250976   4.903   4.641  14.251 -0.2633 -0.2719  0.1846
 9854TIP3    H150977   4.994   4.667  14.258 -0.6193  1.3407 -0.8480
 9854TIP3    H250978   4.892   4.571  14.317  1.3451  0.4739  1.2635
 9855TIP3   OH250979   4.468   3.650   0.406  0.1188 -0.3008 -0.4818
 9855TIP3    H150980   4.476   3.711   0.479 -2.0261 -2.1319  1.3285
 9855TIP3    H250981   4.558   3.623   0.387  1.1210  3.2248 -1.2369
 9856TIP3   OH250982   0.326   2.737   5.114  0.1666 -0.2156  0.5362
 9856TIP3    H150983   0.268   2.734   5.037 -0.3972 -0.4623  0.9754
 9856TIP3    H250984   0.317   2.827   5.146  2.5808  0.7601 -1.3645
 9857TIP3   OH250985   1.317   5.684   1.916  0.3356 -0.0244 -0.0372
 9857TIP3    H150986   1.305   5.687   2.011  0.1045  0.0871 -0.0710
 9857TIP3    H250987   1.412   5.688   1.904  0.2583  4.2626  0.0271
 9858TIP3   OH250988   1.302   0.228  12.342  0.4399 -0.1733  0.4556
 9858TIP3    H150989   1.238   0.290  12.307 -0.5363 -1.1530  0.4769
 9858TIP3    H250990   1.311   0.252  12.434  0.3485  0.1688  0.3763
 9859TIP3   OH250991   5.320   5.630  12.320  0.1716 -0.1722 -0.7169
 9859TIP3    H150992   5.333   5.549  12.271 -0.5112 -0.9524  0.3630
 9859TIP3    H250993   5.239   5.667  12.286 -0.0703 -0.4895 -0.4967
 9860TIP3   OH250994   4.998   4.070   3.620 -0.2415 -0.2536  0.3295
 9860TIP3    H150995   4.998   3.975   3.608  0.4278 -0.3355  0.9553
 9860TIP3    H250996   5.018   4.105   3.533  0.3806 -0.7103  0.2882
 9861TIP3   OH250997   3.732   1.520  10.767 -0.1493  0.2036  0.6030
 9861TIP3    H150998   3.696   1.433  10.783  0.7679  0.2281  3.0058
 9861TIP3    H250999   3.816   1.520  10.814  0.1063  2.1962  0.1919
 9862TIP3   OH251000   2.647   4.856   3.625 -1.0379 -0.3509 -0.4114
 9862TIP3    H151001   2.675   4.768   3.647  0.7247  0.3241  0.1645
 9862TIP3    H251002   2.682   4.871   3.537 -1.2423 -0.1774 -0.4647
 9863TIP3   OH251003   0.184   3.610   4.114  0.1079 -0.2702  0.0948
 9863TIP3    H151004   0.242   3.686   4.111 -0.1641 -0.0895 -0.8407
 9863TIP3    H251005   0.223   3.552   4.179  0.0188  0.9167  1.2343
 9864TIP3   OH251006   4.124   4.313   5.159  0.1393  0.5369 -0.3273
 9864TIP3    H151007   4.060   4.267   5.104  0.5236 -0.2099 -0.1484
 9864TIP3    H251008   4.176   4.364   5.097  2.1482 -2.1649 -0.9615
 9865TIP3   OH251009   2.859   0.050   1.403 -0.3502 -0.0772  0.0989
 9865TIP3    H151010   2.861  -0.033   1.354 -1.7939 -0.4858  0.6882
 9865TIP3    H251011   2.871   0.024   1.494 -0.8144  0.3604  0.2870
 9866TIP3   OH251012   3.320   6.555   5.845 -0.4860  0.5244 -0.1531
 9866TIP3    H151013   3.307   6.645   5.874 -0.2207  0.0761  1.4101
 9866TIP3    H251014   3.256   6.543   5.774 -0.4298  1.9680 -0.4590
 9867TIP3   OH251015   4.751   5.980  12.881  0.2168 -0.2786  0.1799
 9867TIP3    H151016   4.805   5.904  12.857  1.6574  0.4466  1.0472
 9867TIP3    H251017   4.814   6.045  12.913 -0.9692  1.4384 -0.9155
 9868TIP3   OH251018   0.825   3.270   1.670 -0.6248 -0.0591 -0.5308
 9868TIP3    H151019   0.844   3.362   1.687  0.5363 -0.3262 -0.2982
 9868TIP3    H251020   0.870   3.223   1.740 -2.4417 -0.7322  0.2184
 9869TIP3   OH251021   5.255   2.750  17.039 -0.0109 -0.0233 -0.3353
 9869TIP3    H151022   5.321   2.691  17.077 -1.1914  0.4728  2.6016
 9869TIP3    H251023   5.198   2.692  16.988 -0.0324 -1.1731  0.9540
 9870TIP3   OH251024   4.178   1.833   1.011 -0.4833 -0.0778  0.2338
 9870TIP3    H151025   4.119   1.765   1.044 -0.5009  0.1037  0.5773
 9870TIP3    H251026   4.210   1.798   0.928  0.8171 -1.2488  1.1973
 9871TIP3   OH251027   3.980   0.608   1.224  0.5317  0.8500  0.5899
 9871TIP3    H151028   3.976   0.636   1.132  0.8363 -1.1934 -0.0537
 9871TIP3    H251029   3.889   0.611   1.254  0.4318  1.5140  0.2455
 9872TIP3   OH251030   6.724   4.043   1.456 -0.2561  0.3805  0.0421
 9872TIP3    H151031   6.774   4.063   1.535 -1.6357  0.5868  0.8604
 9872TIP3    H251032   6.789   4.047   1.386  0.7663  1.2547  1.0188
 9873TIP3   OH251033   4.607   2.135  13.808  0.0848 -0.0608 -0.3408
 9873TIP3    H151034   4.537   2.124  13.743  0.1836 -0.3115 -0.4066
 9873TIP3    H251035   4.579   2.209  13.861  0.2640  0.4941 -1.0096
 9874TIP3   OH251036   0.899   1.569  12.161 -0.1460 -0.3010  0.3274
 9874TIP3    H151037   0.888   1.505  12.090 -2.4853 -0.9859  1.2682
 9874TIP3    H251038   0.941   1.519  12.231 -0.0625 -0.2628  0.3035
 9875TIP3   OH251039   3.205   3.172   6.637  0.0654  0.1802  0.3601
 9875TIP3    H151040   3.194   3.118   6.559  3.4610  1.0410 -0.8136
 9875TIP3    H251041   3.271   3.127   6.689 -2.5792 -0.7009  3.1240
 9876TIP3   OH251042   6.726   3.579   1.953  0.2327  0.2149  0.5525
 9876TIP3    H151043   6.710   3.510   2.017  1.1925 -1.0809 -0.5940
 9876TIP3    H251044   6.712   3.660   2.002  0.9511 -0.7507  2.3939
 9877TIP3   OH251045   4.255   3.867  15.637  0.0410  0.3430  0.1891
 9877TIP3    H151046   4.209   3.799  15.686  1.9144 -1.3405 -0.3652
 9877TIP3    H251047   4.207   3.874  15.555  1.3525 -2.1496 -0.8252
 9878TIP3   OH251048   6.586   1.997   0.866  0.2457 -0.4281 -0.0368
 9878TIP3    H151049   6.652   1.973   0.801 -0.0802 -0.6730 -0.2749
 9878TIP3    H251050   6.536   1.917   0.881 -0.8517  0.0865 -0.8451
 9879TIP3   OH251051   2.689   5.139  15.216 -0.4643  0.6897  0.1774
 9879TIP3    H151052   2.643   5.165  15.296 -2.2841  1.4783 -1.0760
 9879TIP3    H251053   2.668   5.047  15.204 -2.7843  1.3396 -1.0323
 9880TIP3   OH251054   5.243   2.356   6.061  0.5509  0.6696  0.1810
 9880TIP3    H151055   5.191   2.295   6.113 -0.6960 -0.0739 -1.8456
 9880TIP3    H251056   5.319   2.376   6.115 -0.9266  0.3154  2.4459
 9881TIP3   OH251057   0.538   4.439   2.815 -0.0086 -0.1279 -0.2472
 9881TIP3    H151058   0.488   4.475   2.888 -1.2251 -1.7218 -0.2635
 9881TIP3    H251059   0.574   4.357   2.850  0.0119 -0.5280 -1.2069
 9882TIP3   OH251060   5.746   5.782   4.155 -0.2130 -0.2158  0.2741
 9882TIP3    H151061   5.732   5.747   4.067 -0.6930 -1.2058  0.7320
 9882TIP3    H251062   5.787   5.709   4.203  0.1382  0.3497  0.8417
 9883TIP3   OH251063   3.338   6.119  12.580  0.1519 -0.1011  0.1032
 9883TIP3    H151064   3.403   6.176  12.620 -0.2101  0.8136 -0.6024
 9883TIP3    H251065   3.326   6.154  12.492  0.9456 -2.1015 -0.8402
 9884TIP3   OH251066   0.174   5.493   5.556  0.1193 -0.0967  0.4177
 9884TIP3    H151067   0.150   5.409   5.593 -0.5211 -0.6320 -1.1638
 9884TIP3    H251068   0.267   5.483   5.534  0.2080 -0.1692  0.8272
 9885TIP3   OH251069   2.133   6.651   2.499  0.1705 -0.2191 -0.1406
 9885TIP3    H151070   2.109   6.592   2.570  0.6490  0.1525  0.3335
 9885TIP3    H251071   2.225   6.673   2.515 -0.0181  0.7051 -0.2738
 9886TIP3   OH251072   5.060   0.355   0.114  0.4814 -0.3398  0.5413
 9886TIP3    H151073   5.131   0.387   0.169 -1.2430  2.9835  0.9468
 9886TIP3    H251074   4.987   0.343   0.174 -0.5734  0.5275 -0.5384
 9887TIP3   OH251075   5.322   5.463   2.009 -0.1863 -0.6246  0.1074
 9887TIP3    H151076   5.349   5.530   2.072 -0.9638  0.1346 -0.3544
 9887TIP3    H251077   5.294   5.389   2.063  0.0074 -0.3192  0.6326
 9888TIP3   OH251078   5.074   6.657   2.336  0.1727 -0.8262 -0.0768
 9888TIP3    H151079   5.033   6.583   2.290 -0.0996 -0.2702 -0.7231
 9888TIP3    H251080   5.165   6.630   2.348  0.2787 -0.9134 -1.0673
 9889TIP3   OH251081   5.690   3.868  15.813 -0.1506 -0.3497  0.7116
 9889TIP3    H151082   5.715   3.918  15.735 -0.9487  2.5751  2.2656
 9889TIP3    H251083   5.701   3.777  15.787 -0.6363  0.5454 -2.9037
 9890TIP3   OH251084   4.216   4.960  13.714  0.1875 -0.0060 -0.2805
 9890TIP3    H151085   4.218   5.026  13.783  0.2995  0.6248 -0.8921
 9890TIP3    H251086   4.155   4.994  13.649  0.6538 -0.2441 -0.8495
 9891TIP3   OH251087   2.788   2.745  15.850 -0.1515  0.5964 -0.4104
 9891TIP3    H151088   2.834   2.681  15.796  1.8589  0.5497  1.2739
 9891TIP3    H251089   2.709   2.700  15.877  0.6568 -0.7646 -0.2352
 9892TIP3   OH251090   0.847   1.513  14.033  0.2758  0.8361  0.3786
 9892TIP3    H151091   0.862   1.518  13.938  1.1134  4.3045  0.6280
 9892TIP3    H251092   0.934   1.502  14.071 -0.1528 -1.5279  0.7419
 9893TIP3   OH251093   0.025   0.014  14.492 -0.1149  0.0054  0.0270
 9893TIP3    H151094  -0.050  -0.015  14.544  2.7556 -0.3372  4.2987
 9893TIP3    H251095   0.020   0.110  14.494 -0.1550 -0.0075  0.7790
 9894TIP3   OH251096   2.394   2.006   3.091  0.0443  0.1946 -0.0854
 9894TIP3    H151097   2.427   2.059   3.019  0.8877  0.4958  0.5061
 9894TIP3    H251098   2.472   1.982   3.141 -0.3867 -1.1798 -0.0534
 9895TIP3   OH251099   1.742   2.639  13.414 -0.0777  0.1949 -0.0127
 9895TIP3    H151100   1.749   2.549  13.385 -1.4179 -0.1232  0.5725
 9895TIP3    H251101   1.725   2.689  13.335  2.9466  0.2691 -0.6596
 9896TIP3   OH251102   0.539   3.354  11.653 -0.4803 -0.2505  0.4620
 9896TIP3    H151103   0.610   3.318  11.599  0.6395  0.6258  1.3203
 9896TIP3    H251104   0.565   3.333  11.743 -0.6303  1.2681  0.8608
 9897TIP3   OH251105   6.253   0.397   4.509  0.1760  0.1557  0.2028
 9897TIP3    H151106   6.227   0.478   4.553 -0.7775 -0.1243  0.1789
 9897TIP3    H251107   6.228   0.327   4.570  3.0035 -0.0374  1.1848
 9898TIP3   OH251108   5.629   3.516   2.948 -0.3720 -0.3720 -0.3521
 9898TIP3    H151109   5.645   3.445   3.011 -0.3618  0.9577  1.1797
 9898TIP3    H251110   5.625   3.595   3.002 -2.9270  0.4962 -1.7331
 9899TIP3   OH251111   1.229   2.014  11.746 -0.1183 -0.1732  0.4813
 9899TIP3    H151112   1.176   1.996  11.669  0.1835  0.4558  0.1235
 9899TIP3    H251113   1.320   2.006  11.716  0.0351  2.4631  0.1624
 9900TIP3   OH251114   3.480   2.739   2.105 -0.0184 -0.4114  0.8333
 9900TIP3    H151115   3.552   2.711   2.162  0.1519 -0.3688  0.6380
 9900TIP3    H251116   3.435   2.807   2.155 -0.1460 -0.6945  1.1093
 9901TIP3   OH251117   4.653   0.479   4.273 -0.1728  0.2560  0.1031
 9901TIP3    H151118   4.578   0.419   4.276 -0.1283  0.0700 -2.0448
 9901TIP3    H251119   4.629   0.549   4.334 -0.6751 -1.3946  1.8746
 9902TIP3   OH251120   1.324   6.148  12.936 -0.9109 -0.1980  0.1024
 9902TIP3    H151121   1.353   6.145  12.845 -0.0740 -1.7241  0.4026
 9902TIP3    H251122   1.245   6.202  12.934 -0.2526  0.7699 -1.3374
 9903TIP3   OH251123   3.698   5.774  14.837 -0.1093  0.3925  0.3876
 9903TIP3    H151124   3.690   5.681  14.818 -1.1641  0.7971 -1.1976
 9903TIP3    H251125   3.720   5.778  14.930 -0.1783 -1.4210  0.4874
 9904TIP3   OH251126   2.696   1.978  15.929  0.4240  0.3731 -0.1995
 9904TIP3    H151127   2.772   2.020  15.970  1.3444 -0.8967 -0.6075
 9904TIP3    H251128   2.694   2.013  15.840  0.8479 -0.0051 -0.3559
 9905TIP3   OH251129   4.968   5.180  17.148 -0.1274  0.2139  0.6008
 9905TIP3    H151130   5.053   5.172  17.192 -0.8588  0.5088  2.1221
 9905TIP3    H251131   4.971   5.267  17.108  1.2623 -0.7828 -1.5555
 9906TIP3   OH251132   5.082   2.483   0.329 -0.0330  0.3449  0.5988
 9906TIP3    H151133   5.140   2.407   0.333 -0.0292  0.2243 -1.0382
 9906TIP3    H251134   4.997   2.446   0.301  0.0851  0.9787 -0.6308
 9907TIP3   OH251135   3.486   4.994  16.345  0.4495 -0.3504  0.0259
 9907TIP3    H151136   3.398   4.982  16.382  1.4028 -3.2289  1.5041
 9907TIP3    H251137   3.472   4.990  16.250 -1.1829  0.6829  0.1881
 9908TIP3   OH251138   3.227   6.260  14.427  0.4413  0.0928 -0.1230
 9908TIP3    H151139   3.145   6.306  14.444  2.2050  3.0221  0.9012
 9908TIP3    H251140   3.243   6.208  14.506  0.5179  1.0251  0.4810
 9909TIP3   OH251141   3.062   2.838  13.754  0.1332 -0.1330  0.1745
 9909TIP3    H151142   3.031   2.766  13.699  0.5648 -0.9525  0.9866
 9909TIP3    H251143   3.136   2.801  13.803 -1.6781 -0.1146  3.0113
 9910TIP3   OH251144   4.570   6.116   2.622 -0.3504 -0.2082  0.3746
 9910TIP3    H151145   4.530   6.045   2.571 -0.1155 -0.7041  0.8796
 9910TIP3    H251146   4.495   6.165   2.658 -0.5046 -1.4392  1.7460
 9911TIP3   OH251147   5.431   3.336  12.186  0.0824 -0.0662  0.3468
 9911TIP3    H151148   5.492   3.343  12.113  0.9616  0.3364  1.1156
 9911TIP3    H251149   5.388   3.422  12.190  1.1511  0.4351  1.2710
 9912TIP3   OH251150   1.451   3.920  14.144  0.0305  0.2238  0.3775
 9912TIP3    H151151   1.414   3.924  14.056  0.4058  0.4152  0.2280
 9912TIP3    H251152   1.532   3.869  14.133 -0.1065 -0.0535  0.6724
 9913TIP3   OH251153   1.891   4.223   4.392  0.5144  0.2682  0.1334
 9913TIP3    H151154   1.896   4.189   4.303  0.2321  1.2027 -0.2380
 9913TIP3    H251155   1.979   4.257   4.409  0.0606  1.7253 -0.4392
 9914TIP3   OH251156   3.026   4.181  17.105 -0.0982  0.2347  0.6416
 9914TIP3    H151157   3.071   4.239  17.043  0.8203 -0.6488  0.4626
 9914TIP3    H251158   3.097   4.139  17.154 -0.7691 -0.2931  1.1754
 9915TIP3   OH251159   5.189   4.003   5.953 -0.2281  0.3758 -0.3741
 9915TIP3    H151160   5.263   4.013   5.893 -1.0515  1.8900 -1.1591
 9915TIP3    H251161   5.133   4.078   5.935 -1.9403 -0.7326  0.2536
 9916TIP3   OH251162   3.018   3.614  16.432 -0.3045 -0.1804 -0.3277
 9916TIP3    H151163   3.109   3.643  16.429 -0.3659  0.0353 -0.1106
 9916TIP3    H251164   3.013   3.545  16.366  0.1593 -0.6035  0.0724
 9917TIP3   OH251165   4.255   5.578  17.093  0.3613  0.0039 -0.0709
 9917TIP3    H151166   4.280   5.544  17.007 -1.2458 -2.5143  0.4070
 9917TIP3    H251167   4.195   5.512  17.129 -1.1171  2.2922  1.8678
 9918TIP3   OH251168   1.071   4.272  12.997 -0.3559 -0.3240 -0.0020
 9918TIP3    H151169   1.122   4.196  13.025  1.1456  0.7375  0.2273
 9918TIP3    H251170   0.984   4.238  12.979 -0.3327 -1.6995  2.3149
 9919TIP3   OH251171   6.574   6.466  15.673 -0.0747  0.0430 -0.7645
 9919TIP3    H151172   6.503   6.529  15.658  0.6475  0.7736 -1.1084
 9919TIP3    H251173   6.595   6.432  15.586 -0.3485 -0.5649 -0.5995
 9920TIP3   OH251174   2.682   1.340   4.852 -0.0700  0.4182  0.1181
 9920TIP3    H151175   2.633   1.298   4.781 -0.3237  0.1770  0.4348
 9920TIP3    H251176   2.668   1.283   4.928  1.7334 -0.3476 -0.0849
 9921TIP3   OH251177   0.091   4.565   1.752 -0.1277  0.1089 -0.3879
 9921TIP3    H151178   0.037   4.495   1.715  2.1403 -1.2064 -1.2910
 9921TIP3    H251179   0.132   4.606   1.676  0.4292  0.8674  0.3143
 9922TIP3   OH251180   2.205   0.120   1.283 -0.0781 -0.5563 -0.2125
 9922TIP3    H151181   2.142   0.102   1.214 -0.0515 -0.6946 -0.2019
 9922TIP3    H251182   2.219   0.215   1.279 -1.3642 -0.3066  0.7156
 9923TIP3   OH251183   4.843   2.618   5.223 -0.6262  0.9077 -0.0907
 9923TIP3    H151184   4.844   2.569   5.305 -0.9958 -0.6470 -0.9936
 9923TIP3    H251185   4.926   2.667   5.223 -0.2808  0.3328  0.8540
 9924TIP3   OH251186   0.981   1.250  15.061 -0.3888  0.3110 -0.2287
 9924TIP3    H151187   1.039   1.179  15.088  0.0704  1.1198  0.9745
 9924TIP3    H251188   1.020   1.285  14.982  0.8059  0.8809  0.6029
 9925TIP3   OH251189   2.711   4.615   0.829 -0.5766 -0.0098  0.8664
 9925TIP3    H151190   2.784   4.625   0.890 -0.3660 -0.7449  0.7341
 9925TIP3    H251191   2.747   4.565   0.756 -1.4368 -1.1256  1.1991
 9926TIP3   OH251192   6.150   1.043   0.711  0.4313 -0.8874  1.0984
 9926TIP3    H151193   6.243   1.024   0.717  0.2961 -1.9800 -0.0467
 9926TIP3    H251194   6.108   0.957   0.713 -0.4972 -0.4502  0.7699
 9927TIP3   OH251195   1.988   0.933  15.072  0.2154  0.3985  0.2269
 9927TIP3    H151196   1.993   0.841  15.097  1.2184  0.6437  0.9432
 9927TIP3    H251197   2.003   0.933  14.977  0.7588 -0.1316  0.3097
 9928TIP3   OH251198   6.051   2.495   2.107  0.1994 -0.2359 -0.4154
 9928TIP3    H151199   5.977   2.492   2.167 -0.4174  1.9270 -1.0594
 9928TIP3    H251200   6.012   2.499   2.020  1.0843 -0.0064 -0.8053
 9929TIP3   OH251201   1.583   0.003  11.665 -0.0697 -0.0151 -0.2188
 9929TIP3    H151202   1.514  -0.064  11.658 -2.5778  2.4478  0.0206
 9929TIP3    H251203   1.537   0.086  11.653  2.9406  1.7109 -0.3180
 9930TIP3   OH251204   3.875   3.969   2.418 -0.7210 -0.6349  0.2356
 9930TIP3    H151205   3.834   3.980   2.332 -1.5354 -3.6519  0.1776
 9930TIP3    H251206   3.964   3.940   2.399 -0.6259 -0.4511  0.3992
 9931TIP3   OH251207   0.149   5.875  12.303  0.4341  0.0433 -0.5063
 9931TIP3    H151208   0.076   5.814  12.295  0.3291  0.1897 -0.6722
 9931TIP3    H251209   0.192   5.850  12.385 -1.7736  2.0533  1.3628
 9932TIP3   OH251210   5.547   4.175  16.810 -0.1094  0.0619 -0.1196
 9932TIP3    H151211   5.546   4.081  16.793  1.2898  0.2518 -1.4040
 9932TIP3    H251212   5.640   4.196  16.821 -0.3860  1.3357 -0.1299
 9933TIP3   OH251213   3.890   3.285   5.867  0.1863  0.2011 -0.2248
 9933TIP3    H151214   3.904   3.264   5.959 -2.7510  0.9471  0.4688
 9933TIP3    H251215   3.900   3.380   5.862  1.8587 -0.0094 -0.9920
 9934TIP3   OH251216   1.824   5.384  14.479 -0.0980 -0.1074 -1.0101
 9934TIP3    H151217   1.892   5.374  14.413  0.8112  0.2413 -0.1332
 9934TIP3    H251218   1.765   5.451  14.444  2.0838  2.3798 -0.0728
 9935TIP3   OH251219   0.325   3.990   1.072  0.2624 -0.5376 -0.1698
 9935TIP3    H151220   0.300   3.955   1.158 -0.6585  0.8102  0.1222
 9935TIP3    H251221   0.311   3.917   1.012  2.8795 -2.1597  1.0884
 9936TIP3   OH251222   2.583   1.726  12.462  0.2801 -0.1867  0.3740
 9936TIP3    H151223   2.489   1.731  12.447  0.4183 -2.0569 -1.4145
 9936TIP3    H251224   2.622   1.764  12.383  1.0285  0.3745  1.0094
 9937TIP3   OH251225   6.356   1.265  14.693  0.0175 -0.5274 -0.8523
 9937TIP3    H151226   6.273   1.261  14.740  0.5374  2.0761  0.3452
 9937TIP3    H251227   6.411   1.201  14.737 -0.0689  0.6237  0.9967
 9938TIP3   OH251228   4.374   4.791   3.332  0.4999 -0.2491  0.9974
 9938TIP3    H151229   4.425   4.756   3.405  0.4510 -1.5473  0.4266
 9938TIP3    H251230   4.338   4.873   3.365  1.1594 -0.4082  2.1475
 9939TIP3   OH251231   2.210   2.133   5.754  0.2594  0.1602  0.5388
 9939TIP3    H151232   2.168   2.060   5.710 -0.2377 -1.0051  2.8580
 9939TIP3    H251233   2.245   2.096   5.835  2.2906  1.9486  0.5432
 9940TIP3   OH251234   2.010   6.514  13.800  0.2855  0.3413 -0.0310
 9940TIP3    H151235   2.043   6.444  13.857  3.3863  0.6119 -1.3840
 9940TIP3    H251236   2.007   6.474  13.713  2.8953  2.0520 -0.9742
 9941TIP3   OH251237   6.738   4.778  13.368 -0.2044 -0.1515 -0.1141
 9941TIP3    H151238   6.777   4.865  13.367  0.8783 -0.6267  0.5889
 9941TIP3    H251239   6.651   4.791  13.406  0.0700  0.5658  0.2720
 9942TIP3   OH251240   0.114   4.723  14.190  0.0874 -0.6735 -0.4222
 9942TIP3    H151241   0.026   4.758  14.171  0.0368 -0.0223  0.9965
 9942TIP3    H251242   0.107   4.687  14.278  0.7757 -2.2624 -0.9913
 9943TIP3   OH251243   1.555   0.480  12.942 -0.4233  0.3373  0.3825
 9943TIP3    H151244   1.545   0.385  12.941  0.7392  0.2001 -2.0983
 9943TIP3    H251245   1.533   0.507  12.853 -1.1751  2.4526  1.1868
 9944TIP3   OH251246   5.032   4.782   5.807  0.2220 -0.0472 -0.7215
 9944TIP3    H151247   5.032   4.690   5.784 -0.6467 -0.3034  0.2501
 9944TIP3    H251248   5.092   4.788   5.882  1.0735  0.3510 -1.4266
 9945TIP3   OH251249   5.934   4.473  15.650 -0.2118  0.6009 -0.9796
 9945TIP3    H151250   5.849   4.430  15.644 -0.2920  0.8938 -1.9190
 9945TIP3    H251251   5.942   4.497  15.743 -0.4122 -0.9155 -0.5520
 9946TIP3   OH251252   5.042   2.398  13.850 -0.0773  0.0788  0.6753
 9946TIP3    H151253   5.063   2.375  13.941 -1.9749 -0.4592  0.9918
 9946TIP3    H251254   4.988   2.326  13.818 -0.9937  1.1538 -0.2697
 9947TIP3   OH251255   6.586   2.531  11.671  0.3364  0.2786  0.2772
 9947TIP3    H151256   6.585   2.466  11.601 -0.2519 -0.9331  1.4009
 9947TIP3    H251257   6.512   2.588  11.651  0.4030  0.1625 -0.3020
 9948TIP3   OH251258   5.702   2.514  14.943 -0.0154 -0.1026 -0.2895
 9948TIP3    H151259   5.774   2.532  14.883 -0.4955  1.3140 -0.4659
 9948TIP3    H251260   5.677   2.423  14.924  0.9247 -0.2059 -1.0646
 9949TIP3   OH251261   4.844   0.580  10.385  0.2820  0.0121 -0.2244
 9949TIP3    H151262   4.814   0.670  10.393 -1.0019 -0.2504 -1.8386
 9949TIP3    H251263   4.764   0.527  10.387  1.1503 -1.3259  3.1523
 9950TIP3   OH251264   5.528   2.859   4.140 -0.3013  0.1637 -0.7036
 9950TIP3    H151265   5.574   2.938   4.170  0.7341 -0.8035  0.3204
 9950TIP3    H251266   5.531   2.864   4.045  2.4372 -0.1204 -0.6952
 9951TIP3   OH251267   2.075   1.884  16.190 -0.5306 -0.1933  0.1409
 9951TIP3    H151268   2.132   1.854  16.119  0.1193  0.8617  0.2212
 9951TIP3    H251269   2.105   1.836  16.267 -0.3453 -0.3145 -0.0046
 9952TIP3   OH251270   4.024   5.369   2.723 -0.1935 -0.6317  0.6203
 9952TIP3    H151271   3.948   5.382   2.780 -1.4444 -0.8646 -0.9377
 9952TIP3    H251272   4.042   5.275   2.730 -0.7989 -0.7905  0.0830
 9953TIP3   OH251273   3.340   2.555   5.235  0.0365  0.8359 -0.5283
 9953TIP3    H151274   3.432   2.554   5.258 -0.0307  1.8862 -0.1972
 9953TIP3    H251275   3.314   2.463   5.237  1.2530  0.4629 -1.3819
 9954TIP3   OH251276   1.593   4.231  15.190 -0.0083  0.7332  0.4115
 9954TIP3    H151277   1.677   4.199  15.158 -0.0825  0.6188  0.3313
 9954TIP3    H251278   1.595   4.325  15.174 -1.6287  0.1993 -3.5809
 9955TIP3   OH251279   4.558   1.604   2.093  0.3035  0.0741 -0.3530
 9955TIP3    H151280   4.638   1.596   2.040  1.9777 -0.7866  2.2283
 9955TIP3    H251281   4.552   1.521   2.140  0.6372  1.9987  3.2286
 9956TIP3   OH251282   0.742   3.220   3.725  0.1702  0.0472  0.1718
 9956TIP3    H151283   0.802   3.292   3.708  1.6336 -1.1256  0.2626
 9956TIP3    H251284   0.732   3.176   3.640 -0.1274 -0.0951  0.2762
 9957TIP3   OH251285   4.081   1.480  14.135 -0.2280 -0.2376 -0.0384
 9957TIP3    H151286   4.173   1.480  14.162 -0.0541 -1.9258 -0.5978
 9957TIP3    H251287   4.078   1.542  14.062  0.8705 -1.5967 -1.2756
 9958TIP3   OH251288   2.260   3.758   3.706  0.8834 -0.5771  0.6901
 9958TIP3    H151289   2.341   3.751   3.656  0.1001 -2.2864 -0.3607
 9958TIP3    H251290   2.226   3.669   3.711 -0.4916 -0.0164  1.8755
 9959TIP3   OH251291   6.375   2.938   5.362 -0.7187 -0.6035  0.9529
 9959TIP3    H151292   6.444   2.991   5.403 -0.0516 -1.0736  0.4348
 9959TIP3    H251293   6.313   3.003   5.328 -0.1254 -0.1571  0.7019
 9960TIP3   OH251294   4.314   5.449   2.742  0.2234  0.5377  0.2279
 9960TIP3    H151295   4.353   5.375   2.789 -0.0604  0.2189 -0.0367
 9960TIP3    H251296   4.227   5.419   2.718 -0.3711  1.4286  1.2466
 9961TIP3   OH251297   1.410   2.608  14.668  0.7935  0.3509 -0.4045
 9961TIP3    H151298   1.424   2.699  14.697  1.2412  0.4508 -0.9180
 9961TIP3    H251299   1.322   2.587  14.697  1.6521  0.0239  2.1617
 9962TIP3   OH251300   3.619   6.748   1.494 -0.0663 -0.4445 -0.0721
 9962TIP3    H151301   3.532   6.708   1.502 -0.3793  0.2288 -0.1623
 9962TIP3    H251302   3.648   6.759   1.585 -0.2359 -0.3011 -0.0362
 9963TIP3   OH251303   0.175   3.613  13.550 -0.0633 -0.4779 -0.0462
 9963TIP3    H151304   0.150   3.705  13.546  0.2701 -0.3374  0.7765
 9963TIP3    H251305   0.262   3.615  13.591 -0.1373 -1.1695  0.1429
 9964TIP3   OH251306   4.919   6.551  16.417 -0.1689  0.4094  0.7016
 9964TIP3    H151307   4.946   6.470  16.460 -0.1973  0.1746  0.2811
 9964TIP3    H251308   4.841   6.527  16.366  1.5450 -0.0252 -1.8267
 9965TIP3   OH251309   6.248   2.661   3.894 -0.5982 -0.7142  0.1955
 9965TIP3    H151310   6.240   2.568   3.917 -1.7474 -0.7687 -0.4018
 9965TIP3    H251311   6.304   2.698   3.963  1.3626 -2.1988 -0.5388
 9966TIP3   OH251312   2.226   2.602  14.018 -0.1458 -0.0266  0.3340
 9966TIP3    H151313   2.207   2.516  14.054 -0.5123 -0.7076 -1.4560
 9966TIP3    H251314   2.144   2.651  14.028 -1.8581 -1.7840 -3.9711
 9967TIP3   OH251315   1.054   2.866  16.907  0.3477  0.9437 -0.2773
 9967TIP3    H151316   1.042   2.830  16.995 -0.4127 -0.3193 -0.8884
 9967TIP3    H251317   1.143   2.842  16.883  0.7304  1.7251  0.3380
 9968TIP3   OH251318   2.826   4.913  12.572  0.4528  0.1629 -0.0897
 9968TIP3    H151319   2.818   4.838  12.511  0.6073  0.7201 -0.8042
 9968TIP3    H251320   2.748   4.966  12.554  1.0173  0.8530 -0.5265
 9969TIP3   OH251321   3.418   2.510  12.148 -0.2331  0.1403  0.4370
 9969TIP3    H151322   3.332   2.550  12.138  0.0201  0.4864 -0.3897
 9969TIP3    H251323   3.436   2.470  12.063 -0.3971 -1.5656  1.1916
 9970TIP3   OH251324   0.938   6.110  13.119 -0.3347  0.5550 -1.0285
 9970TIP3    H151325   0.970   6.142  13.203 -1.1388  0.1891 -0.5706
 9970TIP3    H251326   0.935   6.188  13.064 -1.1814  1.0722 -0.2720
 9971TIP3   OH251327   3.374   4.939   1.568 -0.5446 -0.5490  0.0859
 9971TIP3    H151328   3.289   4.898   1.580 -0.6070 -0.3531  0.3132
 9971TIP3    H251329   3.356   5.019   1.519 -0.5320 -0.3383  0.4237
 9972TIP3   OH251330   0.434   3.958  12.323 -0.6722 -0.3956  0.0055
 9972TIP3    H151331   0.362   3.895  12.327 -2.3105  1.4947  1.4573
 9972TIP3    H251332   0.416   4.020  12.394  1.5643  0.9925 -0.5847
 9973TIP3   OH251333   0.893   6.406   3.479  0.5125  0.3102 -0.2419
 9973TIP3    H151334   0.812   6.438   3.518  1.0458 -0.9912  2.0743
 9973TIP3    H251335   0.950   6.483   3.475  0.4488  0.4969  1.6625
 9974TIP3   OH251336   4.428   2.043   3.185  0.3961 -0.1826 -0.4678
 9974TIP3    H151337   4.440   2.071   3.275  1.4448  0.8935 -0.9266
 9974TIP3    H251338   4.351   2.091   3.154 -1.4270 -2.3397  0.5500
 9975TIP3   OH251339   6.608   5.754  14.732  0.2408  0.5682  0.0251
 9975TIP3    H151340   6.641   5.687  14.672 -0.9866 -0.2308  0.2304
 9975TIP3    H251341   6.520   5.774  14.700  0.6384  2.1788 -0.1054
 9976TIP3   OH251342   4.493   4.830   5.658 -0.0552 -0.7947  0.4546
 9976TIP3    H151343   4.479   4.787   5.574 -0.4725 -0.6983  0.4788
 9976TIP3    H251344   4.482   4.760   5.723  0.2351 -0.8616  0.4362
 9977TIP3   OH251345   5.593   2.025  12.878 -0.3263 -0.4230 -0.1022
 9977TIP3    H151346   5.560   1.938  12.900  2.4977 -1.3232  0.8220
 9977TIP3    H251347   5.687   2.020  12.895 -0.2943  3.2055  1.1554
 9978TIP3   OH251348   2.949   2.892   1.415 -0.4584 -0.2052 -0.3059
 9978TIP3    H151349   2.866   2.918   1.376 -0.0345  0.5061 -0.7304
 9978TIP3    H251350   2.923   2.845   1.495 -1.2743 -0.2768 -0.6029
 9979TIP3   OH251351   6.574   0.405  15.718 -0.1781 -0.0665 -0.2353
 9979TIP3    H151352   6.482   0.396  15.745 -0.3428  0.6708 -0.5298
 9979TIP3    H251353   6.599   0.317  15.690 -0.5346 -0.4518  0.6482
 9980TIP3   OH251354   1.843   4.719   0.956 -0.2464  0.2319 -0.1108
 9980TIP3    H151355   1.847   4.719   1.052 -0.0044 -0.3220 -0.1174
 9980TIP3    H251356   1.778   4.786   0.935  1.2101  1.8691  0.3788
 9981TIP3   OH251357   5.826   1.341   0.125  0.4056  0.1028  0.3820
 9981TIP3    H151358   5.902   1.324   0.179  0.5534 -1.0141 -0.1558
 9981TIP3    H251359   5.811   1.259   0.078  0.8343  1.2963 -1.9476
 9982TIP3   OH251360   4.603   5.125   5.241  0.2713  0.6633  0.5282
 9982TIP3    H151361   4.613   5.042   5.288 -1.5496 -0.6936 -1.3557
 9982TIP3    H251362   4.602   5.100   5.149 -1.6620  2.6018 -0.0187
 9983TIP3   OH251363   6.451   0.929   4.186  0.4124 -0.3481  0.6418
 9983TIP3    H151364   6.503   0.991   4.135 -1.3818  0.3554 -0.3824
 9983TIP3    H251365   6.454   0.848   4.135 -2.0336  0.5747 -1.0734
 9984TIP3   OH251366   0.255   2.970   5.219 -0.4814  0.2892 -0.1045
 9984TIP3    H151367   0.292   3.054   5.247  0.0195 -0.4460  1.5516
 9984TIP3    H251368   0.161   2.982   5.224 -0.4158  0.3281  1.6280
 9985TIP3   OH251369   3.974   2.136   5.844 -0.7028 -0.6376 -0.7063
 9985TIP3    H151370   3.922   2.203   5.798  0.8658  0.2905 -1.1837
 9985TIP3    H251371   4.057   2.135   5.797  1.0997  0.6033  2.3488
 9986TIP3   OH251372   5.219   4.375  10.873 -0.4075 -0.4755 -0.2708
 9986TIP3    H151373   5.212   4.322  10.953 -2.5687 -0.0064 -0.1091
 9986TIP3    H251374   5.172   4.456  10.894  1.1435  0.6876 -1.1880
 9987TIP3   OH251375   3.424   2.273   2.995 -0.3199  0.8109 -0.3838
 9987TIP3    H151376   3.336   2.312   2.999 -1.0026 -0.5898 -1.2406
 9987TIP3    H251377   3.444   2.268   2.902  0.2489  0.1989 -0.2295
 9988TIP3   OH251378   3.819   1.130  14.985  0.3156  1.0217 -0.3512
 9988TIP3    H151379   3.855   1.070  14.920 -0.9510 -0.0730 -0.0595
 9988TIP3    H251380   3.743   1.169  14.943  0.4020  1.4980 -0.0817
 9989TIP3   OH251381   4.010   4.178  14.982  0.3949 -0.1839  0.4200
 9989TIP3    H151382   4.002   4.180  15.078  2.5432  1.4341  0.5819
 9989TIP3    H251383   4.036   4.267  14.958  4.1648 -1.6492 -1.2558
 9990TIP3   OH251384   4.134   2.818  13.681  0.3205  0.2429  0.5819
 9990TIP3    H151385   4.097   2.856  13.760  1.8240 -0.4057  1.6074
 9990TIP3    H251386   4.229   2.824  13.693  0.5703 -1.0690 -0.5740
 9991TIP3   OH251387   5.600   6.173   2.618 -0.2961  0.1642 -0.4959
 9991TIP3    H151388   5.555   6.228   2.682  0.6119 -0.3166  0.5696
 9991TIP3    H251389   5.589   6.084   2.651  0.2352 -0.0805 -0.9766
 9992TIP3   OH251390   6.137   1.410   2.835  0.1407  0.0591 -0.0075
 9992TIP3    H151391   6.189   1.341   2.876  0.2871  0.0025 -0.2855
 9992TIP3    H251392   6.147   1.485   2.893  0.8840  0.1776 -0.2796
 9993TIP3   OH251393   2.317   6.732   5.314  0.3057 -0.3440 -0.1296
 9993TIP3    H151394   2.302   6.643   5.281  1.5713 -1.1371  1.4124
 9993TIP3    H251395   2.243   6.749   5.373  0.7702 -0.8774  0.6048
 9994TIP3   OH251396   0.499   2.477  16.777  0.1350  0.2089  0.3044
 9994TIP3    H151397   0.472   2.408  16.837 -0.3651  0.4906  0.4077
 9994TIP3    H251398   0.519   2.432  16.695  0.2508 -0.1102  0.5106
 9995TIP3   OH251399   2.406   6.131   5.265  0.1570 -0.2981 -0.2651
 9995TIP3    H151400   2.336   6.112   5.328 -0.3305 -1.3269 -1.0980
 9995TIP3    H251401   2.449   6.047   5.251 -0.4785 -0.3239 -2.1731
 9996TIP3   OH251402   3.384   6.307  13.218 -0.0217  0.5276 -0.1363
 9996TIP3    H151403   3.444   6.352  13.276 -0.9959 -2.6761  3.5308
 9996TIP3    H251404   3.421   6.220  13.207 -1.6966 -0.0497 -1.4816
 9997TIP3   OH251405   5.632   1.775  15.811  0.3700  0.0281  0.7395
 9997TIP3    H151406   5.596   1.766  15.899 -1.8247 -0.3831 -0.1641
 9997TIP3    H251407   5.625   1.868  15.792 -1.4268 -0.2204  0.0977
 9998TIP3   OH251408   3.970   0.716   0.456  0.8039 -0.1951  0.5572
 9998TIP3    H151409   3.894   0.701   0.401  1.5382  1.3652 -0.9056
 9998TIP3    H251410   4.035   0.653   0.424  2.1811  2.5319 -2.2856
 9999TIP3   OH251411   3.079   5.087  12.116 -0.0672  0.2725  0.6777
 9999TIP3    H151412   3.159   5.140  12.114 -1.3160  2.2328  1.0970
 9999TIP3    H251413   3.026   5.127  12.185 -3.1109  1.5565 -2.2460
10000TIP3   OH251414   3.860   2.776  14.315  0.1864  0.3725 -0.3095
10000TIP3    H151415   3.877   2.866  14.288  0.6359 -0.5592 -3.3161
10000TIP3    H251416   3.788   2.783  14.379 -1.8238  2.6287 -2.7130
10001TIP3   OH251417   1.382   4.564   0.076 -0.3426 -0.2085  0.4728
10001TIP3    H151418   1.415   4.486   0.121  0.9159  1.1695  1.9893
10001TIP3    H251419   1.419   4.558  -0.012  0.4941 -0.8516  0.8576
10002TIP3   OH251420   4.217   0.861   2.856 -0.9804 -0.5838  0.3455
10002TIP3    H151421   4.129   0.823   2.858 -1.0418 -0.3933  1.5115
10002TIP3    H251422   4.258   0.831   2.938 -0.0215 -0.5331 -0.1088
10003TIP3   OH251423   2.064   1.797  16.891 -0.0097  0.1406 -0.0880
10003TIP3    H151424   2.115   1.767  16.966 -0.2077  0.8106  0.3104
10003TIP3    H251425   2.050   1.890  16.906 -1.1549  0.0097 -0.3173
10004TIP3   OH251426   2.161   6.527   1.017 -0.7251  0.1087  0.6264
10004TIP3    H151427   2.191   6.442   0.984  1.9123  0.8688  0.9610
10004TIP3    H251428   2.067   6.529   0.998 -0.4923 -2.1890 -0.8649
10005TIP3   OH251429   0.403   3.374  12.309 -0.8054  0.0351  0.3991
10005TIP3    H151430   0.495   3.361  12.335 -1.6025 -1.5211  2.6120
10005TIP3    H251431   0.398   3.338  12.221  1.0465  1.5264 -0.3591
10006TIP3   OH251432   2.665   3.826  14.841  0.3475  0.5379  0.3171
10006TIP3    H151433   2.631   3.769  14.911 -1.7607 -0.1596 -1.2177
10006TIP3    H251434   2.746   3.785  14.813  0.2391 -0.2110  1.0926
10007TIP3   OH251435   3.869   6.234   6.462  0.7156 -0.2119  0.5120
10007TIP3    H151436   3.937   6.223   6.397  0.2240 -1.7578  0.2307
10007TIP3    H251437   3.807   6.162   6.445 -1.8683  2.1386 -0.3365
10008TIP3   OH251438   3.318   3.908   6.025  0.5440 -0.1181  0.0975
10008TIP3    H151439   3.273   3.983   5.987  1.0506  0.6469  0.9961
10008TIP3    H251440   3.248   3.856   6.066  0.1407 -0.3829 -0.9194
10009TIP3   OH251441   4.208   5.235   0.667 -0.4560  0.1330  0.3084
10009TIP3    H151442   4.235   5.144   0.670  1.7742  0.8118  1.8684
10009TIP3    H251443   4.159   5.249   0.749 -1.8399  0.0403 -0.4876
10010TIP3   OH251444   4.275   1.257   5.159  0.1799  0.1895  0.4151
10010TIP3    H151445   4.284   1.289   5.249 -0.4793  0.7785  0.2799
10010TIP3    H251446   4.317   1.325   5.106 -0.6882  0.5446  0.1704
10011TIP3   OH251447   2.427   3.987  11.157 -0.0376  0.1864 -0.4930
10011TIP3    H151448   2.377   4.068  11.165 -0.5695 -0.1696 -0.1601
10011TIP3    H251449   2.413   3.959  11.067  0.2429  0.5266 -0.6420
10012TIP3   OH251450   2.411   4.019  16.693  0.1799  0.4683 -0.3468
10012TIP3    H151451   2.345   3.999  16.627  1.3847  0.2103 -1.4896
10012TIP3    H251452   2.492   4.031  16.644  1.2648 -0.5094  1.1594
10013TIP3   OH251453   6.700   0.282   2.016  0.1729 -0.2439  0.0213
10013TIP3    H151454   6.793   0.302   2.012  0.7657 -3.2354 -3.0375
10013TIP3    H251455   6.657   0.355   1.971  1.2738 -0.2402 -1.0224
10014TIP3   OH251456   2.161   4.560   2.612  0.6425  0.6081  0.6624
10014TIP3    H151457   2.114   4.557   2.528  0.1848  0.2318  0.9315
10014TIP3    H251458   2.248   4.526   2.590  0.7929  1.3024  0.1660
10015TIP3   OH251459   6.361   3.837  15.393 -0.4865  0.0707  0.1127
10015TIP3    H151460   6.411   3.881  15.323 -0.3900 -1.9733 -1.1613
10015TIP3    H251461   6.272   3.829  15.358 -0.6379 -0.2197  0.5596
10016TIP3   OH251462   0.094   0.845   3.461 -0.1937  0.4239 -0.1880
10016TIP3    H151463   0.086   0.861   3.367 -3.0286  1.2651  0.1672
10016TIP3    H251464   0.150   0.915   3.493  1.5481 -0.3924 -1.3753
10017TIP3   OH251465   3.539   2.035  15.525  0.2629  0.4235 -0.5968
10017TIP3    H151466   3.573   2.120  15.497  1.7874 -0.4900 -1.6269
10017TIP3    H251467   3.511   1.993  15.443  0.7639 -0.5766 -0.2691
10018TIP3   OH251468   1.662   3.800  11.729 -0.3295  0.1059  0.2634
10018TIP3    H151469   1.666   3.860  11.654 -2.1235 -2.7155 -2.2142
10018TIP3    H251470   1.751   3.764  11.734 -0.1582  0.4045 -0.4465
10019TIP3   OH251471   3.143   0.038   0.696 -0.0369  0.0357  0.3407
10019TIP3    H151472   3.088   0.106   0.734  1.4056  1.0262  0.7105
10019TIP3    H251473   3.104  -0.044   0.725 -2.3141  0.6683 -0.8137
10020TIP3   OH251474   1.517   6.130  13.623 -0.2161 -0.6549  0.4302
10020TIP3    H151475   1.442   6.189  13.618  1.2820  1.3635  1.2590
10020TIP3    H251476   1.522   6.105  13.715  0.6500 -0.0685  0.5505
10021TIP3   OH251477   5.577   4.391   2.626  0.3294  0.4943  0.1922
10021TIP3    H151478   5.569   4.298   2.646  1.3312  0.2783 -0.3811
10021TIP3    H251479   5.622   4.428   2.702 -2.1071  0.9378  1.4590
10022TIP3   OH251480   3.282   0.542  16.173  0.1176  0.2078  0.1146
10022TIP3    H151481   3.272   0.636  16.158  0.3815  0.5848  2.2193
10022TIP3    H251482   3.370   0.533  16.208  0.6927 -1.0350 -1.6077
10023TIP3   OH251483   1.357   3.380   3.963  0.1492  0.0332 -0.1031
10023TIP3    H151484   1.432   3.438   3.975 -1.3319  2.3094 -1.4772
10023TIP3    H251485   1.281   3.432   3.988 -1.3781 -0.7038 -2.9731
10024TIP3   OH251486   5.624   2.130   4.244 -0.2753  0.3098  0.1212
10024TIP3    H151487   5.629   2.224   4.265 -1.6365  0.0041  1.9849
10024TIP3    H251488   5.656   2.087   4.323  0.9804 -0.7979 -0.9824
10025TIP3   OH251489   1.491   0.284   6.079  0.3463 -0.2519 -0.1598
10025TIP3    H151490   1.581   0.257   6.097  0.7296  2.0349  1.6487
10025TIP3    H251491   1.438   0.238   6.145 -0.2671 -3.7779 -2.9290
10026TIP3   OH251492   6.028   6.700  17.128  0.2735 -0.0935 -0.3810
10026TIP3    H151493   5.973   6.760  17.179 -1.0011 -1.5250 -0.0732
10026TIP3    H251494   6.002   6.715  17.038  0.2253  0.0792 -0.3407
10027TIP3   OH251495   5.302   5.472   4.372 -0.2908 -0.6230 -0.5935
10027TIP3    H151496   5.249   5.437   4.443  0.6659 -1.8408 -0.4538
10027TIP3    H251497   5.319   5.563   4.396 -0.3901 -0.8916  0.4894
10028TIP3   OH251498   6.272   0.841   1.941  0.9407  0.1750 -0.1959
10028TIP3    H151499   6.354   0.814   1.983  1.3809  0.9647 -0.5290
10028TIP3    H251500   6.297   0.858   1.850  0.4109  0.4575 -0.2853
10029TIP3   OH251501   5.100   5.266  14.432 -0.0262 -0.0236 -0.1467
10029TIP3    H151502   5.075   5.248  14.342 -1.2136 -1.2891  0.4041
10029TIP3    H251503   5.151   5.347  14.428  1.4136 -0.9888 -2.1549
10030TIP3   OH251504   3.242   3.197  12.586  0.0024 -0.2605 -0.6632
10030TIP3    H151505   3.195   3.114  12.571 -0.4580 -0.2225  0.5726
10030TIP3    H251506   3.294   3.181  12.664  1.4875 -0.0410 -1.5845
10031TIP3   OH251507   1.176   3.081  15.860 -0.0981  0.1149  0.0196
10031TIP3    H151508   1.081   3.090  15.845 -0.0717  0.0996 -0.1546
10031TIP3    H251509   1.208   3.035  15.783  0.1380  0.5970 -0.1713
10032TIP3   OH251510   1.610   0.095   6.377 -0.6522 -0.5685 -0.0777
10032TIP3    H151511   1.685   0.102   6.436 -0.6829  0.0350 -0.1021
10032TIP3    H251512   1.637   0.032   6.311  0.7686  1.3970 -1.4480
10033TIP3   OH251513   3.362   0.048   5.897  0.0477  0.0733 -0.6680
10033TIP3    H151514   3.406   0.071   5.815  2.8251 -1.7188  0.2673
10033TIP3    H251515   3.422   0.075   5.966 -0.1280 -2.6225  0.6283
10034TIP3   OH251516   0.994   3.195   2.568 -0.4131 -0.2096  0.1156
10034TIP3    H151517   0.944   3.266   2.610  0.8499  0.2433  0.9014
10034TIP3    H251518   1.054   3.240   2.509  2.4919 -0.3577  2.8182
10035TIP3   OH251519   1.545   3.861   3.324 -0.4728  0.4155 -0.0884
10035TIP3    H151520   1.503   3.848   3.410 -1.5045 -0.8377 -0.7688
10035TIP3    H251521   1.576   3.774   3.298  1.1286  1.0469 -0.3475
10036TIP3   OH251522   5.791   4.672   1.369 -0.1298  0.4911 -0.5125
10036TIP3    H151523   5.790   4.603   1.303 -2.1808  0.5056 -0.5354
10036TIP3    H251524   5.750   4.747   1.326 -2.9049  0.0320  1.2266
10037TIP3   OH251525   4.904   3.176   6.495 -0.0184 -0.1777 -0.0290
10037TIP3    H151526   4.830   3.180   6.435 -0.4306 -0.4344  0.4515
10037TIP3    H251527   4.885   3.244   6.561 -0.5796 -1.2233  0.9187
10038TIP3   OH251528   6.009   4.050  16.541  0.0669  0.2674 -0.4296
10038TIP3    H151529   6.070   4.115  16.575 -0.5571  0.3149  0.6180
10038TIP3    H251530   5.997   4.075  16.449  1.8278  0.0881 -0.7332
10039TIP3   OH251531   6.075   1.287  10.682 -0.1229 -0.2428 -0.0109
10039TIP3    H151532   6.017   1.213  10.697  1.6508 -1.6213  0.2920
10039TIP3    H251533   6.153   1.248  10.641  0.7245  1.4919 -0.0898
10040TIP3   OH251534   2.836   4.521   1.447  0.2372 -0.4071 -0.2333
10040TIP3    H151535   2.764   4.476   1.402  0.2643 -1.9910  1.2571
10040TIP3    H251536   2.794   4.597   1.489 -0.2351 -0.3311 -0.8336
10041TIP3   OH251537   0.043   0.686   0.766  0.3474 -0.1245  0.1382
10041TIP3    H151538   0.095   0.753   0.722  0.5630 -1.3439 -1.4994
10041TIP3    H251539   0.079   0.603   0.735 -2.2145 -1.0028 -0.6312
10042TIP3   OH251540   5.183   4.073  13.531  0.3091 -0.2074  0.1443
10042TIP3    H151541   5.091   4.061  13.506  0.6049 -0.9239 -0.6382
10042TIP3    H251542   5.231   4.011  13.475  1.2539  0.0797  0.6317
10043TIP3   OH251543   2.673   1.946  12.896  0.4719  0.0431 -0.6139
10043TIP3    H151544   2.717   1.907  12.820 -0.6755  1.5979 -2.0878
10043TIP3    H251545   2.642   2.031  12.866 -2.4485 -0.4585  0.7647
10044TIP3   OH251546   6.262   4.196  15.426 -0.1261 -0.1955 -1.1212
10044TIP3    H151547   6.183   4.250  15.427  1.4546  2.2482 -1.7344
10044TIP3    H251548   6.292   4.195  15.517 -1.3858 -1.9857 -0.7038
10045TIP3   OH251549   0.432   5.727  17.224  0.2776  0.1409  0.1129
10045TIP3    H151550   0.485   5.790  17.273 -0.3340  1.2716 -0.6423
10045TIP3    H251551   0.426   5.765  17.136  1.5999 -2.0103 -0.9310
10046TIP3   OH251552   2.306   5.956  16.309  0.2838 -0.4598  0.0981
10046TIP3    H151553   2.392   5.915  16.306  0.9141  0.8771 -0.3806
10046TIP3    H251554   2.257   5.906  16.375  1.4169 -1.2311  0.3492
10047TIP3   OH251555   1.469   0.442  16.192 -0.3981  0.6335 -0.3481
10047TIP3    H151556   1.541   0.396  16.147  0.1303 -1.2632  2.2756
10047TIP3    H251557   1.507   0.525  16.219  0.9649 -0.4801  1.2849
10048TIP3   OH251558   4.879   0.924  14.926 -0.2201  0.6277  0.5874
10048TIP3    H151559   4.911   1.006  14.890 -3.1217  1.9380  0.8232
10048TIP3    H251560   4.915   0.921  15.015 -0.2508  1.7690  0.6489
10049TIP3   OH251561   6.444   0.161  12.961  0.2547  0.1056 -0.3726
10049TIP3    H151562   6.404   0.074  12.956  1.6088 -0.5607  0.0173
10049TIP3    H251563   6.415   0.196  13.045  1.3706 -0.8385  0.4296
10050TIP3   OH251564   2.585   3.887  15.804  0.0052 -0.4640 -0.1453
10050TIP3    H151565   2.604   3.800  15.768  0.0714 -0.4579 -0.1248
10050TIP3    H251566   2.658   3.941  15.775  0.0106 -0.4370 -0.0796
10051TIP3   OH251567   1.967   5.391   3.203  0.0497  0.4552 -0.2027
10051TIP3    H151568   2.018   5.384   3.123 -2.1899  2.2945 -1.8534
10051TIP3    H251569   2.006   5.465   3.250  1.3236 -0.5884  0.4302
10052TIP3   OH251570   0.021   0.419   3.971 -0.0341 -0.0011  0.3212
10052TIP3    H151571   0.105   0.416   4.017 -0.4056 -1.0061  0.9626
10052TIP3    H251572  -0.014   0.331   3.982 -1.5193  0.6328  0.6969
10053TIP3   OH251573   1.767   3.318   2.795 -0.0651  0.7743 -0.9073
10053TIP3    H151574   1.861   3.338   2.796  0.2974 -0.8609  0.2080
10053TIP3    H251575   1.750   3.285   2.707  1.3337 -2.8956  0.0925
10054TIP3   OH251576   0.245   6.110   2.899 -0.1435 -0.2361 -0.0399
10054TIP3    H151577   0.338   6.117   2.922 -0.2573 -0.3219  0.4438
10054TIP3    H251578   0.199   6.109   2.983 -0.7205  1.8427 -0.3031
10055TIP3   OH251579   6.465   1.717  13.157 -0.1323  0.1003  0.3583
10055TIP3    H151580   6.410   1.772  13.101 -0.5797 -0.6890  0.0174
10055TIP3    H251581   6.404   1.682  13.222  0.2169  0.2684  0.7748
10056TIP3   OH251582   0.887   4.330  16.115  0.2673 -0.0063  0.4431
10056TIP3    H151583   0.830   4.261  16.082  0.5098  0.2705 -0.5698
10056TIP3    H251584   0.848   4.412  16.084  0.9377  0.2133  0.1625
10057TIP3   OH251585   2.027   1.339  15.171 -0.3693 -0.7128  0.1117
10057TIP3    H151586   2.026   1.405  15.102 -1.3323  0.8874  1.6047
10057TIP3    H251587   1.938   1.303  15.172 -1.7692  2.4648  3.4007
10058TIP3   OH251588   5.571   4.603   5.165 -0.2695 -0.6754 -0.0667
10058TIP3    H151589   5.518   4.651   5.102  0.1334  0.0335  0.1323
10058TIP3    H251590   5.631   4.668   5.201  1.5598 -1.7113 -1.1829
10059TIP3   OH251591   5.059   6.575  16.173 -0.3962  0.0088 -0.7423
10059TIP3    H151592   4.967   6.571  16.146 -0.8777  3.1485  0.2723
10059TIP3    H251593   5.059   6.544  16.263 -0.0019 -2.6582 -1.6186
10060TIP3   OH251594   4.791   3.374  14.760  0.3666  0.3917  0.5020
10060TIP3    H151595   4.801   3.404  14.850 -1.9117 -1.8207  1.5507
10060TIP3    H251596   4.718   3.425  14.726 -0.5383 -0.6722  0.8135
10061TIP3   OH251597   5.375   6.236  11.350 -0.7260  0.2470 -0.4412
10061TIP3    H151598   5.401   6.316  11.305  1.8517 -0.0005  0.5267
10061TIP3    H251599   5.422   6.239  11.434 -1.5559 -1.6736  0.1244
10062TIP3   OH251600   4.415   2.507   3.064 -0.0033  0.0883 -0.8332
10062TIP3    H151601   4.331   2.463   3.051  0.5972 -0.6073 -2.4564
10062TIP3    H251602   4.418   2.524   3.159 -0.9999 -1.8545 -0.4160
10063TIP3   OH251603   1.852   4.392   1.016  0.1552 -0.6324 -0.0099
10063TIP3    H151604   1.777   4.342   0.984  0.0739 -0.5477  0.0481
10063TIP3    H251605   1.928   4.337   0.995  0.1151 -0.5097 -0.4870
10064TIP3   OH251606   3.720   5.597   0.573 -0.0281 -0.2759  0.1490
10064TIP3    H151607   3.654   5.533   0.544  0.8798 -0.4818 -1.5354
10064TIP3    H251608   3.723   5.661   0.502 -0.3960  1.2631  1.4869
10065TIP3   OH251609   2.528   6.196  13.280 -0.4523  0.1359  0.0276
10065TIP3    H151610   2.568   6.118  13.241  0.9492  0.9948 -0.2953
10065TIP3    H251611   2.453   6.162  13.328 -0.1874 -1.3573 -0.5567
10066TIP3   OH251612   1.094   0.532  15.199 -0.1351 -0.2031 -0.0402
10066TIP3    H151613   1.151   0.507  15.272 -1.8472  0.8006  1.6767
10066TIP3    H251614   1.016   0.477  15.210  0.1016 -0.9422 -1.8628
10067TIP3   OH251615   6.455   3.154  13.889  0.2595 -0.4668 -0.3869
10067TIP3    H151616   6.430   3.222  13.827  0.4427 -1.3821 -1.4979
10067TIP3    H251617   6.404   3.172  13.968 -1.0022 -0.0681 -1.2788
10068TIP3   OH251618   2.129   3.398   1.382  0.3337 -0.2127 -0.1529
10068TIP3    H151619   2.205   3.386   1.439  0.3392  0.0423 -0.1054
10068TIP3    H251620   2.088   3.312   1.377 -0.4589  0.0540  1.3609
10069TIP3   OH251621   2.450   0.299   2.211 -0.2504  0.4321  0.1806
10069TIP3    H151622   2.436   0.204   2.202  3.8616 -0.2755 -0.0693
10069TIP3    H251623   2.499   0.323   2.132 -1.2702  2.8195  0.2309
10070TIP3   OH251624   3.601   3.002   0.805  0.2668 -0.3310 -0.0392
10070TIP3    H151625   3.530   3.040   0.857 -1.6462 -1.2331 -1.9307
10070TIP3    H251626   3.607   2.912   0.837 -0.4465 -0.6838 -0.8795
10071TIP3   OH251627   2.602   0.376  13.810  0.3917  0.4763  0.0814
10071TIP3    H151628   2.514   0.360  13.844  0.0177  1.5181 -0.3805
10071TIP3    H251629   2.594   0.364  13.715  0.6494  0.9986 -0.0081
10072TIP3   OH251630   3.107   4.465  11.582 -0.0770  0.3993 -0.0841
10072TIP3    H151631   3.103   4.529  11.512 -0.3033 -1.1322 -1.5016
10072TIP3    H251632   3.017   4.438  11.596  0.1601 -0.6051 -0.4402
10073TIP3   OH251633   3.819   4.667  16.072  0.0807  0.1350 -0.5573
10073TIP3    H151634   3.782   4.749  16.039 -1.3385 -0.9867 -1.8035
10073TIP3    H251635   3.873   4.693  16.147 -1.7093  2.0200  0.1168
10074TIP3   OH251636   5.441   4.747   4.929  0.3467  0.3946  0.5372
10074TIP3    H151637   5.355   4.786   4.913  0.6241  1.2422  1.0970
10074TIP3    H251638   5.501   4.821   4.928  0.9279 -0.0683  1.2309
10075TIP3   OH251639   2.626   4.310   1.701 -0.4148  0.1931 -0.5748
10075TIP3    H151640   2.598   4.377   1.763 -0.8482 -1.0387  0.5772
10075TIP3    H251641   2.566   4.319   1.627 -1.5098  0.0138  0.2864
10076TIP3   OH251642   1.883   1.195   5.203 -0.0479  0.3721 -0.2256
10076TIP3    H151643   1.934   1.198   5.284  0.2479 -1.9834 -0.2837
10076TIP3    H251644   1.924   1.125   5.152 -0.1033  1.9697 -2.5016
10077TIP3   OH251645   4.403   3.228   5.054 -0.4959 -0.1555 -0.1787
10077TIP3    H151646   4.383   3.140   5.022 -0.2359 -0.2943  0.0293
10077TIP3    H251647   4.447   3.213   5.138  0.7366  0.1098 -0.7515
10078TIP3   OH251648   5.718   1.664  13.325 -0.3347  0.6471 -0.1630
10078TIP3    H151649   5.804   1.671  13.365 -0.3172  2.2111 -0.4396
10078TIP3    H251650   5.658   1.656  13.399  0.0737 -0.8873  0.0147
10079TIP3   OH251651   3.892   1.571  14.646  0.5051 -0.4238 -0.5279
10079TIP3    H151652   3.969   1.564  14.591 -0.8394 -1.7821 -2.2873
10079TIP3    H251653   3.920   1.537  14.731  1.9236 -0.6288 -1.0685
10080TIP3   OH251654   6.039   4.893  11.542 -0.3562 -0.2542  0.1246
10080TIP3    H151655   6.114   4.949  11.560 -1.9036  1.1842  2.4543
10080TIP3    H251656   6.013   4.916  11.453  2.0167 -0.8770 -0.7582
10081TIP3   OH251657   2.442   4.467  15.730  0.5520 -0.6985 -0.9261
10081TIP3    H151658   2.366   4.523  15.719 -0.1400 -1.8091 -1.9660
10081TIP3    H251659   2.406   4.382  15.755  1.6208 -0.5383  1.3229
10082TIP3   OH251660   3.029   3.815   4.230 -0.2491  0.7425  0.1187
10082TIP3    H151661   2.979   3.749   4.279 -2.7463  1.0569 -1.9485
10082TIP3    H251662   3.092   3.849   4.294 -0.3862 -2.0601  1.8341
10083TIP3   OH251663   3.578   6.777  13.191  0.0287 -0.3392  0.5517
10083TIP3    H151664   3.625   6.837  13.133 -0.7279  0.0771  0.3658
10083TIP3    H251665   3.647   6.736  13.243  0.6329 -0.0136  0.0211
10084TIP3   OH251666   5.123   4.331  14.654  0.3250 -0.2266  0.0196
10084TIP3    H151667   5.140   4.371  14.569 -2.2577  0.0887 -0.3936
10084TIP3    H251668   5.047   4.379  14.688  0.3968 -1.3453  1.8319
10085TIP3   OH251669   6.552   5.347  14.112  0.1506  0.3511  0.5179
10085TIP3    H151670   6.545   5.259  14.149 -2.2044  1.4536  2.8573
10085TIP3    H251671   6.639   5.377  14.136  1.0661 -1.4414 -0.5329
10086TIP3   OH251672   6.095   1.103  14.189 -0.0667 -0.0168  0.0493
10086TIP3    H151673   6.138   1.094  14.103 -1.3278 -1.5440 -0.4478
10086TIP3    H251674   6.095   1.014  14.224 -0.0780  0.5085  1.3978
10087TIP3   OH251675   2.241   6.538  16.591  0.5194  0.1633 -0.2254
10087TIP3    H151676   2.194   6.618  16.565  0.1634  0.6133  1.7314
10087TIP3    H251677   2.212   6.472  16.529 -0.6018  1.1091 -0.7350
10088TIP3   OH251678   2.060   6.142  11.323  0.1252  0.5417  0.5682
10088TIP3    H151679   1.992   6.090  11.280 -1.0284  0.7321  2.1297
10088TIP3    H251680   2.029   6.232  11.317 -0.6627  0.4537  2.8417
10089TIP3   OH251681   2.316   4.626   0.622  0.3427 -0.0615 -0.2131
10089TIP3    H151682   2.307   4.569   0.698  2.3521  0.1245  0.1711
10089TIP3    H251683   2.361   4.704   0.655  0.1672  0.5279 -1.3408
10090TIP3   OH251684   4.536   1.793  12.723 -0.1790 -0.2703 -0.1562
10090TIP3    H151685   4.545   1.714  12.777  1.3621  0.0975  0.1735
10090TIP3    H251686   4.550   1.763  12.634 -1.2141 -0.6315 -0.2028
10091TIP3   OH251687   1.194   6.056  14.326  0.3613 -0.1095 -0.6547
10091TIP3    H151688   1.234   5.976  14.291 -1.8905 -0.6010 -2.2704
10091TIP3    H251689   1.137   6.086  14.255 -1.0614  1.2913  1.0474
10092TIP3   OH251690   0.705   6.389  14.227  0.4286  0.1116 -0.5023
10092TIP3    H151691   0.738   6.464  14.275  0.4637 -0.1118 -0.1750
10092TIP3    H251692   0.612   6.384  14.251  0.9389 -1.2979  1.2523
10093TIP3   OH251693   3.734   4.630   5.922 -0.6797  0.2744  0.2134
10093TIP3    H151694   3.793   4.659   5.991  0.4423 -0.2319 -0.5081
10093TIP3    H251695   3.667   4.697   5.917  0.3283  1.3043  0.4537
10094TIP3   OH251696   3.261   5.613   4.372  0.4123  0.0921  0.1265
10094TIP3    H151697   3.356   5.608   4.368  0.5005  1.8409 -0.0968
10094TIP3    H251698   3.232   5.603   4.281  0.3412 -1.0371  0.2653
10095TIP3   OH251699   2.830   3.635   0.486 -0.7961 -0.6542 -0.4085
10095TIP3    H151700   2.902   3.601   0.539 -1.9127  1.1186  2.3763
10095TIP3    H251701   2.755   3.580   0.508 -1.4584  0.5861  0.5271
10096TIP3   OH251702   2.786   2.770   5.195 -0.3706 -0.1909  0.3002
10096TIP3    H151703   2.828   2.845   5.153 -2.7534  1.0195 -0.0584
10096TIP3    H251704   2.805   2.781   5.288 -0.2358  0.5720  0.1861
10097TIP3   OH251705   6.061   2.105  10.577  0.2546  0.1150  0.1661
10097TIP3    H151706   6.054   2.181  10.520  1.5368  0.5459  0.5800
10097TIP3    H251707   6.143   2.117  10.625  1.0599 -2.0896 -0.5784
10098TIP3   OH251708   2.967   3.949   1.398  1.0481  0.0744  0.0608
10098TIP3    H151709   2.897   4.015   1.400  1.2173  0.3773 -2.4849
10098TIP3    H251710   2.921   3.866   1.388  0.8821 -0.1652  2.4288
10099TIP3   OH251711   6.672   6.674  15.221  0.3917  0.8231 -0.1447
10099TIP3    H151712   6.667   6.654  15.315 -0.2237  2.2639  0.1363
10099TIP3    H251713   6.761   6.707  15.209  1.3282 -1.7238 -0.5637
10100TIP3   OH251714   1.422   0.117  15.073  0.3380 -0.6264  0.2448
10100TIP3    H151715   1.430   0.129  15.167 -1.0212 -0.7833  0.3877
10100TIP3    H251716   1.371   0.037  15.063  0.9924 -0.9456 -0.6383
10101TIP3   OH251717   0.231   6.522  12.722 -0.5755  0.0071 -0.0597
10101TIP3    H151718   0.190   6.590  12.668 -1.5055 -1.7227 -1.5820
10101TIP3    H251719   0.228   6.443  12.668  1.8343 -0.9352  1.0849
10102TIP3   OH251720   6.509   1.756  14.677 -0.6386  0.3859 -0.3938
10102TIP3    H151721   6.460   1.690  14.628 -0.7368  0.7369 -0.7704
10102TIP3    H251722   6.600   1.741  14.654 -0.5007 -0.6488  0.7598
10103TIP3   OH251723   4.191   3.244  12.758  0.0240 -0.0857  0.5705
10103TIP3    H151724   4.276   3.285  12.776  0.5768 -0.4664 -1.0757
10103TIP3    H251725   4.199   3.155  12.794  0.3782 -0.1604  0.3117
10104TIP3   OH251726   5.070   2.299  14.106 -0.1298 -0.2053 -0.3864
10104TIP3    H151727   5.003   2.265  14.165 -1.3609 -0.4646 -1.9333
10104TIP3    H251728   5.092   2.385  14.141 -1.1589 -0.1826  0.1993
10105TIP3   OH251729   5.056   0.332   5.162  0.5599 -0.0736 -0.3596
10105TIP3    H151730   5.143   0.301   5.140  1.7744  0.9801  2.7773
10105TIP3    H251731   5.019   0.263   5.217  0.3402  0.5826  0.3204
10106TIP3   OH251732   0.229   5.793  12.037 -0.7429  0.3728  0.0055
10106TIP3    H151733   0.168   5.847  11.987 -0.3554  0.9768  0.1910
10106TIP3    H251734   0.230   5.832  12.124  0.2510  0.6341 -0.1199
10107TIP3   OH251735   2.763   1.821  12.675 -0.2065 -0.3855 -0.4291
10107TIP3    H151736   2.811   1.738  12.682 -0.1740 -0.2512  1.2496
10107TIP3    H251737   2.704   1.809  12.601 -0.9688 -2.3308  0.4503
10108TIP3   OH251738   4.121   4.424   1.008 -0.3530 -0.0056  0.0745
10108TIP3    H151739   4.068   4.502   1.027 -2.4003 -1.5419  0.9331
10108TIP3    H251740   4.108   4.367   1.084 -0.1220 -1.8281 -1.2034
10109TIP3   OH251741   5.766   0.536   5.595  0.6514  0.1174 -0.2368
10109TIP3    H151742   5.683   0.560   5.636 -0.6806 -1.0304 -2.1554
10109TIP3    H251743   5.782   0.604   5.530  2.5044  1.6619  1.7436
10110TIP3   OH251744   5.501   0.504  16.031  0.2369  0.1943  0.8309
10110TIP3    H151745   5.558   0.575  16.000 -1.6837  0.9795 -1.0298
10110TIP3    H251746   5.492   0.446  15.956 -0.8476 -0.2844  1.3229
10111TIP3   OH251747   5.741   0.115   2.184  0.1281 -0.2591 -0.0048
10111TIP3    H151748   5.800   0.131   2.110 -1.9863  1.3090 -1.3693
10111TIP3    H251749   5.754   0.190   2.242  0.7098 -0.7652  0.5300
10112TIP3   OH251750   5.336   3.942  13.194 -0.4104  0.2726 -0.7498
10112TIP3    H151751   5.283   4.009  13.237  1.0496  0.7261  0.3699
10112TIP3    H251752   5.274   3.897  13.136 -2.1536  0.4042  0.9540
10113TIP3   OH251753   4.621   3.690   2.333 -0.3263 -0.6148  0.0311
10113TIP3    H151754   4.621   3.603   2.373 -0.4999 -0.6326 -0.0082
10113TIP3    H251755   4.549   3.736   2.376  0.2193 -0.2507  0.5811
10114TIP3   OH251756   0.361   0.226   3.516  0.1769  0.0132 -0.0073
10114TIP3    H151757   0.350   0.287   3.590  1.2818  0.4201 -0.1789
10114TIP3    H251758   0.272   0.216   3.480 -0.4491 -0.5036  1.6161
10115TIP3   OH251759   4.712   6.358  12.368 -0.6511 -0.2133 -0.2129
10115TIP3    H151760   4.798   6.377  12.330  0.6907 -1.2905  2.1500
10115TIP3    H251761   4.661   6.437  12.354  1.1616  0.9376 -0.4838
10116TIP3   OH251762   3.140   0.673   2.571 -0.7458 -0.1374  0.3781
10116TIP3    H151763   3.231   0.694   2.553 -1.2671  2.0040  0.0527
10116TIP3    H251764   3.125   0.701   2.661 -0.7388 -1.7875  0.9181
10117TIP3   OH251765   1.286   5.307  14.205 -0.4013  0.1405 -0.1485
10117TIP3    H151766   1.219   5.351  14.257 -1.9444 -2.6402  0.3044
10117TIP3    H251767   1.361   5.298  14.265 -0.2305  1.7455 -0.1188
10118TIP3   OH251768   1.490   3.727   5.011  0.0669 -0.2147  0.3729
10118TIP3    H151769   1.439   3.756   5.086 -0.2126 -0.6300  0.3378
10118TIP3    H251770   1.454   3.777   4.937  1.5364  1.5658  0.8036
10119TIP3   OH251771   6.375   3.016  10.941  0.0819  0.6352  0.6049
10119TIP3    H151772   6.424   3.071  10.880 -1.2811 -0.4018 -1.4811
10119TIP3    H251773   6.381   2.928  10.904 -2.2084  0.2720  1.0429
10120TIP3   OH251774   0.465   6.305  14.807  0.0330 -0.2677 -0.2817
10120TIP3    H151775   0.481   6.221  14.762 -0.2690  0.2783 -1.4294
10120TIP3    H251776   0.501   6.292  14.895  2.3428 -0.7433 -1.2516
10121TIP3   OH251777   6.719   0.773   6.126 -0.0211 -0.7434 -0.2225
10121TIP3    H151778   6.693   0.862   6.149 -0.7974 -0.5986 -1.6196
10121TIP3    H251779   6.664   0.717   6.180  1.6498 -0.3909  1.9277
10122TIP3   OH251780   5.238   4.382  16.724 -0.6902  0.0161  0.1672
10122TIP3    H151781   5.321   4.394  16.772  0.2661 -0.8106 -1.2534
10122TIP3    H251782   5.208   4.471  16.706 -0.5968  0.3307  1.5204
10123TIP3   OH251783   4.335   5.926  13.828  0.9230 -0.3410 -0.4950
10123TIP3    H151784   4.335   5.898  13.920 -0.6727 -0.3877 -0.4975
10123TIP3    H251785   4.364   5.849  13.779 -0.7408 -1.1431 -0.2496
10124TIP3   OH251786   5.632   6.514  14.664  0.7345 -0.4892  0.2771
10124TIP3    H151787   5.700   6.516  14.596 -0.1961  1.1111 -0.6285
10124TIP3    H251788   5.558   6.470  14.622 -0.1148  1.1923 -0.0313
10125TIP3   OH251789   0.451   6.137   2.109  0.2351  0.2933  0.1246
10125TIP3    H151790   0.514   6.162   2.042  0.4459  0.0872  0.2438
10125TIP3    H251791   0.504   6.114   2.185  0.0088  0.2975  0.2854
10126TIP3   OH251792   0.949   4.124   5.441 -0.2443  0.2164 -0.2860
10126TIP3    H151793   0.862   4.086   5.427 -0.1800 -1.8699  4.2149
10126TIP3    H251794   1.010   4.052   5.425  0.4439  0.7591 -0.1614
10127TIP3   OH251795   2.969   3.130  12.342 -0.3526 -0.6293  0.1394
10127TIP3    H151796   2.935   3.217  12.365  3.9932  0.5691  2.6326
10127TIP3    H251797   2.918   3.069  12.395 -2.5611  0.4935 -0.6388
10128TIP3   OH251798   4.451   6.363  12.690  0.2953  0.2841 -0.1590
10128TIP3    H151799   4.535   6.396  12.720  0.5871 -0.9589  0.4202
10128TIP3    H251800   4.468   6.272  12.664 -0.3950  0.6928 -2.1206
10129TIP3   OH251801   3.749   4.379   5.022  0.2458 -0.0122  0.3366
10129TIP3    H151802   3.735   4.292   5.058  1.1535 -0.7653 -1.1276
10129TIP3    H251803   3.689   4.385   4.948 -1.5031  1.4829  1.8047
10130TIP3   OH251804   0.611   2.012  14.105 -0.0452 -0.0823  0.3424
10130TIP3    H151805   0.606   2.107  14.116 -0.4219  0.2458 -2.2879
10130TIP3    H251806   0.705   1.992  14.106  0.1271  0.5917 -0.9418
10131TIP3   OH251807   5.935   5.783  10.805 -0.0251  0.4174 -0.1099
10131TIP3    H151808   5.917   5.769  10.897  1.5524 -0.0693  0.1404
10131TIP3    H251809   5.909   5.702  10.762 -0.7337  0.6342 -0.0928
10132TIP3   OH251810   0.901   0.385  15.345  0.4271 -0.4586  0.2387
10132TIP3    H151811   0.812   0.420  15.349  0.6799  0.2523 -0.3098
10132TIP3    H251812   0.896   0.301  15.390 -0.5435 -0.4592  0.1270
10133TIP3   OH251813   6.645   4.412   2.273 -0.2854  0.1326  0.0015
10133TIP3    H151814   6.599   4.439   2.352 -1.4591  1.4296 -1.0862
10133TIP3    H251815   6.729   4.456   2.276  0.0447 -0.5464  0.9556
10134TIP3   OH251816   3.368   1.617  12.641 -0.3895  0.2139  0.0983
10134TIP3    H151817   3.355   1.711  12.631  0.4413  0.2537 -0.6417
10134TIP3    H251818   3.280   1.582  12.655 -0.9565  0.8338 -1.7862
10135TIP3   OH251819   3.551   1.649   2.483 -0.2821 -0.4189  0.4850
10135TIP3    H151820   3.534   1.637   2.390  0.5733 -2.0356  0.5157
10135TIP3    H251821   3.631   1.702   2.487  0.2485 -1.1996  0.2879
10136TIP3   OH251822   3.737   5.137   1.113  0.1422  0.2375  0.4733
10136TIP3    H151823   3.661   5.135   1.054  0.8452 -0.2708 -0.4367
10136TIP3    H251824   3.737   5.051   1.156  1.3347 -0.5483 -1.0264
10137TIP3   OH251825   1.018   1.905   1.708 -0.2112 -0.4596 -0.1441
10137TIP3    H151826   1.067   1.987   1.704 -1.5405  0.3708  0.2039
10137TIP3    H251827   1.085   1.836   1.704  0.8198  0.6195 -1.6917
10138TIP3   OH251828   1.850   1.114   1.918 -0.6057 -0.0623  0.2016
10138TIP3    H151829   1.885   1.193   1.958  1.8746 -0.7455 -0.5324
10138TIP3    H251830   1.853   1.048   1.987  0.6306 -0.4017 -0.1619
10139TIP3   OH251831   4.829   3.009  10.868 -0.8033  0.1510  0.7805
10139TIP3    H151832   4.836   3.098  10.904 -1.2837  0.8259 -0.7137
10139TIP3    H251833   4.812   3.023  10.774 -0.7717 -1.5255  0.5060
10140TIP3   OH251834   0.283   6.628  16.457  0.4985  0.4931 -0.2283
10140TIP3    H151835   0.225   6.557  16.484  2.3371 -1.0898 -0.3676
10140TIP3    H251836   0.320   6.600  16.374  3.5470  0.1948  1.1582
10141TIP3   OH251837   2.822   5.222   3.984 -0.1363 -0.2074 -0.1024
10141TIP3    H151838   2.789   5.133   3.986  1.4003 -0.8358 -1.7018
10141TIP3    H251839   2.816   5.252   4.075 -0.3065 -2.0687  0.5153
10142TIP3   OH251840   4.562   2.347  13.985 -0.2727  0.4661  0.8551
10142TIP3    H151841   4.634   2.319  14.042  0.3277 -0.5768 -0.3833
10142TIP3    H251842   4.605   2.376  13.905 -1.1572  1.1306  0.6184
10143TIP3   OH251843   6.104   0.484   4.750  0.0324 -0.3697 -0.5238
10143TIP3    H151844   6.088   0.512   4.840  0.7333 -0.6028 -0.3229
10143TIP3    H251845   6.198   0.498   4.736 -0.0091 -0.6322 -1.1093
10144TIP3   OH251846   1.617   6.740  17.027  0.0048 -0.5418 -0.3960
10144TIP3    H151847   1.564   6.738  17.107  0.5807 -0.6797 -0.0149
10144TIP3    H251848   1.636   6.833  17.013  0.4100 -0.5707 -0.0355
10145TIP3   OH251849   1.078   1.196  12.832 -0.0305 -0.4358 -0.4165
10145TIP3    H151850   1.110   1.166  12.746  0.6997  0.3850 -0.4382
10145TIP3    H251851   1.010   1.133  12.855 -0.0576 -0.8171 -1.4877
10146TIP3   OH251852   6.686   2.602  16.210 -0.2214  0.2519  0.7462
10146TIP3    H151853   6.682   2.602  16.115 -1.7072 -0.5340  0.7933
10146TIP3    H251854   6.679   2.510  16.234  1.4098  0.3244  1.5867
10147TIP3   OH251855   0.890   5.228   0.878 -0.0609 -0.2144 -0.1967
10147TIP3    H151856   0.891   5.283   0.956  0.2978  0.1838 -0.4821
10147TIP3    H251857   0.969   5.253   0.830  0.0905 -0.9576 -0.3433
10148TIP3   OH251858   2.621   2.848   3.135  0.2624 -0.2544  0.3599
10148TIP3    H151859   2.699   2.815   3.178 -0.8896 -2.1103  1.0685
10148TIP3    H251860   2.552   2.787   3.160 -1.4010  1.3009 -0.3330
10149TIP3   OH251861   1.556   1.961  14.733 -0.6378  0.3203 -0.4092
10149TIP3    H151862   1.639   1.965  14.686 -0.1567  1.5628  0.5291
10149TIP3    H251863   1.564   1.883  14.789  0.9063  1.8105  1.5105
10150TIP3   OH251864   1.976   2.834  14.242 -0.6258 -0.2150 -0.1822
10150TIP3    H151865   1.977   2.922  14.280  0.2805 -1.0704  1.8317
10150TIP3    H251866   2.067   2.818  14.216 -0.3080 -1.4723  1.6506
10151TIP3   OH251867   2.696   5.273   0.126 -0.2180  0.0200 -0.4255
10151TIP3    H151868   2.611   5.229   0.131  0.9069 -2.2413 -1.0010
10151TIP3    H251869   2.674   5.364   0.107 -2.5574 -0.3258  0.4714
10152TIP3   OH251870   1.980   1.876  13.470  0.3881  0.3524 -0.6765
10152TIP3    H151871   1.912   1.890  13.536  1.6812 -0.3090  0.8299
10152TIP3    H251872   2.043   1.946  13.486  1.0466 -0.2173 -0.7595
10153TIP3   OH251873   6.266   5.765   6.328 -0.0724  0.3680 -0.0358
10153TIP3    H151874   6.315   5.738   6.250  2.8540  1.5930  1.2759
10153TIP3    H251875   6.204   5.831   6.296 -0.2577 -0.5725 -1.6317
10154TIP3   OH251876   2.519   6.712   0.875  0.1283 -0.1854  0.1240
10154TIP3    H151877   2.504   6.634   0.823  1.1390 -1.2754  1.4161
10154TIP3    H251878   2.595   6.754   0.834 -0.9838  0.6306 -1.1263
10155TIP3   OH251879   0.495   0.425   4.521 -0.0796  0.3251 -0.6015
10155TIP3    H151880   0.501   0.514   4.487  0.1783  0.1289 -1.0697
10155TIP3    H251881   0.566   0.418   4.584  1.6159 -0.4105 -2.5329
10156TIP3   OH251882   2.004   4.188   5.260  0.1110 -0.0239  0.5313
10156TIP3    H151883   1.973   4.120   5.200 -0.3528  1.0557 -0.4684
10156TIP3    H251884   2.099   4.190   5.247  0.3037 -1.4845  1.6347
10157TIP3   OH251885   4.896   3.510   2.064  0.0940 -0.3425  0.3132
10157TIP3    H151886   4.920   3.418   2.048  1.1427  0.0049 -0.1540
10157TIP3    H251887   4.826   3.527   2.001  0.6665 -0.5021 -0.3810
10158TIP3   OH251888   2.973   0.554   3.418  0.1588 -0.6329  0.1702
10158TIP3    H151889   3.001   0.644   3.436  1.5302 -0.3074 -3.1402
10158TIP3    H251890   2.908   0.563   3.348 -0.9744 -2.1411  0.9961
10159TIP3   OH251891   5.975   3.799   1.770 -0.2451 -0.1172 -0.1249
10159TIP3    H151892   5.929   3.848   1.838  0.6077 -0.1314  0.4618
10159TIP3    H251893   6.041   3.748   1.817 -0.6606 -1.3043 -0.7939
10160TIP3   OH251894   1.100   5.113  16.285 -0.2550 -0.3620  0.0028
10160TIP3    H151895   1.109   5.099  16.379 -0.8099  2.1935  0.4681
10160TIP3    H251896   1.035   5.049  16.257 -0.7088 -0.5720  1.4978
10161TIP3   OH251897   3.229   2.233   3.203 -0.1534  0.3133 -0.1426
10161TIP3    H151898   3.320   2.218   3.180  0.2414  1.4323  0.6204
10161TIP3    H251899   3.185   2.250   3.120  0.2287 -0.7444 -0.5639
10162TIP3   OH251900   2.507   3.250   5.663 -0.2815  0.8470 -0.4610
10162TIP3    H151901   2.412   3.256   5.674 -0.1339  2.8380 -0.0425
10162TIP3    H251902   2.527   3.312   5.593  0.7962  1.0103 -0.0196
10163TIP3   OH251903   1.864   4.868  16.714  0.5198 -0.3895 -0.3991
10163TIP3    H151904   1.920   4.856  16.637 -0.7225 -1.1313 -1.2144
10163TIP3    H251905   1.776   4.874  16.678  0.0944  0.9661  0.8549
10164TIP3   OH251906   5.533   4.367  11.998  0.0221 -0.3145 -0.4887
10164TIP3    H151907   5.439   4.378  12.016  0.4730 -0.0802  1.8083
10164TIP3    H251908   5.560   4.451  11.960  0.0636  0.9988  2.3156
10165TIP3   OH251909   2.503   3.688  12.576  0.4697  0.4594  0.2138
10165TIP3    H151910   2.483   3.654  12.488 -1.1535 -0.8895  1.0751
10165TIP3    H251911   2.446   3.765  12.585 -0.1060  0.0167  0.4399
10166TIP3   OH251912   5.600   4.365   4.261  0.3402  0.7823  0.3824
10166TIP3    H151913   5.570   4.298   4.322 -0.9122  1.6195  0.7086
10166TIP3    H251914   5.572   4.448   4.299  1.2204  1.4524 -0.3824
10167TIP3   OH251915   3.098   3.608   2.431  0.1736 -0.4118  0.2698
10167TIP3    H151916   3.136   3.551   2.364 -1.8086 -1.5292  0.0512
10167TIP3    H251917   3.103   3.696   2.393 -0.7424 -1.0039 -1.2674
10168TIP3   OH251918   0.784   5.002   4.600  0.3588 -0.3359 -0.4806
10168TIP3    H151919   0.877   4.989   4.618 -0.2050 -2.3898  1.2081
10168TIP3    H251920   0.750   5.045   4.679 -0.3524 -0.7507 -0.5526
10169TIP3   OH251921   0.946   0.780  11.495 -0.0708  0.1279  0.5342
10169TIP3    H151922   1.015   0.799  11.432  0.9949 -0.5852  1.4715
10169TIP3    H251923   0.865   0.804  11.450  0.7426  0.4621 -0.7683
10170TIP3   OH251924   1.484   4.233  16.520  0.0673 -0.2942 -0.1822
10170TIP3    H151925   1.413   4.295  16.541 -0.1025 -1.1702  1.9509
10170TIP3    H251926   1.438   4.152  16.497  0.3135  0.1208 -2.2660
10171TIP3   OH251927   4.229   2.831  12.417  0.0219  0.0622  0.0544
10171TIP3    H151928   4.139   2.863  12.412 -0.0392 -0.0974  0.1079
10171TIP3    H251929   4.248   2.799  12.328 -0.0086  0.0100  0.0658
10172TIP3   OH251930   2.854   0.104  11.550  0.0918 -0.2856  0.2683
10172TIP3    H151931   2.881   0.145  11.632  0.3965 -0.3194  0.1877
10172TIP3    H251932   2.922   0.038  11.533 -0.6224 -1.1167  0.6180
10173TIP3   OH251933   5.307   0.871  15.665 -0.6880  0.2218  0.0166
10173TIP3    H151934   5.281   0.782  15.641 -0.1600  0.1385 -0.2684
10173TIP3    H251935   5.359   0.902  15.590  0.6655  0.0979  0.8782
10174TIP3   OH251936   6.518   6.382  15.126  0.3529  0.1035  0.0848
10174TIP3    H151937   6.606   6.395  15.161  1.2072 -0.2158 -1.8731
10174TIP3    H251938   6.524   6.409  15.034 -1.9210  1.3178  0.2542
10175TIP3   OH251939   1.798   2.187  14.238 -0.3352  0.1802 -0.4013
10175TIP3    H151940   1.814   2.254  14.305  0.2294  1.0073 -1.3445
10175TIP3    H251941   1.848   2.217  14.162  1.3101 -2.1951 -0.3113
10176TIP3   OH251942   0.937   0.535  12.042 -0.7875  0.7468  0.1261
10176TIP3    H151943   0.901   0.616  12.078  0.9690  1.4893  0.2559
10176TIP3    H251944   0.970   0.560  11.956 -0.8964 -0.0025 -0.1342
10177TIP3   OH251945   3.563   2.472  16.789 -0.1126 -0.6034 -0.0955
10177TIP3    H151946   3.482   2.457  16.838  0.6103 -0.6231  1.1290
10177TIP3    H251947   3.535   2.511  16.707 -1.4249 -1.3847 -0.0328
10178TIP3   OH251948   4.731   6.602   5.302  0.0345  0.2113 -0.2734
10178TIP3    H151949   4.666   6.535   5.327 -0.2703  0.4376 -0.4597
10178TIP3    H251950   4.724   6.669   5.370  1.7036 -0.8604  0.9932
10179TIP3   OH251951   0.698   5.979  12.089 -0.5673 -0.3947 -0.4668
10179TIP3    H151952   0.687   5.972  11.994  0.1979 -0.6232 -0.5484
10179TIP3    H251953   0.793   5.974  12.102 -0.7085 -1.1522  0.3701
10180TIP3   OH251954   5.851   4.707   4.348 -0.3949  0.0876 -0.1009
10180TIP3    H151955   5.835   4.717   4.254  0.4264  1.4673 -0.1060
10180TIP3    H251956   5.768   4.673   4.383 -0.7635 -0.2575 -1.2901
10181TIP3   OH251957   0.511   0.477  11.202 -0.1321 -0.1851  0.4748
10181TIP3    H151958   0.538   0.385  11.205 -0.1365 -0.1727  1.1691
10181TIP3    H251959   0.592   0.526  11.218 -0.4168 -0.1260  1.8092
10182TIP3   OH251960   1.108   0.228   1.056 -0.8289 -0.2963  0.4251
10182TIP3    H151961   1.139   0.312   1.021 -1.4952 -0.6381 -1.0377
10182TIP3    H251962   1.013   0.233   1.047 -0.7778 -1.8850 -1.2734
10183TIP3   OH251963   5.837   4.135  12.907  0.1189 -0.1625  0.0745
10183TIP3    H151964   5.833   4.228  12.928 -0.3254 -0.3765  0.9627
10183TIP3    H251965   5.895   4.130  12.831  1.0518  0.7255  0.7195
10184TIP3   OH251966   1.913   2.376   3.157 -0.1996  0.3464  0.4750
10184TIP3    H151967   1.954   2.462   3.153 -1.8121  1.0659 -1.8903
10184TIP3    H251968   1.854   2.380   3.233  0.3692  1.0307  0.8753
10185TIP3   OH251969   2.347   5.914  14.352  0.2157 -0.1194 -0.0060
10185TIP3    H151970   2.292   5.911  14.274  3.2097  1.2642 -2.2477
10185TIP3    H251971   2.339   6.003  14.384 -1.8176 -0.9533  1.9555
10186TIP3   OH251972   4.546   2.432   1.229 -0.5265  0.4119 -0.2535
10186TIP3    H151973   4.631   2.441   1.188  0.3069  1.6615  1.6965
10186TIP3    H251974   4.502   2.516   1.214 -0.2526  0.8443  1.2974
10187TIP3   OH251975   2.938   5.959   5.294  0.1524 -0.1176  0.4879
10187TIP3    H151976   2.895   5.880   5.261  2.1159 -1.2516  0.5612
10187TIP3    H251977   2.987   5.929   5.371  1.6128  0.9930  0.0198
10188TIP3   OH251978   6.521   2.590  15.343 -0.4230 -0.0554 -0.3286
10188TIP3    H151979   6.496   2.608  15.253 -0.7431  2.3603  0.2135
10188TIP3    H251980   6.439   2.570  15.388 -0.1254 -2.5539 -0.8120
10189TIP3   OH251981   0.574   4.119   5.158  0.2922  0.5846 -0.1652
10189TIP3    H151982   0.492   4.070   5.163  0.1649  0.5762 -2.0015
10189TIP3    H251983   0.547   4.210   5.141  0.6157  0.8448  0.6897
10190TIP3   OH251984   5.577   2.913   3.604  0.3505 -0.3669  0.1779
10190TIP3    H151985   5.598   3.006   3.608  2.8994 -0.7935 -1.9850
10190TIP3    H251986   5.540   2.900   3.517  2.1329 -1.7280 -0.4186
10191TIP3   OH251987   0.466   3.116   3.652  0.2502 -0.4988 -0.3442
10191TIP3    H151988   0.434   3.205   3.644 -1.1946 -1.0544 -0.9289
10191TIP3    H251989   0.539   3.122   3.713  0.7387  1.2206 -1.0673
10192TIP3   OH251990   3.075   3.424  11.406  0.2792  0.0898 -0.1074
10192TIP3    H151991   3.162   3.398  11.438  0.5015  0.0053 -0.7798
10192TIP3    H251992   3.022   3.345  11.414 -0.5162  0.8701  2.9854
10193TIP3   OH251993   6.093   2.843  13.086 -0.2650  0.7101  0.4038
10193TIP3    H151994   6.050   2.763  13.056  1.2974  0.0330 -0.0429
10193TIP3    H251995   6.020   2.904  13.103 -1.3043  0.4903 -2.8824
10194TIP3   OH251996   5.445   0.338  15.799  0.0764 -0.0138  0.1082
10194TIP3    H151997   5.517   0.322  15.739 -1.1187 -0.1002 -1.3442
10194TIP3    H251998   5.399   0.255  15.805  0.2777 -0.0528  1.2876
10195TIP3   OH251999   2.511   0.978  12.896  0.1737  0.1702  0.2068
10195TIP3    H152000   2.577   0.953  12.960  0.0006  0.9989  0.7233
10195TIP3    H252001   2.449   0.906  12.896  0.5576 -0.1616  0.4494
10196TIP3   OH252002   4.309   5.297  15.398 -0.4077  0.4446  0.2247
10196TIP3    H152003   4.382   5.281  15.338 -0.0644 -2.3023  1.3175
10196TIP3    H252004   4.349   5.336  15.476 -0.1471 -0.8219  0.7223
10197TIP3   OH252005   0.065   0.814  11.774  0.3190  0.2739  0.0820
10197TIP3    H152006   0.061   0.908  11.756  0.2371  0.3407  0.4472
10197TIP3    H252007   0.112   0.777  11.699 -0.4060  0.4878 -0.4768
10198TIP3   OH252008   5.193   4.876  11.555  0.2345  0.5878  0.2424
10198TIP3    H152009   5.241   4.879  11.472 -1.7085 -2.2191 -1.0316
10198TIP3    H252010   5.249   4.825  11.614  0.6728  0.8374  0.0442
10199TIP3   OH252011   1.241   4.814  15.558  0.3491  0.3802 -0.0644
10199TIP3    H152012   1.201   4.836  15.642  0.5632 -1.3907  0.5403
10199TIP3    H252013   1.168   4.792  15.501  0.0796  3.4243 -0.9417
10200TIP3   OH252014   4.371   3.687  16.770 -0.2210 -0.8853 -0.4744
10200TIP3    H152015   4.348   3.718  16.858  1.5406 -1.0055  0.0544
10200TIP3    H252016   4.377   3.766  16.717  0.7351 -0.6208  0.0158
10201TIP3   OH252017   6.240   2.782   3.396  0.0313  0.5611  0.3051
10201TIP3    H152018   6.261   2.814   3.484  0.8771  1.5298 -0.2354
10201TIP3    H252019   6.267   2.853   3.338  1.0167 -0.7450 -0.8524
10202TIP3   OH252020   3.986   4.817  11.840  0.0331  0.1294  0.8478
10202TIP3    H152021   3.956   4.726  11.837  3.2690 -0.9748  0.4831
10202TIP3    H252022   3.967   4.851  11.752 -0.7881 -0.2973  0.8507
10203TIP3   OH252023   4.121   1.190  15.545 -0.6829 -0.3887  0.1814
10203TIP3    H152024   4.112   1.136  15.466  0.5786 -1.1956  0.5853
10203TIP3    H252025   4.167   1.268  15.516 -0.9959 -0.2912 -0.0548
10204TIP3   OH252026   4.305   6.317  15.360  0.4070 -0.2522 -0.3206
10204TIP3    H152027   4.229   6.338  15.305 -0.2794 -0.8663  0.3773
10204TIP3    H252028   4.341   6.402  15.385 -0.2488  0.0443 -0.3844
10205TIP3   OH252029   1.963   3.801   4.842  0.7244  0.6307  0.4784
10205TIP3    H152030   2.053   3.826   4.823  0.0010  2.5307 -0.5410
10205TIP3    H252031   1.920   3.882   4.869 -0.6242 -0.3099  1.2666
10206TIP3   OH252032   2.236   4.144   5.848 -0.7977 -0.3963  0.0757
10206TIP3    H152033   2.241   4.230   5.888 -1.8276  0.1777 -0.9977
10206TIP3    H252034   2.144   4.134   5.823 -0.0517 -0.3270 -2.9668
10207TIP3   OH252035   3.872   3.621   6.629  0.1440 -0.4676 -0.1644
10207TIP3    H152036   3.860   3.556   6.559  2.4901 -0.0419 -1.0105
10207TIP3    H252037   3.900   3.569   6.705 -1.1035 -0.7861  0.0817
10208TIP3   OH252038   5.461   3.982   5.133 -0.0201 -0.3327 -0.2019
10208TIP3    H152039   5.520   4.056   5.121 -0.3617 -0.3503 -2.0386
10208TIP3    H252040   5.397   4.012   5.198  0.6260  0.5089  0.0419
10209TIP3   OH252041   3.380   2.217   5.678 -0.1062  0.0566  0.2431
10209TIP3    H152042   3.397   2.306   5.708 -1.0965  0.0804  0.7758
10209TIP3    H252043   3.288   2.218   5.651 -0.4274 -1.0453  1.2131
10210TIP3   OH252044   1.379   0.678  16.883  0.3413 -0.2140 -0.9018
10210TIP3    H152045   1.461   0.727  16.881 -0.0564  0.4531 -0.9412
10210TIP3    H252046   1.328   0.712  16.810 -0.3198 -0.0112 -0.3527
10211TIP3   OH252047   5.190   6.628  12.067 -0.6900 -0.2925 -0.2203
10211TIP3    H152048   5.183   6.719  12.095 -2.4621 -0.5180  0.1115
10211TIP3    H252049   5.153   6.627  11.978 -2.1887 -0.9605  0.3895
10212TIP3   OH252050   1.772   4.137   4.926  0.2656  0.0170 -0.2515
10212TIP3    H152051   1.864   4.145   4.951 -0.0530  0.1954  0.9191
10212TIP3    H252052   1.773   4.098   4.839  1.4768  0.9266 -0.6469
10213TIP3   OH252053   4.412   2.560   0.799 -0.0342 -0.1340 -0.1832
10213TIP3    H152054   4.502   2.528   0.795 -0.6440 -1.8513 -0.5253
10213TIP3    H252055   4.378   2.548   0.711 -0.9181 -0.4470  0.1928
10214TIP3   OH252056   5.113   3.951  13.010 -0.2476 -0.1024 -0.0436
10214TIP3    H152057   5.142   4.033  12.970 -0.7040  0.7165  1.2755
10214TIP3    H252058   5.017   3.957  13.011 -0.2625 -0.3985  0.5904
10215TIP3   OH252059   3.571   2.574   4.136 -0.7063 -0.7562 -0.4425
10215TIP3    H152060   3.644   2.614   4.089 -2.0561 -0.0293 -1.9991
10215TIP3    H252061   3.597   2.575   4.228  2.3563 -2.8906 -1.1826
10216TIP3   OH252062   0.271   0.549  16.649 -0.5674 -1.0212 -0.2519
10216TIP3    H152063   0.222   0.481  16.696 -1.4634 -0.2970 -0.1118
10216TIP3    H252064   0.280   0.619  16.713  1.1098 -1.3395 -0.1159
10217TIP3   OH252065   6.053   1.732  12.404 -0.4662  0.5647  0.1129
10217TIP3    H152066   6.113   1.807  12.400 -1.4292  1.3685  0.5459
10217TIP3    H252067   5.988   1.757  12.470 -0.7305 -0.7039  0.3377
10218TIP3   OH252068   4.871   3.784   1.614 -0.7361 -0.1873 -0.0722
10218TIP3    H152069   4.833   3.838   1.545 -2.1094  1.9144  2.2402
10218TIP3    H252070   4.964   3.808   1.615 -0.8916  0.4384 -0.5543
10219TIP3   OH252071   5.785   6.100  11.592  0.2889 -0.2626  0.0828
10219TIP3    H152072   5.715   6.091  11.657  1.5402  2.6157  1.9277
10219TIP3    H252073   5.750   6.163  11.529  0.1022 -1.0605 -0.6185
10220TIP3   OH252074   1.701   3.720   0.299 -0.4945 -0.0359 -0.0531
10220TIP3    H152075   1.776   3.759   0.344 -0.2354  0.2557 -0.7356
10220TIP3    H252076   1.733   3.636   0.268 -0.5900 -0.1136  0.0579
10221TIP3   OH252077   4.099   1.430   1.651 -0.0486 -0.8385  0.2176
10221TIP3    H152078   4.176   1.465   1.606 -1.1999 -0.9396 -1.9276
10221TIP3    H252079   4.073   1.499   1.712 -0.0810  0.5038 -1.2802
10222TIP3   OH252080   2.340   4.529  16.025 -0.3095  0.2563  0.0543
10222TIP3    H152081   2.435   4.527  16.011 -0.3558 -0.3653 -0.1838
10222TIP3    H252082   2.311   4.607  15.979  0.0144  0.1488 -0.3357
10223TIP3   OH252083   0.079   0.542  15.023 -0.4955  0.5256 -0.1080
10223TIP3    H152084   0.102   0.580  15.108 -0.1354  1.2391 -0.5206
10223TIP3    H252085   0.048   0.616  14.972 -2.0760 -0.1371 -0.1385
10224TIP3   OH252086   0.695   6.260   0.819  0.2541  0.1113 -0.0396
10224TIP3    H152087   0.777   6.211   0.817  0.1737 -0.0380  0.3633
10224TIP3    H252088   0.692   6.298   0.906 -0.1530  0.0358 -0.0213
10225TIP3   OH252089   6.064   0.943  11.496 -0.8300  0.0824 -0.0796
10225TIP3    H152090   6.019   1.012  11.545  0.3828  1.2107 -0.5318
10225TIP3    H252091   5.996   0.907  11.439 -1.3811  1.2037 -0.1542
10226TIP3   OH252092   6.772   5.722   2.017  0.1072 -0.5218 -0.6137
10226TIP3    H152093   6.821   5.715   1.935 -0.1219 -0.6446 -0.7406
10226TIP3    H252094   6.832   5.688   2.084 -0.1882 -1.6333 -0.9134
10227TIP3   OH252095   1.205   3.223  16.957 -0.0771  0.1615 -0.7566
10227TIP3    H152096   1.204   3.193  17.048  0.5840  0.6672 -0.5852
10227TIP3    H252097   1.113   3.239  16.936 -0.2721 -0.4031 -0.3261
10228TIP3   OH252098   0.332   2.410   0.610 -0.0739  0.3215 -0.0201
10228TIP3    H152099   0.339   2.486   0.552  0.7000 -0.0531 -0.4202
10228TIP3    H252100   0.357   2.444   0.696 -2.1889  1.1139  0.3053
10229TIP3   OH252101   6.648   2.925   6.603  0.1936 -0.8672  0.1831
10229TIP3    H152102   6.637   2.920   6.698 -1.5685  0.8539  0.1039
10229TIP3    H252103   6.735   2.964   6.591 -0.2668  0.4539  1.1068
10230TIP3   OH252104   4.488   4.114   4.639 -0.1682 -0.0002 -0.5320
10230TIP3    H152105   4.521   4.029   4.667  0.4223  0.6042  0.6577
10230TIP3    H252106   4.552   4.145   4.575 -0.2233 -0.3148 -0.7397
10231TIP3   OH252107   0.581   2.177   1.534  0.0896 -0.5726  0.4402
10231TIP3    H152108   0.628   2.145   1.457  1.3076 -0.6954  1.2210
10231TIP3    H252109   0.530   2.102   1.564 -0.1116 -0.6272 -0.0230
10232TIP3   OH252110   1.247   3.025   5.845 -0.3073 -0.4828  0.0109
10232TIP3    H152111   1.239   2.933   5.821 -0.6534 -0.7607  1.1689
10232TIP3    H252112   1.261   3.024   5.940  3.5736  0.4793 -0.4842
10233TIP3   OH252113   2.340   1.409   5.860 -0.7602  0.6267 -0.1572
10233TIP3    H152114   2.386   1.332   5.826  0.2830  1.2909 -0.2895
10233TIP3    H252115   2.323   1.388   5.952  0.8118  0.8069  0.1911
10234TIP3   OH252116   3.982   6.765   3.641  0.2627 -0.2179 -0.0083
10234TIP3    H152117   3.961   6.672   3.639  0.5495 -0.3028  0.8307
10234TIP3    H252118   4.055   6.773   3.702  0.6901  0.4697 -0.6047
10235TIP3   OH252119   3.338   4.221  16.986  0.0027 -0.1649 -0.3371
10235TIP3    H152120   3.283   4.254  16.915  0.0128  0.4798 -0.0499
10235TIP3    H252121   3.328   4.286  17.056  1.0207 -0.1165 -0.2324
10236TIP3   OH252122   5.176   2.310   2.371  0.1001 -0.0106 -0.2665
10236TIP3    H152123   5.139   2.362   2.442 -0.3166 -0.0084 -0.4854
10236TIP3    H252124   5.213   2.233   2.414  1.8614  1.0823  0.2000
10237TIP3   OH252125   0.420   2.675  12.069  0.4806  0.2208 -0.6096
10237TIP3    H152126   0.501   2.671  12.018  0.4679  0.9327 -0.6875
10237TIP3    H252127   0.439   2.734  12.141  0.4422 -0.6620  0.1330
10238TIP3   OH252128   2.744   1.852   0.059 -0.6282 -0.4483  0.3239
10238TIP3    H152129   2.792   1.834   0.139  0.8294 -0.7685 -0.6077
10238TIP3    H252130   2.662   1.804   0.069  0.8507 -3.0695  0.3029
10239TIP3   OH252131   4.297   6.465  16.032 -0.4083  0.1856 -0.0635
10239TIP3    H152132   4.275   6.467  15.939 -2.0002 -1.9353  0.2169
10239TIP3    H252133   4.328   6.553  16.051  0.2429  0.5613 -2.6698
10240TIP3   OH252134   3.094   5.588  15.794 -0.5271 -0.0778 -0.0123
10240TIP3    H152135   3.130   5.621  15.711  0.1671 -1.8626 -0.4420
10240TIP3    H252136   3.168   5.545  15.836 -1.3072 -0.7035  0.7299
10241TIP3   OH252137   4.597   5.685  17.183  0.0163 -0.7203  0.1826
10241TIP3    H152138   4.670   5.644  17.136  1.2731  1.7862 -0.1606
10241TIP3    H252139   4.538   5.713  17.114  0.7004  0.8181  0.1966
10242TIP3   OH252140   2.887   5.541   2.900  0.0459  0.2627 -0.0768
10242TIP3    H152141   2.943   5.617   2.918 -0.3830  0.7539 -0.7656
10242TIP3    H252142   2.940   5.485   2.843 -0.4114  1.0700 -1.3185
10243TIP3   OH252143   2.704   5.107  16.602  0.1813  0.6732 -0.2882
10243TIP3    H152144   2.785   5.155  16.616  0.0213  0.7435  0.4145
10243TIP3    H252145   2.667   5.146  16.522 -0.3313  2.2710  0.7002
10244TIP3   OH252146   5.105   1.644   0.092  0.1704 -0.1175 -0.3420
10244TIP3    H152147   5.067   1.558   0.112  0.7665 -0.7794 -1.9540
10244TIP3    H252148   5.120   1.684   0.177 -1.7560 -0.8777  0.3949
10245TIP3   OH252149   4.842   4.040  17.214  0.5437 -0.0338  0.7893
10245TIP3    H152150   4.911   4.044  17.148 -1.4453  3.0854 -1.2521
10245TIP3    H252151   4.783   3.971  17.183  1.0103 -0.4234  0.7659
10246TIP3   OH252152   4.675   0.358  13.653  0.0034  0.3594 -0.3968
10246TIP3    H152153   4.711   0.274  13.624  2.0643 -0.4001  3.9391
10246TIP3    H252154   4.586   0.336  13.681  0.6731 -0.4906  1.1066
10247TIP3   OH252155   5.484   3.596  14.313  0.2966  0.0746 -0.3305
10247TIP3    H152156   5.483   3.514  14.264  1.1606  0.7523 -1.4805
10247TIP3    H252157   5.447   3.572  14.398  0.1130 -1.4086 -0.8016
10248TIP3   OH252158   6.690   4.035  14.406  0.1065  0.0573  0.1745
10248TIP3    H152159   6.767   3.991  14.371  0.6316  0.2271  1.1049
10248TIP3    H252160   6.656   4.086  14.332 -0.0606 -1.2867 -0.6893
10249TIP3   OH252161   5.053   3.501  13.885  0.0115  0.1280 -0.2176
10249TIP3    H152162   5.016   3.580  13.847  3.2267  0.9127 -1.8838
10249TIP3    H252163   4.986   3.433  13.870 -2.6330  2.3883  0.9563
10250TIP3   OH252164   5.555   0.658   5.718  0.1754  0.4852  0.3586
10250TIP3    H152165   5.554   0.681   5.811 -3.1449 -0.6107  0.6689
10250TIP3    H252166   5.525   0.737   5.674 -1.3250  0.0414  0.5395
10251TIP3   OH252167   2.952   6.347   4.978 -0.0873  0.2833 -0.1203
10251TIP3    H152168   2.980   6.304   4.898  2.3695  1.7977 -0.1183
10251TIP3    H252169   2.958   6.441   4.959  1.1903  0.6774  2.0239
10252TIP3   OH252170   6.140   6.092   0.600 -0.2128 -0.0955 -0.6203
10252TIP3    H152171   6.053   6.110   0.637 -0.2374 -1.6633  0.1366
10252TIP3    H252172   6.124   6.024   0.534  0.4471 -0.4376 -0.4280
10253TIP3   OH252173   2.681   1.619  13.450 -0.3032  0.4014 -0.2368
10253TIP3    H152174   2.586   1.605  13.451 -0.3663  0.5487 -2.2253
10253TIP3    H252175   2.692   1.706  13.411  0.6254  0.6837  0.6419
10254TIP3   OH252176   2.027   6.203   5.163 -0.1849 -0.8701  0.0145
10254TIP3    H152177   1.996   6.127   5.113 -2.0448  0.0337 -0.2422
10254TIP3    H252178   1.957   6.220   5.226 -0.1215  1.0613 -0.4060
10255TIP3   OH252179   2.850   5.952  17.100  0.2754 -0.8833  0.2294
10255TIP3    H152180   2.883   5.863  17.086 -0.6968 -1.0502 -1.0907
10255TIP3    H252181   2.929   6.006  17.099  0.9256 -1.7863  1.6096
10256TIP3   OH252182   6.687   1.975   5.338 -0.0997 -0.0525  0.1529
10256TIP3    H152183   6.597   1.957   5.363 -0.0560  0.2924  0.5607
10256TIP3    H252184   6.709   2.058   5.381 -0.3422  1.0741 -1.8623
10257TIP3   OH252185   2.743   2.941  10.778  0.5961  0.4465  0.7513
10257TIP3    H152186   2.836   2.959  10.783  0.7592 -0.1840 -0.0281
10257TIP3    H252187   2.731   2.893  10.696 -0.4194  0.5904  0.8016
10258TIP3   OH252188   6.315   4.848   3.605  0.4873 -0.6561 -0.1038
10258TIP3    H152189   6.363   4.899   3.669  0.8785 -1.5882  0.3573
10258TIP3    H252190   6.358   4.762   3.605  0.2676 -0.7857 -1.3407
10259TIP3   OH252191   5.189   3.371   3.171 -0.4217  0.2846 -0.6057
10259TIP3    H152192   5.148   3.366   3.257  0.8151 -0.5795 -0.0536
10259TIP3    H252193   5.130   3.323   3.113 -2.5455  3.0023 -0.7680
10260TIP3   OH252194   1.483   2.724  14.321  0.0960  0.7355  0.5299
10260TIP3    H152195   1.563   2.764  14.355 -0.1052  1.6974 -0.1156
10260TIP3    H252196   1.484   2.635  14.356  2.1421  0.2899 -0.5814
10261TIP3   OH252197   4.627   1.401  13.724 -0.0902  0.1430 -0.3347
10261TIP3    H152198   4.564   1.349  13.675 -1.2285 -0.6608  1.9171
10261TIP3    H252199   4.574   1.454  13.783  1.2267  1.5573 -0.3950
10262TIP3   OH252200   1.516   6.378  17.006 -0.0637  0.9420  0.0456
10262TIP3    H152201   1.453   6.356  17.075  1.6072  1.4611  1.7628
10262TIP3    H252202   1.601   6.371  17.048  0.9312  2.3383 -1.6756
10263TIP3   OH252203   2.486   6.776   1.749 -0.0593 -0.2182 -0.2945
10263TIP3    H152204   2.409   6.729   1.781 -1.0277  1.6161  0.1390
10263TIP3    H252205   2.469   6.867   1.771  1.4604  0.4393 -1.7571
10264TIP3   OH252206   5.956   1.294   4.359  0.2684  0.3537 -0.2673
10264TIP3    H152207   5.881   1.258   4.313 -1.2139 -1.6318  3.4897
10264TIP3    H252208   6.006   1.218   4.389  0.8668  1.5138  1.8410
10265TIP3   OH252209   6.115   4.451   3.479 -0.3767  0.3353  0.1453
10265TIP3    H152210   6.090   4.372   3.431  1.4196 -0.3381  0.2516
10265TIP3    H252211   6.044   4.513   3.463 -0.6751 -0.4858 -1.9043
10266TIP3   OH252212   1.071   5.544   3.859 -0.5478  0.1878 -0.7430
10266TIP3    H152213   1.034   5.522   3.774 -0.9858  0.5921 -0.6617
10266TIP3    H252214   1.086   5.638   3.855  0.8011 -0.0339 -0.8966
10267TIP3   OH252215   0.965   0.066  14.526 -0.3237  0.4444 -0.3811
10267TIP3    H152216   0.930   0.098  14.442  0.2507 -0.4653 -0.9693
10267TIP3    H252217   1.055   0.099  14.529  0.1686 -0.8543 -0.8465
10268TIP3   OH252218   0.511   6.575   5.066  0.2778  0.4115  0.3324
10268TIP3    H152219   0.532   6.661   5.027 -0.7413  0.9675  1.0004
10268TIP3    H252220   0.590   6.523   5.051  1.2046  1.7084  0.6046
10269TIP3   OH252221   2.919   0.083   4.463 -0.1458 -0.1941 -0.1510
10269TIP3    H152222   2.862   0.138   4.409  0.1602 -0.4468 -0.7342
10269TIP3    H252223   2.867   0.004   4.479  0.1004 -0.5021 -0.8340
10270TIP3   OH252224   2.500   3.611  11.245  0.7211 -0.0810 -0.3300
10270TIP3    H152225   2.503   3.666  11.167  3.6909 -1.6003 -1.3394
10270TIP3    H252226   2.504   3.674  11.318  0.2242  1.2027 -1.3869
10271TIP3   OH252227   2.874   2.594   6.334 -0.1451 -0.2980 -0.4045
10271TIP3    H152228   2.829   2.678   6.327  0.9389  0.3397  0.1630
10271TIP3    H252229   2.818   2.541   6.390  0.4738  0.9445  1.4068
10272TIP3   OH252230   6.664   3.204   4.145  0.1701  0.2055  0.3988
10272TIP3    H152231   6.744   3.182   4.096  0.2076 -0.2677  0.6667
10272TIP3    H252232   6.656   3.299   4.136  0.1282  0.1185 -0.5989
10273TIP3   OH252233   0.736   5.163   2.208 -0.0807 -0.0176 -0.0367
10273TIP3    H152234   0.686   5.214   2.144  1.7965  1.1746 -0.5677
10273TIP3    H252235   0.802   5.116   2.157  0.3136 -0.4384  0.8372
10274TIP3   OH252236   4.184   2.337  12.885  0.4476  0.0717 -0.3502
10274TIP3    H152237   4.225   2.376  12.962 -0.9466 -1.1790  1.0713
10274TIP3    H252238   4.239   2.262  12.863 -0.1715 -0.6780  0.5985
10275TIP3   OH252239   4.747   1.279   3.879 -0.4558 -0.3323 -0.6923
10275TIP3    H152240   4.765   1.186   3.861 -0.7139 -0.5302  0.0893
10275TIP3    H252241   4.734   1.317   3.792  2.9098 -0.3537 -1.3048
10276TIP3   OH252242   1.472   2.427  15.060  0.5089 -0.0080 -0.3957
10276TIP3    H152243   1.478   2.522  15.061  1.8748 -0.0412 -2.1378
10276TIP3    H252244   1.379   2.408  15.056  0.2346  1.2589 -0.1211
10277TIP3   OH252245   1.924   6.245  10.552  0.5853  0.2638  0.1194
10277TIP3    H152246   1.877   6.249  10.635  0.9398  0.1862  0.3263
10277TIP3    H252247   1.858   6.223  10.487  0.0836  1.4962  0.2007
10278TIP3   OH252248   4.287   1.832  16.892  0.2192 -0.1078  0.0159
10278TIP3    H152249   4.320   1.882  16.967  0.2859  1.7739 -1.2139
10278TIP3    H252250   4.198   1.866  16.878  0.2329 -0.3839 -0.7762
10279TIP3   OH252251   0.346   6.065  17.156  0.2229 -0.2881  0.6256
10279TIP3    H152252   0.276   6.022  17.205 -2.1113  2.0153 -0.5676
10279TIP3    H252253   0.406   5.994  17.131 -1.2178 -2.1714  2.3945
10280TIP3   OH252254   3.454   5.979   5.301 -0.2480  0.4360 -0.2806
10280TIP3    H152255   3.415   5.906   5.349  1.6367  0.7001  1.7295
10280TIP3    H252256   3.399   6.054   5.321  0.8966  0.6786  2.0389
10281TIP3   OH252257   5.335   6.539   3.605 -0.3365 -0.1953  0.3748
10281TIP3    H152258   5.295   6.625   3.592 -0.8534 -0.3507  0.9426
10281TIP3    H252259   5.286   6.499   3.677 -0.2337 -1.0506 -0.0166
10282TIP3   OH252260   2.729   2.102   2.438  0.2052 -0.3128 -0.1938
10282TIP3    H152261   2.701   2.031   2.496 -0.4520 -0.8205 -1.1215
10282TIP3    H252262   2.652   2.159   2.432  0.1567 -0.4516 -0.8530
10283TIP3   OH252263   2.298   2.006   0.318 -0.0274  0.3175  0.5689
10283TIP3    H152264   2.360   2.041   0.381 -0.4991 -1.0552  1.8142
10283TIP3    H252265   2.253   1.935   0.364 -2.0896  0.8720 -0.5011
10284TIP3   OH252266   6.346   0.783  16.111  0.3294  0.0769  0.3308
10284TIP3    H152267   6.278   0.723  16.082  0.4124 -0.8518  1.9657
10284TIP3    H252268   6.400   0.731  16.171  1.7040  1.1685  0.0697
10285TIP3   OH252269   4.321   6.742  11.520  0.5247  0.4025 -0.2204
10285TIP3    H152270   4.274   6.812  11.474 -0.2379  1.1738  1.6979
10285TIP3    H252271   4.273   6.662  11.496  1.6601  0.4272 -2.7674
10286TIP3   OH252272   0.357   6.641   1.355 -0.5014  0.6908  0.2832
10286TIP3    H152273   0.271   6.666   1.322 -0.7197  0.0442  0.3506
10286TIP3    H252274   0.355   6.662   1.448 -0.3281  1.3566  0.1361
10287TIP3   OH252275   1.162   0.960  11.086  0.2669 -0.7516 -0.4378
10287TIP3    H152276   1.175   0.881  11.033 -0.5336 -0.9942 -0.2806
10287TIP3    H252277   1.097   1.011  11.036  2.9751  1.2261 -2.0867
10288TIP3   OH252278   2.482   5.806   1.043  0.0081  0.2469  0.4657
10288TIP3    H152279   2.451   5.718   1.022  0.0126  0.6878 -1.4450
10288TIP3    H252280   2.408   5.863   1.022  0.5111  0.8438  0.2887
10289TIP3   OH252281   5.148   0.564  12.059 -0.0044  0.1877 -0.1467
10289TIP3    H152282   5.165   0.659  12.056  1.5320 -0.0771 -0.2642
10289TIP3    H252283   5.059   0.555  12.027 -0.5436  1.6964  0.8714
10290TIP3   OH252284   0.434   3.641   1.568 -0.3226 -0.6949 -0.0751
10290TIP3    H152285   0.379   3.646   1.490 -0.4599 -0.5022  0.0353
10290TIP3    H252286   0.419   3.553   1.603 -2.0204  0.0149  1.0321
10291TIP3   OH252287   2.364   6.787  14.739  1.2505  0.3513 -0.5024
10291TIP3    H152288   2.436   6.798  14.676  1.5372  0.2329 -0.1962
10291TIP3    H252289   2.286   6.809  14.689  1.3779 -0.7140 -1.1912
10292TIP3   OH252290   5.690   6.493   3.423 -0.4394 -0.4598  0.2527
10292TIP3    H152291   5.657   6.419   3.474  0.5667 -0.9788  0.1741
10292TIP3    H252292   5.783   6.500   3.448  0.9184 -2.6460 -3.7162
10293TIP3   OH252293   5.850   6.031  16.306 -0.0051  0.0319  0.2772
10293TIP3    H152294   5.916   6.005  16.242  0.9371 -0.3337  1.3939
10293TIP3    H252295   5.792   6.090  16.258  1.0411  0.2360 -0.7488
10294TIP3   OH252296   5.130   4.981   4.205  0.4116  0.5671 -0.1874
10294TIP3    H152297   5.226   4.984   4.204  0.4075  1.2365  0.4891
10294TIP3    H252298   5.108   4.892   4.178  1.1929  0.8888 -1.9155
10295TIP3   OH252299   4.872   3.789   5.210  0.6029  0.2377  0.3291
10295TIP3    H152300   4.901   3.878   5.192 -1.8537  1.0694  0.2826
10295TIP3    H252301   4.822   3.795   5.291 -2.0760 -0.5074 -1.1774
10296TIP3   OH252302   1.475   6.425  15.996  0.6159  0.5607  0.1953
10296TIP3    H152303   1.565   6.396  16.003  0.2520 -0.6549 -0.0532
10296TIP3    H252304   1.426   6.366  16.053 -0.1733  0.5072 -0.5292
10297TIP3   OH252305   0.038   0.761  14.842 -0.2529 -0.4189  0.5842
10297TIP3    H152306   0.099   0.752  14.769 -0.8567 -2.0611  0.2555
10297TIP3    H252307  -0.035   0.812  14.806  0.2929  0.3660  0.5812
10298TIP3   OH252308   1.987   5.023   3.078 -0.0818 -0.2042  0.2074
10298TIP3    H152309   1.900   5.020   3.037  0.4367  1.6053 -1.1202
10298TIP3    H252310   1.980   5.093   3.143  0.7292  0.8233 -0.7940
10299TIP3   OH252311   4.406   5.741   5.466 -0.6265  0.6111  0.1497
10299TIP3    H152312   4.356   5.702   5.394  1.5556  0.5125 -1.3921
10299TIP3    H252313   4.379   5.693   5.544 -2.8784  0.5524 -0.6430
10300TIP3   OH252314   1.329   4.853  12.591 -0.0728  0.0470  0.4141
10300TIP3    H152315   1.273   4.781  12.622  0.2603 -0.5546 -0.3722
10300TIP3    H252316   1.390   4.868  12.663 -1.4692  0.9605  1.4348
10301TIP3   OH252317   4.527   4.107   0.106 -0.0233 -0.6052  0.0329
10301TIP3    H152318   4.584   4.178   0.080 -1.0065 -0.3963 -1.5820
10301TIP3    H252319   4.560   4.080   0.192  1.7022  0.3343 -0.3166
10302TIP3   OH252320   6.412   0.879  12.486  0.1334  0.0990 -0.0394
10302TIP3    H152321   6.451   0.891  12.573 -1.1179 -0.5874  0.6281
10302TIP3    H252322   6.373   0.963  12.465  1.1470  0.5054 -0.2871
10303TIP3   OH252323   0.255   0.930  14.643  0.0088  0.5250 -0.4928
10303TIP3    H152324   0.220   0.847  14.613  0.7139 -0.1020  0.3724
10303TIP3    H252325   0.273   0.980  14.563  0.0599 -0.3564 -1.0335
10304TIP3   OH252326   4.497   2.443  14.360  0.2935  0.1604  1.1206
10304TIP3    H152327   4.504   2.361  14.410  0.9978 -0.8755 -0.6080
10304TIP3    H252328   4.580   2.488  14.376  1.0915 -0.8091 -0.1501
10305TIP3   OH252329   1.020   4.264   3.705  0.0108  0.2726 -0.1475
10305TIP3    H152330   1.000   4.352   3.737  1.5250  0.4523  0.2946
10305TIP3    H252331   1.088   4.231   3.763  0.8642 -0.4357 -1.5330
10306TIP3   OH252332   6.416   3.447  12.275 -1.1330 -0.0330 -0.1259
10306TIP3    H152333   6.445   3.382  12.211 -0.3074 -1.1158  1.3204
10306TIP3    H252334   6.393   3.524  12.222 -0.9816 -1.0842 -1.7575
10307TIP3   OH252335   0.635   3.892   0.635 -0.0349 -0.1904  0.0634
10307TIP3    H152336   0.540   3.897   0.636  0.0172  0.8820 -0.2116
10307TIP3    H252337   0.654   3.798   0.626 -1.0508 -0.5028  0.9982
10308TIP3   OH252338   2.366   6.309  11.210 -0.6615  0.9130  0.1393
10308TIP3    H152339   2.292   6.345  11.259 -2.4845 -0.8057 -1.2749
10308TIP3    H252340   2.328   6.280  11.127  0.7474 -3.7134  0.9892
10309TIP3   OH252341   1.976   4.393   1.886  0.0672  0.6779  0.4050
10309TIP3    H152342   2.042   4.334   1.924 -0.0369  0.5050  0.3169
10309TIP3    H252343   1.893   4.348   1.900  0.1970 -0.3019 -1.7200
10310TIP3   OH252344   2.311   5.576   4.230  0.7131  0.1479  0.1652
10310TIP3    H152345   2.397   5.537   4.243  2.1304  3.5554  1.7560
10310TIP3    H252346   2.273   5.582   4.317  0.2318  1.5517 -0.1157
10311TIP3   OH252347   4.210   1.417  11.013  0.1175 -0.0219  0.2631
10311TIP3    H152348   4.262   1.472  10.954 -0.2473 -0.5357 -0.5467
10311TIP3    H252349   4.260   1.336  11.020 -0.0438 -0.1152  0.3429
10312TIP3   OH252350   6.685   2.597   2.739 -0.2913 -0.0673  0.2885
10312TIP3    H152351   6.677   2.553   2.654 -1.8911 -0.8313  0.8166
10312TIP3    H252352   6.693   2.526   2.802  3.1915  0.5272  0.6019
10313TIP3   OH252353   0.777   5.668   4.461 -0.2747  0.0155  0.0933
10313TIP3    H152354   0.745   5.600   4.520  0.7258  1.3350  2.2051
10313TIP3    H252355   0.773   5.628   4.374 -1.0983 -2.2158  1.1249
10314TIP3   OH252356   3.096   4.937   5.327  0.1845  0.3612  0.4460
10314TIP3    H152357   3.043   5.016   5.329  0.2244  0.4020 -0.0388
10314TIP3    H252358   3.037   4.868   5.358 -1.4071 -0.3045 -3.7901
10315TIP3   OH252359   1.087   3.305  14.952  0.2370  0.0658 -0.3267
10315TIP3    H152360   1.084   3.272  15.042  1.7720  1.0589  0.1196
10315TIP3    H252361   1.035   3.385  14.954 -0.1894 -0.2079 -0.4572
10316TIP3   OH252362   1.889   1.350  12.738  0.4839 -0.1724 -0.3937
10316TIP3    H152363   1.901   1.442  12.713  1.0673  0.0955  0.8343
10316TIP3    H252364   1.821   1.353  12.805  2.0520 -0.3860  1.2331
10317TIP3   OH252365   3.704   0.501   5.425  0.3130  0.0190  0.1862
10317TIP3    H152366   3.795   0.499   5.454  0.5911 -2.3364 -0.7456
10317TIP3    H252367   3.686   0.412   5.394 -1.6513  0.9982 -1.6584
10318TIP3   OH252368   0.066   3.949  16.105 -0.8843 -0.1261 -0.1337
10318TIP3    H152369   0.031   3.892  16.036 -0.6987 -2.3590  1.5728
10318TIP3    H252370  -0.010   3.996  16.138 -1.2722 -0.3867 -0.6516
10319TIP3   OH252371   3.189   1.251  12.487  0.1430 -0.2340 -0.5920
10319TIP3    H152372   3.281   1.230  12.470  0.3601 -0.1734  0.4667
10319TIP3    H252373   3.141   1.171  12.464  0.4259 -0.1467 -1.4753
10320TIP3   OH252374   1.004   0.373   5.770 -0.2921  0.3305 -0.0511
10320TIP3    H152375   1.020   0.438   5.701 -1.9553  2.7122  1.7224
10320TIP3    H252376   1.041   0.412   5.849 -1.6664 -0.7154  1.1362
10321TIP3   OH252377   6.204   6.482  15.796  0.4593  0.3885 -0.4707
10321TIP3    H152378   6.194   6.458  15.704  0.5683  0.4574 -0.4996
10321TIP3    H252379   6.290   6.449  15.821  0.2298 -0.0528 -0.2611
10322TIP3   OH252380   3.089   2.709   6.478  0.3173  0.2368 -0.7533
10322TIP3    H152381   3.004   2.683   6.514 -0.4807  0.0895 -2.6980
10322TIP3    H252382   3.144   2.632   6.490 -0.0073  0.1127 -0.0514
10323TIP3   OH252383   2.164   5.159   3.675 -0.0828 -0.4978 -0.4768
10323TIP3    H152384   2.107   5.140   3.749 -1.0878  1.3802 -0.7537
10323TIP3    H252385   2.251   5.171   3.715 -0.6489  0.6975  0.4416
10324TIP3   OH252386   6.675   0.743  11.949  0.2908 -0.0791  0.0171
10324TIP3    H152387   6.748   0.766  11.893  1.2349 -0.1211  1.2126
10324TIP3    H252388   6.685   0.649  11.964  0.2096 -0.0117  0.4914
10325TIP3   OH252389   4.825   3.630  15.968  0.4716  0.3203  0.0900
10325TIP3    H152390   4.765   3.705  15.966  1.6336  1.2297 -1.1931
10325TIP3    H252391   4.875   3.641  16.049 -0.2965  0.1543  0.6039
10326TIP3   OH252392   2.840   5.169  16.282  0.4207  0.3367  0.4491
10326TIP3    H152393   2.763   5.197  16.331 -0.4123 -0.8646 -0.1482
10326TIP3    H252394   2.876   5.095  16.333  1.4234  1.1425  0.9396
10327TIP3   OH252395   3.031   5.471   1.354  0.3127 -0.4458 -0.4586
10327TIP3    H152396   3.086   5.536   1.398 -4.3289  2.6884  1.0505
10327TIP3    H252397   3.017   5.402   1.419 -1.8837  1.4167  1.1108
10328TIP3   OH252398   2.222   1.090   5.605  0.0424  0.2555  0.3932
10328TIP3    H152399   2.232   1.085   5.700  0.8607 -0.5857  0.2741
10328TIP3    H252400   2.275   1.017   5.571 -1.1810 -0.1668 -0.6482
10329TIP3   OH252401   5.073   3.847  12.668  0.6208  0.3375 -0.0042
10329TIP3    H152402   5.038   3.936  12.664  0.1051  0.1043 -0.9951
10329TIP3    H252403   5.162   3.857  12.700  0.1985  1.1012  0.9547
10330TIP3   OH252404   5.720   2.898   0.234 -0.4387 -0.3764 -0.1386
10330TIP3    H152405   5.674   2.868   0.156  0.3629  2.2275 -1.6629
10330TIP3    H252406   5.653   2.937   0.289 -0.2771  2.6806 -1.9948
10331TIP3   OH252407   2.001   6.549   0.411  1.1592 -0.4941  0.0100
10331TIP3    H152408   2.049   6.586   0.337  2.1009 -0.4170  0.6613
10331TIP3    H252409   1.926   6.505   0.371  2.3712 -1.5899 -1.0848
10332TIP3   OH252410   1.833   0.305  12.584 -0.1859 -0.3177 -0.1347
10332TIP3    H152411   1.882   0.224  12.597 -0.8938 -0.5966  0.8527
10332TIP3    H252412   1.761   0.281  12.526  1.3422  0.2994 -2.3689
10333TIP3   OH252413   4.150   3.883  12.109 -0.8233  0.4598 -0.0143
10333TIP3    H152414   4.180   3.845  12.192  0.3900 -0.2885 -0.7646
10333TIP3    H252415   4.183   3.822  12.043 -1.4217  1.2728 -1.0645
10334TIP3   OH252416   3.053   0.169  16.151  0.0243  0.0702  0.6741
10334TIP3    H152417   2.996   0.226  16.202 -0.5381 -0.6116  0.8273
10334TIP3    H252418   3.035   0.081  16.184 -1.2607 -0.5283 -1.5021
10335TIP3   OH252419   1.952   6.543   3.853 -0.5557 -0.1641 -0.6515
10335TIP3    H152420   1.968   6.625   3.807 -0.1704  0.2126  0.1527
10335TIP3    H252421   1.965   6.564   3.946  0.2811 -1.3062 -0.4991
10336TIP3   OH252422   2.394   4.021  12.541  0.3703 -0.2374 -0.9165
10336TIP3    H152423   2.316   4.024  12.595  1.1744  1.1160  0.2245
10336TIP3    H252424   2.362   4.030  12.451 -0.6952  1.5128 -0.3759
10337TIP3   OH252425   3.916   0.109  15.443 -0.0528 -0.4278 -0.5462
10337TIP3    H152426   3.944   0.191  15.484  0.5055 -0.5321 -0.7160
10337TIP3    H252427   3.829   0.093  15.480 -0.4937  0.6383 -1.1069
10338TIP3   OH252428   0.867   5.052   0.166 -0.3529 -0.5178 -0.0017
10338TIP3    H152429   0.773   5.064   0.184 -0.2356  0.1233  0.1920
10338TIP3    H252430   0.876   5.070   0.073  0.0259  2.2240  0.5319
10339TIP3   OH252431   1.088   2.725   3.855 -0.4011 -0.2963 -0.7578
10339TIP3    H152432   1.164   2.774   3.888 -0.6684 -0.4142  0.0502
10339TIP3    H252433   1.103   2.635   3.885 -0.8088 -0.3378 -0.6711
10340TIP3   OH252434   1.403   1.045   4.875 -0.0597 -0.0368  0.2710
10340TIP3    H152435   1.468   0.989   4.918 -0.1422  0.3027  0.8370
10340TIP3    H252436   1.340   1.065   4.944 -0.6475 -0.1817 -0.2200
10341TIP3   OH252437   5.385   3.654   0.229 -0.0769 -0.0432  0.2814
10341TIP3    H152438   5.291   3.655   0.212 -0.3018 -1.0916  1.3376
10341TIP3    H252439   5.423   3.617   0.150 -0.4324  1.4548 -0.6094
10342TIP3   OH252440   5.760   1.213  11.429  0.4531  0.4014  0.0688
10342TIP3    H152441   5.711   1.202  11.347 -0.8887  4.4670  0.1975
10342TIP3    H252442   5.706   1.171  11.496 -0.8687  1.2848 -0.4271
10343TIP3   OH252443   2.924   0.336   5.905 -0.4618  0.8551  0.2475
10343TIP3    H152444   2.894   0.325   5.995  0.7315 -0.6834  0.4885
10343TIP3    H252445   2.861   0.395   5.865 -0.3233  2.5334  2.4374
10344TIP3   OH252446   3.527   2.463   3.475 -0.0587 -0.1710  0.3968
10344TIP3    H152447   3.435   2.448   3.453 -0.0754 -1.1075  1.0856
10344TIP3    H252448   3.524   2.511   3.558  0.0695  0.0960  0.2466
10345TIP3   OH252449   1.611   2.757  16.222 -0.0651 -0.5575  0.4500
10345TIP3    H152450   1.619   2.793  16.311 -1.4136  1.8033 -0.3278
10345TIP3    H252451   1.701   2.756  16.189  0.4790 -1.6415  1.8986
10346TIP3   OH252452   2.394   4.267   0.789  0.4001 -0.5172 -0.0464
10346TIP3    H152453   2.426   4.357   0.790 -1.2180  0.1037 -0.8534
10346TIP3    H252454   2.444   4.224   0.720 -0.0927  0.2736 -0.9074
10347TIP3   OH252455   5.414   1.931   3.543  0.5208 -0.1307  0.0428
10347TIP3    H152456   5.459   1.983   3.476  3.2386 -1.3261  0.8694
10347TIP3    H252457   5.476   1.861   3.565 -2.3954 -2.8177  0.1092
10348TIP3   OH252458   5.099   2.169   1.115  0.0779 -0.0671  0.3877
10348TIP3    H152459   5.103   2.188   1.021 -0.3006 -0.5939  0.2660
10348TIP3    H252460   5.022   2.113   1.125 -0.1200  0.3292  1.0719
10349TIP3   OH252461   5.393   2.673   2.066 -0.7474 -0.6073  0.1239
10349TIP3    H152462   5.488   2.666   2.070 -0.6112 -0.4875 -2.3280
10349TIP3    H252463   5.367   2.614   1.995 -2.3914  0.2690 -0.0376
10350TIP3   OH252464   6.488   1.882   6.340  0.5699 -0.4592  0.0601
10350TIP3    H152465   6.571   1.868   6.386 -0.3745 -2.1207  1.2913
10350TIP3    H252466   6.454   1.964   6.376  0.2906 -1.2637  1.6872
10351TIP3   OH252467   5.900   1.650   5.145  1.0322  0.3362 -0.0570
10351TIP3    H152468   5.984   1.604   5.151  0.1197 -1.1986  1.2743
10351TIP3    H252469   5.851   1.603   5.077  0.7733  0.4654  0.0393
10352TIP3   OH252470   0.802   5.007  13.220  0.2782  0.6432 -0.1902
10352TIP3    H152471   0.725   5.063  13.225 -1.7242 -2.1654  1.6788
10352TIP3    H252472   0.799   4.970  13.131 -1.8949 -1.2370  0.6139
10353TIP3   OH252473   3.310   6.292  15.762 -0.3121 -0.3195 -0.0350
10353TIP3    H152474   3.293   6.354  15.691 -1.3744  1.8593  2.0331
10353TIP3    H252475   3.230   6.240  15.769 -0.3994 -0.1987 -0.1338
10354TIP3   OH252476   2.657   0.518  16.608  0.2675  0.1431  0.4407
10354TIP3    H152477   2.602   0.449  16.571  1.2574 -0.9735  1.0110
10354TIP3    H252478   2.598   0.593  16.617 -1.3022 -1.1896  1.5618
10355TIP3   OH252479   2.075   6.553  15.528  0.0812 -0.3651 -0.7613
10355TIP3    H152480   2.060   6.607  15.450 -0.5687 -1.5182 -1.4486
10355TIP3    H252481   2.170   6.542  15.532  0.4881  2.9768  0.8742
10356TIP3   OH252482   5.597   3.573  16.587 -0.8643 -0.4424 -1.3017
10356TIP3    H152483   5.524   3.634  16.574  0.0772  1.2462  1.0271
10356TIP3    H252484   5.661   3.597  16.520 -0.7584  0.7686 -0.7821
10357TIP3   OH252485   3.174   5.076  13.036  0.2173 -0.3086  0.3274
10357TIP3    H152486   3.194   5.053  13.126 -1.7746 -0.0494  0.8500
10357TIP3    H252487   3.131   4.998  13.000 -0.2767  0.1010  0.0245
10358TIP3   OH252488   5.804   1.283  14.919 -0.0075  0.2208  0.5793
10358TIP3    H152489   5.827   1.375  14.936 -1.3077  0.6864 -0.0943
10358TIP3    H252490   5.718   1.287  14.878 -0.5710 -1.3778  1.5632
10359TIP3   OH252491   0.130   2.474   1.683 -0.0010  0.4416  0.4260
10359TIP3    H152492   0.207   2.497   1.734  0.2692 -0.5276  0.4639
10359TIP3    H252493   0.150   2.387   1.647 -2.0404 -0.8916  2.3966
10360TIP3   OH252494   2.123   1.031  17.180 -0.4314 -0.2468  0.0082
10360TIP3    H152495   2.123   0.940  17.149 -0.7223 -0.7600  1.5147
10360TIP3    H252496   2.213   1.046  17.209 -0.3177  0.0397 -0.4792
10361TIP3   OH252497   4.825   1.124  12.456  0.6779  0.1636 -0.2930
10361TIP3    H152498   4.806   1.218  12.454  1.5505  0.4501  2.8130
10361TIP3    H252499   4.756   1.087  12.512  2.2084 -0.5534  1.1569
10362TIP3   OH252500   4.045   6.021   4.862 -0.8923  0.3028 -0.7030
10362TIP3    H152501   3.996   6.041   4.783 -0.4150  2.5064 -0.4556
10362TIP3    H252502   3.979   5.994   4.926 -1.3560 -0.6463 -1.5641
10363TIP3   OH252503   0.773   2.064   0.143  0.2567  0.0795 -0.0437
10363TIP3    H152504   0.778   1.971   0.166  1.7079 -0.0652 -0.9099
10363TIP3    H252505   0.679   2.080   0.129 -0.1285 -0.9714  1.2098
10364TIP3   OH252506   0.859   3.178  13.104 -0.4889  0.2065  0.0328
10364TIP3    H152507   0.908   3.252  13.143  0.7628 -0.9847  0.7732
10364TIP3    H252508   0.779   3.173  13.156 -0.7018  1.1998 -0.1829
10365TIP3   OH252509   1.690   0.012  15.372 -0.2622  0.7177  0.7066
10365TIP3    H152510   1.594   0.015  15.363 -0.3885  1.5472  2.1087
10365TIP3    H252511   1.715  -0.071  15.331 -1.5074  0.8193 -0.2970
10366TIP3   OH252512   1.367   5.268   6.116  0.4294  0.6007 -0.0922
10366TIP3    H152513   1.442   5.233   6.163 -0.2370 -0.4701  0.2127
10366TIP3    H252514   1.311   5.191   6.100 -0.6497  1.3890 -0.2033
10367TIP3   OH252515   5.771   3.634  13.577  0.1369 -0.2504 -0.1412
10367TIP3    H152516   5.717   3.687  13.635  2.3556  0.9236  0.9167
10367TIP3    H252517   5.794   3.694  13.505 -0.3143 -0.8678 -0.8028
10368TIP3   OH252518   5.981   6.284   1.083  0.4113 -0.1973  0.6342
10368TIP3    H152519   5.973   6.198   1.041  0.3257 -0.2144  0.6857
10368TIP3    H252520   5.895   6.300   1.122  0.6641 -0.4391  1.2945
10369TIP3   OH252521   3.788   0.606  11.450 -0.0373  0.4517 -0.5344
10369TIP3    H152522   3.810   0.519  11.483 -0.1554  1.0781  1.2757
10369TIP3    H252523   3.693   0.608  11.446 -0.1707  1.3792  2.0449
10370TIP3   OH252524   1.881   1.024  12.902 -0.0066  0.5751 -0.1835
10370TIP3    H152525   1.851   0.934  12.885  2.3482 -0.3837  0.5119
10370TIP3    H252526   1.801   1.076  12.899 -1.7633 -1.8719  1.7329
10371TIP3   OH252527   4.018   6.072   2.803 -0.2950  0.0193 -0.0183
10371TIP3    H152528   4.016   5.979   2.825  0.6613 -0.2420 -1.0091
10371TIP3    H252529   4.059   6.114   2.879  1.5451 -0.6890 -0.5829
10372TIP3   OH252530   3.067   3.353   1.825 -0.0409  0.4610 -0.6144
10372TIP3    H152531   3.095   3.379   1.738  1.6378 -1.4630 -0.6848
10372TIP3    H252532   3.115   3.410   1.884  0.7079  0.1259 -0.8873
10373TIP3   OH252533   0.980   5.107  15.076  0.0076  0.1522 -0.3416
10373TIP3    H152534   1.032   5.134  15.152  0.5694 -1.3757 -0.1776
10373TIP3    H252535   0.923   5.182  15.059  0.6746  0.9570  0.8770
10374TIP3   OH252536   4.321   5.984  14.094 -0.0767  0.3341  0.1277
10374TIP3    H152537   4.238   6.028  14.075 -0.5842 -0.7218 -0.1886
10374TIP3    H252538   4.377   6.052  14.130 -0.3627  1.5594 -1.6777
10375TIP3   OH252539   6.757   4.295  12.384  0.2322  0.5002  0.6014
10375TIP3    H152540   6.685   4.334  12.334  0.5905  0.3567 -0.0433
10375TIP3    H252541   6.776   4.358  12.453  0.6126  1.3338 -0.2551
10376TIP3   OH252542   0.036   3.420   0.076  0.4170 -0.0070 -0.7462
10376TIP3    H152543  -0.003   3.507   0.070 -0.3520 -0.3302 -0.5346
10376TIP3    H252544   0.123   3.435   0.115  0.9551  0.8280 -2.2505
10377TIP3   OH252545   3.845   2.364   2.604  0.1279  0.7826  0.7432
10377TIP3    H152546   3.872   2.397   2.518  1.3165 -2.9182 -0.4311
10377TIP3    H252547   3.914   2.391   2.664  3.1118 -2.6023 -0.9171
10378TIP3   OH252548   5.752   3.543  12.292 -0.2217 -0.5789  0.0522
10378TIP3    H152549   5.717   3.454  12.301  1.3814 -1.1469  0.8059
10378TIP3    H252550   5.694   3.585  12.229 -1.3539 -1.9729  0.1380
10379TIP3   OH252551   3.633   1.136  12.294  0.1580 -0.0424 -0.0787
10379TIP3    H152552   3.690   1.182  12.232 -0.8637  0.5195 -0.6034
10379TIP3    H252553   3.547   1.138  12.253  0.1193 -2.5743 -0.1997
10380TIP3   OH252554   3.630   1.093   2.079  0.4249  0.0938 -0.0889
10380TIP3    H152555   3.599   1.157   2.143  1.3002  1.7417 -1.2918
10380TIP3    H252556   3.694   1.041   2.128  0.9160  1.1866  0.4617
10381TIP3   OH252557   1.073   4.318  15.571 -0.3518  0.2056  0.0236
10381TIP3    H152558   1.096   4.225  15.571 -0.2898  0.2013  1.3625
10381TIP3    H252559   1.157   4.363  15.564 -0.4089  0.1568 -0.9547
10382TIP3   OH252560   6.078   4.303  16.980  0.2435 -0.3672  0.0865
10382TIP3    H152561   6.090   4.373  16.916  0.0908  1.0697  1.5901
10382TIP3    H252562   6.126   4.333  17.057 -1.7473 -0.8348  1.5420
10383TIP3   OH252563   6.507   4.758  16.282  0.2470 -0.1488 -0.1855
10383TIP3    H152564   6.423   4.716  16.298 -0.1079  0.9678  0.9217
10383TIP3    H252565   6.562   4.687  16.247 -0.9834 -1.0010 -0.4389
10384TIP3   OH252566   3.763   6.097   0.490 -0.1160  0.2388  0.2483
10384TIP3    H152567   3.796   6.051   0.567  0.1638  0.1853  0.0954
10384TIP3    H252568   3.742   6.028   0.428  1.1546  0.3660 -0.3209
10385TIP3   OH252569   0.177   0.904   0.870  0.2298 -0.3493  0.0076
10385TIP3    H152570   0.106   0.905   0.934 -0.1886 -0.8900 -0.4470
10385TIP3    H252571   0.256   0.891   0.923  0.0833  1.0448  0.5920
10386TIP3   OH252572   5.950   6.625  11.948  0.1418  0.6868 -0.3996
10386TIP3    H152573   5.915   6.699  11.997  0.3529  1.2937 -1.1580
10386TIP3    H252574   5.930   6.549  12.003 -1.8136  1.0781 -0.5456
10387TIP3   OH252575   6.028   0.638   4.550 -0.3852 -0.4475 -0.0544
10387TIP3    H152576   5.935   0.616   4.539 -0.7073 -0.0059  1.5905
10387TIP3    H252577   6.056   0.588   4.626  0.5019  0.0937 -0.0175
10388TIP3   OH252578   2.695   2.519   5.259  0.6196 -0.3387  0.2277
10388TIP3    H152579   2.757   2.589   5.239  1.7634 -1.2750  0.4284
10388TIP3    H252580   2.617   2.541   5.208  1.2943  0.5881 -0.4253
10389TIP3   OH252581   3.101   1.587   2.237  0.2456  0.4994 -0.0928
10389TIP3    H152582   3.011   1.560   2.252  0.7319 -1.1509 -0.0268
10389TIP3    H252583   3.123   1.549   2.152  1.7153 -1.3463  1.0896
10390TIP3   OH252584   0.151   2.707   6.426 -0.3358  0.2626  0.1485
10390TIP3    H152585   0.200   2.711   6.508  0.2582 -1.2810 -0.1025
10390TIP3    H252586   0.059   2.707   6.453 -0.1475 -0.0226  0.8072
10391TIP3   OH252587   0.339   2.063   4.690  0.0410  0.0539 -0.0222
10391TIP3    H152588   0.355   2.093   4.600 -3.0561  1.6469 -0.0975
10391TIP3    H252589   0.399   2.116   4.743 -1.1946  2.2350 -0.7464
10392TIP3   OH252590   1.239   6.123  11.588 -0.2667  0.1965 -0.0022
10392TIP3    H152591   1.150   6.155  11.598 -0.9047 -1.1630 -1.1724
10392TIP3    H252592   1.249   6.107  11.494  1.4963  1.1225 -0.0062
10393TIP3   OH252593   5.062   5.284  12.066  0.1570  0.5296 -0.3777
10393TIP3    H152594   5.020   5.331  12.138  0.1336  0.4217 -0.3218
10393TIP3    H252595   5.075   5.195  12.100  0.0503  0.4507 -0.5440
10394TIP3   OH252596   0.414   4.757   4.550  0.3230 -0.0790 -0.3215
10394TIP3    H152597   0.355   4.709   4.493 -1.7140  1.4979  0.4055
10394TIP3    H252598   0.455   4.689   4.604  0.3435 -1.3333 -1.8813
10395TIP3   OH252599   4.028   5.367   3.581  0.3900  0.0063  0.0704
10395TIP3    H152600   4.099   5.410   3.628  1.3321 -1.7653  0.3362
10395TIP3    H252601   3.987   5.309   3.646  0.9138 -1.5393 -0.9342
10396TIP3   OH252602   0.656   5.577   2.194 -0.9082  0.6134  0.4356
10396TIP3    H152603   0.592   5.509   2.214 -2.8313  2.1959 -0.1501
10396TIP3    H252604   0.629   5.652   2.247  0.7351  1.1796  0.5081
10397TIP3   OH252605   6.137   6.492   3.270  0.2342 -0.1429  0.2191
10397TIP3    H152606   6.087   6.434   3.212 -0.0796  0.6338 -0.2929
10397TIP3    H252607   6.070   6.530   3.328  0.1221  1.3263 -0.8252
10398TIP3   OH252608   6.541   1.429  13.526 -0.1150 -0.2245 -0.6100
10398TIP3    H152609   6.575   1.462  13.442  0.8819  1.8060  0.5438
10398TIP3    H252610   6.590   1.348  13.541  1.9376  0.9732 -0.5628
10399TIP3   OH252611   0.983   1.551  13.316  0.6346 -0.5201 -0.2088
10399TIP3    H152612   0.929   1.511  13.384  1.8028 -1.5222  0.1513
10399TIP3    H252613   0.984   1.487  13.245  0.3600  0.0254 -0.7091
10400TIP3   OH252614   2.344   5.103  14.876  0.0866 -0.2839 -0.0315
10400TIP3    H152615   2.397   5.174  14.840 -1.4675  1.2271  0.5486
10400TIP3    H252616   2.347   5.034  14.810  0.1289  1.0599 -1.4536
10401TIP3   OH252617   5.292   0.589  15.689 -0.7746  0.2033  0.4553
10401TIP3    H152618   5.341   0.551  15.762 -0.0499  0.3662  0.0500
10401TIP3    H252619   5.310   0.532  15.615  0.9209  1.7490 -0.3417
10402TIP3   OH252620   5.252   0.392  13.178  1.1633 -0.5046 -0.6232
10402TIP3    H152621   5.315   0.461  13.157  1.1018 -0.1999  0.2129
10402TIP3    H252622   5.284   0.354  13.260  0.1224 -0.1931 -0.0759
10403TIP3   OH252623   6.456   5.292  11.009  0.1175 -0.5368  0.0867
10403TIP3    H152624   6.465   5.196  11.009 -1.7765 -0.7638  2.4233
10403TIP3    H252625   6.544   5.324  11.031  0.1786 -1.8493  1.8386
10404TIP3   OH252626   5.314   1.156   2.691 -0.2658  0.0223 -0.1126
10404TIP3    H152627   5.401   1.195   2.703  0.9952 -2.0652 -1.8098
10404TIP3    H252628   5.282   1.139   2.779  1.4746  0.0070  0.5327
10405TIP3   OH252629   4.882   5.974  14.228 -0.5246 -0.3996  0.5016
10405TIP3    H152630   4.924   6.030  14.163  0.2467 -3.4552 -1.7486
10405TIP3    H252631   4.948   5.961  14.296 -0.3365  0.5330  0.4912
10406TIP3   OH252632   1.890   6.686   3.479 -0.4901 -0.3085 -0.2453
10406TIP3    H152633   1.803   6.670   3.517  0.8982 -4.3684  1.5026
10406TIP3    H252634   1.885   6.651   3.390 -1.0021  0.6798 -0.6133
10407TIP3   OH252635   6.073   4.267   4.192 -0.7486  0.1464 -0.3802
10407TIP3    H152636   6.136   4.254   4.121 -0.8696 -0.0090 -0.4602
10407TIP3    H252637   5.988   4.259   4.150 -0.8210  0.0821 -0.2210
10408TIP3   OH252638   5.660   3.417  15.370 -0.0367 -0.4591  0.1270
10408TIP3    H152639   5.752   3.399  15.351 -0.1619 -0.4971 -0.4484
10408TIP3    H252640   5.644   3.504  15.333 -0.1870 -0.3747  0.3831
10409TIP3   OH252641   2.704   0.262   1.282  0.1079  0.2753  0.0963
10409TIP3    H152642   2.749   0.195   1.333 -0.4059 -1.0536 -1.1247
10409TIP3    H252643   2.614   0.262   1.316  0.0093  0.0572 -0.1573
10410TIP3   OH252644   3.547   4.535   3.538 -0.0750 -0.3635  0.0731
10410TIP3    H152645   3.478   4.502   3.480  1.1405 -2.4324 -0.2331
10410TIP3    H252646   3.585   4.610   3.491 -4.5242  3.2660  1.8692
10411TIP3   OH252647   0.946   0.151  12.080  0.4307 -0.3984 -0.0120
10411TIP3    H152648   1.002   0.159  12.157  0.9646  0.2804 -0.4702
10411TIP3    H252649   0.886   0.079  12.101  0.0670  0.2907  1.3518
10412TIP3   OH252650   6.697   6.439   0.663 -0.1120  0.0452  0.4458
10412TIP3    H152651   6.692   6.351   0.700 -0.7636  0.2011  0.7329
10412TIP3    H252652   6.712   6.425   0.569 -1.9322 -0.3989  0.2033
10413TIP3   OH252653   5.996   4.081  14.239 -0.3473  0.2144  0.0850
10413TIP3    H152654   5.944   4.156  14.271 -2.0282 -1.1780  0.6910
10413TIP3    H252655   6.072   4.079  14.297  0.5141  2.3891 -0.9104
10414TIP3   OH252656   3.348   1.427  13.380  0.1793  0.3116 -0.2462
10414TIP3    H152657   3.425   1.377  13.407 -1.1079 -2.0076 -0.6806
10414TIP3    H252658   3.365   1.448  13.288  0.9115  1.0432  0.0518
10415TIP3   OH252659   3.376   6.247  17.037  0.0651  0.0055 -0.1035
10415TIP3    H152660   3.355   6.203  17.119 -1.9526 -1.1033 -1.1845
10415TIP3    H252661   3.294   6.289  17.011  0.5871  0.0377 -1.7451
10416TIP3   OH252662   4.162   2.722   3.195  0.3821 -0.0672 -0.1825
10416TIP3    H152663   4.200   2.686   3.275  1.9420 -0.0567 -0.9081
10416TIP3    H252664   4.185   2.814   3.197 -1.2044  0.3316  0.2812
10417TIP3   OH252665   4.513   5.163   3.867  0.4188  0.2855 -0.9563
10417TIP3    H152666   4.540   5.094   3.927  0.0154  0.2664 -0.7915
10417TIP3    H252667   4.451   5.216   3.917 -0.4426 -0.1303 -1.5691
10418TIP3   OH252668   6.282   0.639  15.583 -0.2057 -0.6181 -0.3662
10418TIP3    H152669   6.348   0.708  15.580  0.2971 -1.0995 -0.5185
10418TIP3    H252670   6.324   0.564  15.542 -1.6787 -0.2326 -2.7016
10419TIP3   OH252671   0.723   4.573   3.733 -0.2123  0.0810  0.6124
10419TIP3    H152672   0.679   4.549   3.651 -0.8394  0.6150  0.7810
10419TIP3    H252673   0.652   4.575   3.798  0.5386 -1.9025  1.5129
10420TIP3   OH252674   1.608   0.764  10.713 -0.1107  0.4452 -0.1250
10420TIP3    H152675   1.666   0.839  10.697 -0.7976  0.8424 -0.7818
10420TIP3    H252676   1.660   0.688  10.687 -0.1005  0.8517 -1.3221
10421TIP3   OH252677   4.778   0.478   2.810 -0.1297 -0.4608 -0.5669
10421TIP3    H152678   4.825   0.400   2.781  0.0607 -0.2644 -0.7933
10421TIP3    H252679   4.830   0.551   2.777  0.0247 -0.2354  0.1804
10422TIP3   OH252680   1.385   0.117  16.259 -0.3359  0.1401 -0.1143
10422TIP3    H152681   1.310   0.134  16.317 -1.1422 -0.3719 -1.0014
10422TIP3    H252682   1.403   0.023  16.270  0.1742  0.2559  0.0767
10423TIP3   OH252683   1.059   4.764  15.361  0.4587  0.1229  0.1704
10423TIP3    H152684   1.081   4.672  15.347  0.4757  0.0794  0.4814
10423TIP3    H252685   1.116   4.812  15.301  0.6900 -0.0514  0.2506
10424TIP3   OH252686   2.354   2.014  11.067 -0.8205 -0.2405 -0.0302
10424TIP3    H152687   2.325   1.979  10.983  1.8149 -0.6989 -0.7769
10424TIP3    H252688   2.344   2.109  11.058  1.6887 -0.0902 -1.7878
10425TIP3   OH252689   5.763   0.936   0.268 -0.6498  0.0216 -0.2473
10425TIP3    H152690   5.757   0.882   0.346 -1.0574 -0.0693 -0.3392
10425TIP3    H252691   5.672   0.957   0.246 -0.5624 -0.2641 -0.9099
10426TIP3   OH252692   4.935   3.895   4.106  0.1684 -0.2864 -0.0160
10426TIP3    H152693   4.880   3.842   4.164  0.7710 -0.4694  0.3867
10426TIP3    H252694   4.908   3.869   4.018  1.1188 -1.9752  0.1648
10427TIP3   OH252695   4.845   3.788   5.925  0.5910 -0.2797 -0.0370
10427TIP3    H152696   4.797   3.870   5.933  0.9728  0.1911 -2.1556
10427TIP3    H252697   4.897   3.781   6.005  0.8748  1.7605 -0.0285
10428TIP3   OH252698   1.909   0.674  13.223 -0.2898  0.7993 -0.6681
10428TIP3    H152699   1.846   0.743  13.203 -0.8001  0.9581  1.3548
10428TIP3    H252700   1.987   0.722  13.255  0.1751  0.5314 -1.4023
10429TIP3   OH252701   2.251   4.952   3.099 -0.2118 -0.6102  0.4747
10429TIP3    H152702   2.156   4.961   3.105 -0.2043  0.2418 -0.4467
10429TIP3    H252703   2.282   4.954   3.190 -1.0487 -0.5304  0.7560
10430TIP3   OH252704   3.340   4.965  13.591 -1.0768 -0.0842 -0.4836
10430TIP3    H152705   3.364   5.058  13.598  1.0483 -0.6488 -0.0714
10430TIP3    H252706   3.373   4.938  13.505 -1.9939 -0.3910 -0.7465
10431TIP3   OH252707   6.095   3.343  11.177 -0.3984  0.0281 -0.4556
10431TIP3    H152708   6.038   3.280  11.222 -1.1976  1.4004  0.4557
10431TIP3    H252709   6.118   3.299  11.095  0.0057 -1.9550  0.6862
10432TIP3   OH252710   4.737   2.700   2.030 -0.0807 -0.1290  0.1328
10432TIP3    H152711   4.696   2.681   2.115  2.7174 -0.2208  1.5037
10432TIP3    H252712   4.776   2.786   2.041  1.8424 -0.9039 -0.4263
10433TIP3   OH252713   2.032   1.751   5.471  0.0342 -0.2215  0.2090
10433TIP3    H152714   2.102   1.807   5.503 -1.2271  0.8492  1.1658
10433TIP3    H252715   2.046   1.667   5.515 -0.0123  0.3796  1.3886
10434TIP3   OH252716   0.501   3.642  16.603  0.2939  0.0287  0.0499
10434TIP3    H152717   0.587   3.667  16.568  0.1506  1.4465  0.6815
10434TIP3    H252718   0.516   3.557  16.645  1.6171  0.7392  1.0355
10435TIP3   OH252719   3.575   1.240  12.959  0.0254 -0.1457  0.3721
10435TIP3    H152720   3.657   1.280  12.987  1.3579 -2.5962  0.1294
10435TIP3    H252721   3.591   1.146  12.965 -2.4942 -0.6762 -0.5048
10436TIP3   OH252722   3.995   2.017   3.849  0.6667 -0.4544  0.1020
10436TIP3    H152723   3.987   2.003   3.944 -0.5704 -3.0392 -0.3641
10436TIP3    H252724   3.913   2.060   3.824  1.0812  0.4202  0.2132
10437TIP3   OH252725   0.713   4.528   3.406 -0.2189 -1.0672 -0.3690
10437TIP3    H152726   0.799   4.489   3.418 -0.2486 -1.6594 -1.9915
10437TIP3    H252727   0.657   4.482   3.469  0.7758 -0.2107  1.1563
10438TIP3   OH252728   0.839   6.326  12.937 -0.3197 -0.4567  0.5991
10438TIP3    H152729   0.770   6.324  12.871 -1.4038  1.7309  1.6052
10438TIP3    H252730   0.797   6.366  13.013  1.9339  0.4561  1.3880
10439TIP3   OH252731   3.450   1.446  16.028  0.5147 -0.6683 -0.4927
10439TIP3    H152732   3.492   1.378  16.081 -0.8709 -0.4105  0.9730
10439TIP3    H252733   3.367   1.406  15.999 -1.1641  0.9525  1.8676
10440TIP3   OH252734   3.424   1.109  15.176  0.5859  0.5034  0.0360
10440TIP3    H152735   3.492   1.057  15.220  0.2646  0.7682  0.8672
10440TIP3    H252736   3.364   1.045  15.139  0.5491  0.2764  0.4855
10441TIP3   OH252737   1.767   5.597   2.089  0.6819  0.0752  0.0700
10441TIP3    H152738   1.697   5.631   2.146  1.3914  1.7342 -0.0286
10441TIP3    H252739   1.845   5.599   2.144  1.2408  1.0469 -0.7676
10442TIP3   OH252740   1.272   2.705  12.605  0.3036 -0.2777  0.4340
10442TIP3    H152741   1.319   2.732  12.526 -1.2470  0.8924 -0.1137
10442TIP3    H252742   1.183   2.687  12.575 -0.5901  1.2087  2.0750
10443TIP3   OH252743   2.525   3.118   3.100 -0.1338  0.1304  0.0647
10443TIP3    H152744   2.429   3.123   3.096 -0.1311 -0.2704 -0.7844
10443TIP3    H252745   2.543   3.054   3.168 -0.5532 -1.9251 -1.6947
10444TIP3   OH252746   1.755   2.285   4.578 -0.1222 -0.0336  0.1260
10444TIP3    H152747   1.747   2.197   4.614  1.5876 -0.8191 -1.3214
10444TIP3    H252748   1.665   2.316   4.570 -0.6513 -0.5026  3.3320
10445TIP3   OH252749   1.890   5.414  17.030  0.2952 -0.6893 -0.1681
10445TIP3    H152750   1.843   5.372  16.958 -2.2096  0.7091  0.5801
10445TIP3    H252751   1.878   5.354  17.104  2.2930 -1.7938 -0.7031
10446TIP3   OH252752   6.625   3.157  15.331 -0.2634  0.1435 -0.6811
10446TIP3    H152753   6.696   3.209  15.367  0.2150 -1.1965  0.3287
10446TIP3    H252754   6.546   3.192  15.373  0.0386  0.1378 -0.1129
10447TIP3   OH252755   4.338   3.041  17.061 -1.0529 -1.0958  0.4509
10447TIP3    H152756   4.311   3.060  17.151 -0.2884  1.2185  0.2023
10447TIP3    H252757   4.259   3.003  17.021 -1.6890 -1.2587  1.8152
10448TIP3   OH252758   3.854   4.707   6.500  0.1196 -0.2066 -0.2411
10448TIP3    H152759   3.838   4.752   6.582  1.5969 -0.4953  0.2306
10448TIP3    H252760   3.925   4.645   6.520  0.2300 -0.5458 -1.6229
10449TIP3   OH252761   6.694   3.216   3.648 -0.1255 -0.0966 -0.7018
10449TIP3    H152762   6.635   3.141   3.659 -0.4264  0.4612  1.8812
10449TIP3    H252763   6.724   3.210   3.557 -2.5040 -1.6033 -1.4397
10450TIP3   OH252764   4.304   2.757  16.512  0.2735 -0.7046  0.1360
10450TIP3    H152765   4.393   2.779  16.484 -0.3265  0.1918 -1.1249
10450TIP3    H252766   4.315   2.686  16.574  1.9556  0.2237  0.9169
10451TIP3   OH252767   1.852   2.793   3.197  0.0542 -0.4268  0.2234
10451TIP3    H152768   1.829   2.883   3.220 -0.6136 -0.0981 -1.6201
10451TIP3    H252769   1.776   2.761   3.148  1.7025 -0.7931 -2.1872
10452TIP3   OH252770   6.020   0.417  13.828 -0.2358  0.1569  0.2994
10452TIP3    H152771   6.115   0.404  13.835 -0.3478 -1.9548 -1.4756
10452TIP3    H252772   6.008   0.453  13.740 -1.1587 -0.5866  0.1191
10453TIP3   OH252773   1.707   5.146  14.937  0.4118  0.0793  0.3263
10453TIP3    H152774   1.772   5.122  15.003 -0.5868 -0.6586  1.0639
10453TIP3    H252775   1.751   5.211  14.882  1.6739 -0.2200  0.9678
10454TIP3   OH252776   1.384   5.867  11.470  0.5534 -0.0696  0.1443
10454TIP3    H152777   1.452   5.877  11.537  1.2601 -0.2401 -0.5326
10454TIP3    H252778   1.336   5.788  11.495  1.3233 -0.5811  0.0211
10455TIP3   OH252779   4.448   1.389  16.509 -0.5177 -0.2238  0.3564
10455TIP3    H152780   4.446   1.477  16.473 -0.6436  0.1508  1.2706
10455TIP3    H252781   4.362   1.377  16.549 -0.0157 -0.2446  1.4523
10456TIP3   OH252782   3.345   2.291  14.732  0.1344 -0.3353  0.0819
10456TIP3    H152783   3.329   2.384  14.752 -0.2872 -0.4705  0.3952
10456TIP3    H252784   3.257   2.252  14.731  0.2899 -0.6643 -0.3828
10457TIP3   OH252785   2.349   5.727  13.776 -0.6368  0.1973 -0.0032
10457TIP3    H152786   2.357   5.647  13.724  0.7016  2.5277 -3.6093
10457TIP3    H252787   2.423   5.781  13.747 -1.4807  2.7157  2.3731
10458TIP3   OH252788   4.338   5.708   2.811  0.7841 -0.1803 -0.0376
10458TIP3    H152789   4.308   5.622   2.780  0.3813  0.3481 -1.1174
10458TIP3    H252790   4.293   5.771   2.754 -1.6323  0.9115  2.9229
10459TIP3   OH252791   2.906   3.072   2.319  0.3037  0.6936 -0.3377
10459TIP3    H152792   2.902   3.165   2.298 -0.2414  0.6908 -0.2634
10459TIP3    H252793   2.892   3.027   2.236  0.3035  0.6803 -0.3307
10460TIP3   OH252794   0.963   4.088   4.913 -0.0707  0.5796  0.2174
10460TIP3    H152795   0.932   4.033   4.841 -1.2114  1.7948 -0.2373
10460TIP3    H252796   1.035   4.038   4.952 -0.2429 -0.6431 -0.9921
10461TIP3   OH252797   3.213   0.889   4.590  0.0780 -0.0429  0.1609
10461TIP3    H152798   3.259   0.826   4.535  1.8250  0.8884  0.5032
10461TIP3    H252799   3.230   0.860   4.679  0.4470  0.5938  0.3016
10462TIP3   OH252800   2.535   5.540  13.898 -0.0556 -0.5747  0.3243
10462TIP3    H152801   2.505   5.449  13.891 -0.0086 -0.8750  3.2587
10462TIP3    H252802   2.459   5.588  13.930  0.0465  0.3668 -0.8045
10463TIP3   OH252803   0.617   1.553   1.872 -0.2175  0.2516  0.2210
10463TIP3    H152804   0.629   1.647   1.883  1.0975  0.1943 -0.6696
10463TIP3    H252805   0.609   1.519   1.962  0.0387  1.1222  0.5727
10464TIP3   OH252806   2.869   5.989  12.029 -0.4498  0.2455 -0.1392
10464TIP3    H152807   2.902   5.961  12.115 -1.1057  0.4195  0.1722
10464TIP3    H252808   2.919   6.067  12.009  0.2991 -0.2737 -0.2984
10465TIP3   OH252809   4.951   4.529   6.042  0.3632  0.0499  0.3059
10465TIP3    H152810   5.038   4.568   6.053  0.4379 -0.4019  1.3297
10465TIP3    H252811   4.911   4.534   6.129 -0.5066 -0.0682 -0.0782
10466TIP3   OH252812   1.201   1.249   4.035  0.0705  0.4965 -0.0364
10466TIP3    H152813   1.204   1.259   3.940 -1.8519  3.2746  0.1349
10466TIP3    H252814   1.109   1.260   4.058  0.2212 -2.1215  1.9901
10467TIP3   OH252815   0.750   1.032   2.401  0.5278  0.2643 -0.2582
10467TIP3    H152816   0.664   1.074   2.403  0.9265  1.0515  1.0088
10467TIP3    H252817   0.733   0.944   2.368 -0.6838  0.5872 -0.5161
10468TIP3   OH252818   0.123   4.522   2.266  0.2281  0.6038 -0.1162
10468TIP3    H152819   0.213   4.501   2.291  0.0955  0.4117  0.2077
10468TIP3    H252820   0.132   4.585   2.195  0.6873 -2.4941 -2.8988
10469TIP3   OH252821   4.728   1.958   4.614 -0.1143  0.0036  0.5273
10469TIP3    H152822   4.657   1.894   4.614  0.8422 -1.0787  0.0175
10469TIP3    H252823   4.740   1.981   4.522  1.9816 -1.8954  0.2490
10470TIP3   OH252824   2.774   4.203   3.757 -0.6131  0.1741  0.4125
10470TIP3    H152825   2.757   4.176   3.847 -0.0269  0.7330  0.6907
10470TIP3    H252826   2.865   4.232   3.757  0.2454 -2.3998 -0.9745
10471TIP3   OH252827   1.601   6.678   5.171 -0.3262 -0.1405  0.5112
10471TIP3    H152828   1.536   6.618   5.133  0.9268 -0.9604 -0.3520
10471TIP3    H252829   1.641   6.721   5.096 -0.1999  0.7146  1.0678
10472TIP3   OH252830   3.814   0.868  13.623 -0.5728 -0.4150  0.1968
10472TIP3    H152831   3.885   0.879  13.686  1.4195 -3.5589 -1.4048
10472TIP3    H252832   3.799   0.956  13.589  3.0666  0.2269  0.0584
10473TIP3   OH252833   2.132   1.374  15.435 -0.1003 -0.5456 -0.6571
10473TIP3    H152834   2.138   1.367  15.340  0.6383  0.5862 -0.7120
10473TIP3    H252835   2.039   1.378  15.453 -0.2076  1.4486 -1.5406
10474TIP3   OH252836   0.449   0.392  13.276 -0.0747  0.2026  0.2485
10474TIP3    H152837   0.514   0.332  13.238  0.1339 -0.0406  0.9748
10474TIP3    H252838   0.501   0.452  13.330 -0.4964 -0.3440  1.2846
10475TIP3   OH252839   5.330   5.694  16.440  0.5826  0.0451  0.0785
10475TIP3    H152840   5.329   5.745  16.522  0.9067 -0.9227  0.6901
10475TIP3    H252841   5.404   5.731  16.391  1.6820 -0.7242  1.1115
10476TIP3   OH252842   4.812   5.292   3.628 -0.1910 -0.1009 -0.5258
10476TIP3    H152843   4.841   5.291   3.719 -0.3070 -0.0810 -0.4884
10476TIP3    H252844   4.881   5.339   3.581 -0.5072  0.5651 -0.3193
10477TIP3   OH252845   6.180   2.002  16.006 -0.3263  0.0899  0.1105
10477TIP3    H152846   6.170   2.011  16.101  2.3864  1.3334  0.3247
10477TIP3    H252847   6.222   2.083  15.978 -1.7600  0.0616 -2.3022
10478TIP3   OH252848   2.467   4.330   5.381  0.2820  0.5122 -0.1933
10478TIP3    H152849   2.415   4.376   5.315 -0.5482  1.4384  1.0987
10478TIP3    H252850   2.418   4.339   5.462  1.0083 -1.1274  0.4607
10479TIP3   OH252851   3.733   5.077   1.613 -0.0790 -0.0309 -0.5928
10479TIP3    H152852   3.726   5.153   1.555 -0.4901  0.3363 -0.0700
10479TIP3    H252853   3.653   5.081   1.666  0.3471 -0.3062  0.0668
10480TIP3   OH252854   5.195   5.001   6.698 -0.2175 -0.8593  0.5164
10480TIP3    H152855   5.134   4.929   6.715  1.3304 -2.0598  1.1556
10480TIP3    H252856   5.168   5.070   6.758 -1.1725 -1.2262  0.5263
10481TIP3   OH252857   1.539   6.018  11.308  0.2150  0.2510  0.0742
10481TIP3    H152858   1.464   6.075  11.289  0.1135 -0.3590 -1.4151
10481TIP3    H252859   1.501   5.947  11.360 -0.2950 -0.1463 -0.8201
10482TIP3   OH252860   1.288   0.374  15.689  0.0078 -0.2860 -0.3221
10482TIP3    H152861   1.302   0.282  15.714 -1.4410 -0.6066 -0.6635
10482TIP3    H252862   1.205   0.397  15.730  1.1504  1.4001  1.1422
10483TIP3   OH252863   0.850   2.487   2.947  0.0542  0.0465 -0.5647
10483TIP3    H152864   0.905   2.539   3.005  0.6566 -1.6153  0.3831
10483TIP3    H252865   0.911   2.443   2.888 -0.2851 -1.1987 -0.0101
10484TIP3   OH252866   4.685   4.584  15.532 -0.2005 -0.3586 -0.3589
10484TIP3    H152867   4.746   4.517  15.500  0.9708 -0.2119  1.4778
10484TIP3    H252868   4.667   4.638  15.456  3.6555  0.8725 -0.5325
10485TIP3   OH252869   6.626   4.534  13.283  0.3408 -0.6974 -0.0004
10485TIP3    H152870   6.621   4.620  13.323  0.9241  0.3567 -2.1308
10485TIP3    H252871   6.535   4.512  13.262  0.2108 -0.5151  0.3759
10486TIP3   OH252872   5.658   5.646  15.396  0.0048 -0.0478  0.0707
10486TIP3    H152873   5.723   5.589  15.437  1.3629  0.4228 -1.3783
10486TIP3    H252874   5.709   5.705  15.340 -1.5545  1.2167 -0.0678
10487TIP3   OH252875   4.256   4.759  16.748 -0.4224 -0.0040  0.3683
10487TIP3    H152876   4.270   4.811  16.827  0.3789  0.0662  0.1839
10487TIP3    H252877   4.258   4.822  16.677 -0.9779 -0.0889  0.2789
10488TIP3   OH252878   5.090   5.832   3.916 -0.5194 -0.1003 -0.4941
10488TIP3    H152879   5.038   5.891   3.861 -2.3332 -1.2140 -0.0450
10488TIP3    H252880   5.085   5.870   4.004 -2.9061 -1.6342  0.0797
10489TIP3   OH252881   3.749   6.106   2.916  0.4802  0.1631  0.1998
10489TIP3    H152882   3.747   6.201   2.931 -1.4620 -0.0971  1.7837
10489TIP3    H252883   3.842   6.084   2.919  0.8658  1.8184  1.2941
10490TIP3   OH252884   6.659   0.155   3.262 -0.3567 -0.3752  0.0195
10490TIP3    H152885   6.711   0.174   3.340 -0.0915  0.0755 -0.2690
10490TIP3    H252886   6.649   0.060   3.264 -1.3601 -0.2685  1.2420
10491TIP3   OH252887   2.771   2.580  11.583  0.2059 -0.2317 -0.0588
10491TIP3    H152888   2.746   2.653  11.527 -1.5436 -0.1940  0.7145
10491TIP3    H252889   2.795   2.510  11.523  0.8040  0.6160 -0.8116
10492TIP3   OH252890   0.889   1.257  10.437  0.1733  0.1117 -0.5497
10492TIP3    H152891   0.932   1.184  10.394 -0.8310 -0.5047 -0.5125
10492TIP3    H252892   0.846   1.305  10.367 -1.7227 -1.0676 -0.2342
10493TIP3   OH252893   0.909   2.873   0.721  0.9373  0.5218 -0.1868
10493TIP3    H152894   0.929   2.836   0.635  2.0020 -0.7168  0.5860
10493TIP3    H252895   0.927   2.803   0.783 -0.7422  1.0873  0.9936
10494TIP3   OH252896   5.345   0.465  11.862 -0.8781  1.1515  0.4549
10494TIP3    H152897   5.420   0.477  11.920  0.0279 -0.4569 -0.3251
10494TIP3    H252898   5.269   0.472  11.919 -0.0960  2.0064  1.4030
10495TIP3   OH252899   3.815   6.740   1.289  0.0356  0.1904 -0.1420
10495TIP3    H152900   3.757   6.813   1.310  0.9986  0.6185  1.0851
10495TIP3    H252901   3.801   6.678   1.360  1.4374  0.5209  0.4368
10496TIP3   OH252902   2.799   4.116  11.603 -0.2971  0.1148  0.0665
10496TIP3    H152903   2.790   4.021  11.594  1.0894  0.1191 -1.4801
10496TIP3    H252904   2.799   4.149  11.513 -1.6361  1.6751  0.6180
10497TIP3   OH252905   3.389   4.388  13.854  0.5251 -0.1563  0.0310
10497TIP3    H152906   3.417   4.297  13.861 -2.1282 -0.9745  0.8341
10497TIP3    H252907   3.404   4.424  13.942 -0.5874 -0.5161  0.3814
10498TIP3   OH252908   0.120   5.953   2.734  0.3004  0.7514  0.3343
10498TIP3    H152909   0.164   6.019   2.787 -1.4637  0.5973  2.0901
10498TIP3    H252910   0.180   5.879   2.733  2.2098  2.2864 -1.4949
10499TIP3   OH252911   6.090   4.132   5.168 -0.1519 -0.4556  0.4979
10499TIP3    H152912   6.028   4.202   5.148  1.5926  0.6609 -1.2019
10499TIP3    H252913   6.081   4.071   5.095  2.2111  0.8004 -0.9351
10500TIP3   OH252914   5.650   1.827  10.978 -0.2623  0.1693 -0.2334
10500TIP3    H152915   5.565   1.857  10.947 -0.5530 -0.8262 -0.4117
10500TIP3    H252916   5.704   1.821  10.899 -0.2923 -0.0705 -0.2352
10501TIP3   OH252917   1.965   1.188  14.158  0.1265 -0.0261  0.2143
10501TIP3    H152918   2.054   1.176  14.124  0.3741  0.5813  0.6358
10501TIP3    H252919   1.914   1.121  14.115  0.5667  0.3269 -0.8724
10502TIP3   OH252920   2.058   6.672  15.056 -0.2904  0.5427 -0.1373
10502TIP3    H152921   2.045   6.676  15.151 -1.0601 -0.3728 -0.1983
10502TIP3    H252922   2.013   6.750  15.023 -1.4575 -0.0108  0.1091
10503TIP3   OH252923   3.060   6.005   3.366  0.8551  0.6958 -0.0838
10503TIP3    H152924   3.031   5.946   3.296 -1.4339  2.2698 -0.5355
10503TIP3    H252925   2.980   6.024   3.415  1.3040  4.2549 -0.6063
10504TIP3   OH252926   3.999   6.305  11.119  0.3065  0.0927  0.7402
10504TIP3    H152927   3.984   6.374  11.054  1.1399 -1.3426 -1.0380
10504TIP3    H252928   4.051   6.239  11.072  1.2242 -0.8346  2.9771
10505TIP3   OH252929   3.689   2.351  16.329  0.4193 -0.0469  0.0574
10505TIP3    H152930   3.755   2.417  16.307 -0.7956  0.7670 -1.2429
10505TIP3    H252931   3.675   2.304  16.247  1.1188 -1.8197  0.9206
10506TIP3   OH252932   2.235   3.765  13.621 -1.3966 -0.0812 -0.5782
10506TIP3    H152933   2.174   3.812  13.563  0.2064  2.3377 -0.3922
10506TIP3    H252934   2.187   3.754  13.703 -3.1472 -2.1955 -1.8244
10507TIP3   OH252935   2.738   6.477  15.566  0.6738  0.6100 -0.2466
10507TIP3    H152936   2.681   6.404  15.541  1.3407 -0.1118  0.2837
10507TIP3    H252937   2.679   6.550  15.581  0.1331  0.6790 -2.5253
10508TIP3   OH252938   2.501   4.095   0.617  0.2066 -0.6095  0.1698
10508TIP3    H152939   2.596   4.087   0.626  0.0833  0.0057  2.2500
10508TIP3    H252940   2.489   4.132   0.529  1.8756 -0.9037 -0.2076
10509TIP3   OH252941   6.461   1.358   5.921 -0.4209 -0.2172  0.2179
10509TIP3    H152942   6.547   1.396   5.905 -0.8062  0.2178 -0.8728
10509TIP3    H252943   6.478   1.266   5.941  0.3685  0.0882  0.9392
10510TIP3   OH252944   2.500   6.032  12.813  0.5065  0.5544 -0.4584
10510TIP3    H152945   2.549   5.980  12.750 -0.7941 -0.2544 -0.8195
10510TIP3    H252946   2.552   6.112  12.823  2.6606 -0.8964  0.3331
10511TIP3   OH252947   6.418   1.323  13.898  0.0056 -0.2115  0.5514
10511TIP3    H152948   6.336   1.367  13.921  0.8667  1.5247  0.3546
10511TIP3    H252949   6.455   1.377  13.828  1.2163 -1.1156  0.4802
10512TIP3   OH252950   3.066   2.881   5.748 -0.1898 -0.4163  0.5079
10512TIP3    H152951   3.115   2.887   5.830  0.8289 -0.1683 -0.1139
10512TIP3    H252952   2.975   2.894   5.774  0.1935  0.3386  1.5141
10513TIP3   OH252953   5.731   1.121  17.220  0.3531  0.4657  0.2612
10513TIP3    H152954   5.693   1.082  17.299  1.1526 -2.2271 -0.6198
10513TIP3    H252955   5.659   1.121  17.157  0.3679  0.3311  0.2436
10514TIP3   OH252956   4.814   0.349   2.340  0.2493  0.1624 -0.6818
10514TIP3    H152957   4.869   0.418   2.305 -0.2284  0.1904 -1.3880
10514TIP3    H252958   4.875   0.281   2.369  0.6468  0.1390 -1.5810
10515TIP3   OH252959   2.839   3.571   1.000 -0.0340 -0.4315 -0.4369
10515TIP3    H152960   2.840   3.516   1.078  0.6964  0.1355 -0.0388
10515TIP3    H252961   2.876   3.516   0.931 -0.6522 -0.9232 -0.3801
10516TIP3   OH252962   6.597   3.872   2.596  0.6368 -0.8211  0.1930
10516TIP3    H152963   6.645   3.946   2.634 -0.7631 -1.1542  2.6922
10516TIP3    H252964   6.661   3.828   2.540  2.3792  0.4759  1.1317
10517TIP3   OH252965   3.482   3.220  12.086  0.5435  0.2187 -0.7360
10517TIP3    H152966   3.408   3.270  12.050 -1.3419 -1.0588  1.2296
10517TIP3    H252967   3.486   3.246  12.178  2.0865 -0.2850 -0.6494
10518TIP3   OH252968   2.104   3.404  13.217  0.1966  0.1941 -0.1268
10518TIP3    H152969   2.072   3.343  13.149 -0.0763  2.1835 -1.8406
10518TIP3    H252970   2.027   3.423  13.270 -0.2430  0.7673 -0.9561
10519TIP3   OH252971   1.058   3.320  13.239 -1.0526  0.2564 -0.1859
10519TIP3    H152972   1.147   3.293  13.262 -1.6747 -1.1576  0.6050
10519TIP3    H252973   1.034   3.382  13.308 -1.6381 -1.3573  1.0871
10520TIP3   OH252974   4.012   4.468   6.925 -0.0597  0.6813 -0.4903
10520TIP3    H152975   4.101   4.493   6.901  0.3191 -0.2147 -0.0678
10520TIP3    H252976   3.993   4.389   6.874 -0.0675  0.0448  0.4641
10521TIP3   OH252977   0.927   5.113   2.441 -0.3818  0.5642  0.2089
10521TIP3    H152978   0.907   5.084   2.352 -1.5917  0.1587  0.5929
10521TIP3    H252979   0.880   5.051   2.497  2.6707 -0.9130  1.2116
10522TIP3   OH252980   2.734   1.784   5.171  0.4896 -1.0128  0.1124
10522TIP3    H152981   2.696   1.788   5.084 -0.2453 -2.0982  0.3785
10522TIP3    H252982   2.664   1.752   5.227  0.4268  1.2814  1.4336
10523TIP3   OH252983   2.110   4.351   0.699  0.0076 -0.3444  0.3059
10523TIP3    H152984   2.189   4.338   0.751  1.1904 -0.3863 -1.4354
10523TIP3    H252985   2.115   4.285   0.630 -0.0118  1.5152 -1.5577
10524TIP3   OH252986   4.679   6.384  16.395 -0.4151  0.1089 -0.7808
10524TIP3    H152987   4.683   6.324  16.321 -0.1890 -0.6882 -0.1325
10524TIP3    H252988   4.590   6.375  16.429 -1.1321  1.8846 -2.0909
10525TIP3   OH252989   5.054   3.248  15.322 -0.2213  0.2060  0.9640
10525TIP3    H152990   5.062   3.199  15.404  2.5993  1.1639  1.3303
10525TIP3    H252991   5.132   3.223  15.272  0.0230  2.4633  0.1672
10526TIP3   OH252992   3.359   0.072  14.499  0.2608  0.0920  0.0043
10526TIP3    H152993   3.440   0.046  14.456  0.7904  0.4347  0.7866
10526TIP3    H252994   3.291   0.023  14.453  0.7949  0.5696 -1.3216
10527TIP3   OH252995   2.691   1.429   4.230 -0.5733  1.1871 -0.0034
10527TIP3    H152996   2.776   1.452   4.192 -0.7654  0.3308 -0.9821
10527TIP3    H252997   2.676   1.339   4.201 -2.2244  1.6336 -0.5749
10528TIP3   OH252998   0.631   5.178   0.527 -0.0308 -0.3279  0.4923
10528TIP3    H152999   0.678   5.223   0.598  0.4840  0.4777 -0.3488
10528TIP3    H253000   0.554   5.233   0.511  0.2436 -0.1107 -0.0798
10529TIP3   OH253001   2.699   2.863  11.445  0.0586 -0.1113  0.1098
10529TIP3    H153002   2.620   2.845  11.496 -0.0607  1.2264  0.4357
10529TIP3    H253003   2.682   2.948  11.405  1.5878  0.5066  0.7292
10530TIP3   OH253004   3.153   3.743  14.451 -0.4217 -0.3869 -0.0807
10530TIP3    H153005   3.157   3.708  14.540  0.5291  0.5541  0.2691
10530TIP3    H253006   3.227   3.701  14.406  1.6295  2.1655  0.7456
10531TIP3   OH253007   5.281   3.027  13.611  0.3350 -0.3357  0.2703
10531TIP3    H153008   5.274   3.103  13.668  0.4487  0.3562 -0.6238
10531TIP3    H253009   5.302   2.954  13.670 -0.9739  0.0869  1.2759
10532TIP3   OH253010   1.236   3.459   2.952 -0.0020 -0.3106  0.4645
10532TIP3    H153011   1.148   3.468   2.989 -0.0322  1.8763 -0.0625
10532TIP3    H253012   1.288   3.525   2.997  1.0222 -0.6041 -0.2748
10533TIP3   OH253013   0.589   3.784   0.126 -0.0275 -0.1302 -0.4497
10533TIP3    H153014   0.613   3.723   0.056  0.9001  0.2364 -0.4520
10533TIP3    H253015   0.530   3.846   0.083 -0.7494 -0.8495 -0.5147
10534TIP3   OH253016   1.419   2.101  16.588 -0.6994  0.2644 -0.0251
10534TIP3    H153017   1.443   2.060  16.671  0.1243  2.1688  0.7109
10534TIP3    H253018   1.449   2.039  16.521  1.1607 -0.0224  1.0332
10535TIP3   OH253019   6.195   1.697  15.753 -0.3261  0.5743  1.0601
10535TIP3    H153020   6.170   1.770  15.698 -0.6667 -0.2115  0.1651
10535TIP3    H253021   6.291   1.697  15.751 -0.3589 -0.3163 -0.6813
10536TIP3   OH253022   3.008   3.096   1.906  0.2839 -0.5469 -0.2599
10536TIP3    H153023   3.029   3.187   1.885  2.2782 -0.7885  0.5091
10536TIP3    H253024   3.000   3.053   1.821  0.2523  0.1686 -0.6204
10537TIP3   OH253025   4.184   2.765   1.341  0.3146  0.5806 -0.6721
10537TIP3    H153026   4.178   2.670   1.330  0.1506  0.4335  0.5785
10537TIP3    H253027   4.101   2.789   1.384  0.7278  1.1618 -0.1849
10538TIP3   OH253028   4.553   0.374   2.966  0.3539 -0.7612  0.0100
10538TIP3    H153029   4.491   0.315   2.924  0.8376 -1.9154  0.8908
10538TIP3    H253030   4.633   0.363   2.914  0.1965 -0.2474 -0.3391
10539TIP3   OH253031   0.084   4.528   2.805  0.4235 -0.1149 -0.0593
10539TIP3    H153032   0.056   4.613   2.771  0.5326  0.1421  0.4890
10539TIP3    H253033   0.145   4.494   2.739  0.7266  0.4341 -0.0595
10540TIP3   OH253034   4.611   3.766  15.470  0.2457 -0.1187  0.1151
10540TIP3    H153035   4.680   3.828  15.446  1.7452 -1.0312  1.8664
10540TIP3    H253036   4.641   3.682  15.434 -1.4209 -0.0089 -1.6358
10541TIP3   OH253037   5.040   2.417  11.869 -0.0649  0.5155 -0.6379
10541TIP3    H153038   5.128   2.408  11.905 -0.8056 -1.3638  0.8604
10541TIP3    H253039   5.041   2.366  11.788 -0.2715 -1.1355  0.3729
10542TIP3   OH253040   0.853   2.665  12.981 -0.0754 -0.1818  0.0715
10542TIP3    H153041   0.846   2.633  13.071  0.0373 -1.0857 -0.2292
10542TIP3    H253042   0.812   2.596  12.929  1.7995 -0.7019 -0.7693
10543TIP3   OH253043   6.540   3.049  14.723  0.2980  0.4950 -0.6015
10543TIP3    H153044   6.517   3.065  14.814  0.1371 -1.2535 -0.3253
10543TIP3    H253045   6.456   3.052  14.677  0.2001 -0.1695 -0.4610
10544TIP3   OH253046   1.232   6.046   1.038 -0.0546  0.0952 -0.1109
10544TIP3    H153047   1.251   6.140   1.031  0.9627 -0.2331 -2.0167
10544TIP3    H253048   1.317   6.005   1.049 -0.2658 -0.8221 -1.8615
10545TIP3   OH253049   2.544   0.272   2.522  0.5145 -0.2686  0.0275
10545TIP3    H153050   2.630   0.246   2.489 -0.2756 -1.9994 -0.7244
10545TIP3    H253051   2.528   0.357   2.482  3.0461  1.4143  2.3429
10546TIP3   OH253052   3.501   4.812  12.131 -0.7471 -0.0547 -0.3465
10546TIP3    H153053   3.501   4.902  12.164  0.1627 -0.2599  0.2394
10546TIP3    H253054   3.549   4.817  12.048 -0.9177  0.0429 -0.4398
10547TIP3   OH253055   2.205   6.592  16.267  0.3261  0.0180 -0.4537
10547TIP3    H153056   2.188   6.667  16.324  0.8606 -0.3512  0.2038
10547TIP3    H253057   2.181   6.516  16.320  1.4214 -0.3624 -0.4948
10548TIP3   OH253058   1.762   4.706  12.299 -0.4622  0.1932 -0.2662
10548TIP3    H153059   1.706   4.652  12.243  2.2887  0.3256 -3.3500
10548TIP3    H253060   1.823   4.644  12.338  1.5827  0.7543 -2.4293
10549TIP3   OH253061   5.875   5.951   2.634 -0.0696  0.7302  0.3288
10549TIP3    H153062   5.806   5.971   2.570 -0.8575  0.4688  1.0811
10549TIP3    H253063   5.923   6.033   2.645 -0.4161  0.9825 -0.0285
10550TIP3   OH253064   6.348   2.404   1.187  0.7275  0.5292  0.0802
10550TIP3    H153065   6.312   2.355   1.261 -0.7818 -0.4788 -1.3099
10550TIP3    H253066   6.346   2.495   1.216  1.1394  0.0456  1.6767
10551TIP3   OH253067   0.801   3.664  14.727  0.0193  0.7155 -0.0014
10551TIP3    H153068   0.840   3.617  14.654 -0.2944 -0.0856  0.3485
10551TIP3    H253069   0.857   3.645  14.802  0.2723  1.4391  0.0035
10552TIP3   OH253070   4.731   1.041   5.854  0.7378 -0.2912  0.0881
10552TIP3    H153071   4.695   1.005   5.935  2.6947  0.3494  1.2976
10552TIP3    H253072   4.655   1.062   5.800 -0.6569  0.3428  2.2397
10553TIP3   OH253073   0.143   0.179   0.832  0.0866 -0.1092 -0.1566
10553TIP3    H153074   0.203   0.236   0.880 -1.3922  1.4053 -0.0619
10553TIP3    H253075   0.061   0.182   0.882 -1.3377  1.0941 -2.4319
10554TIP3   OH253076   4.276   5.776   5.980  0.4327 -0.4905 -0.2002
10554TIP3    H153077   4.265   5.748   6.071 -2.2605 -1.4708 -0.7768
10554TIP3    H253078   4.279   5.871   5.984 -2.5664 -0.3942  0.6817
10555TIP3   OH253079   2.704   2.467  15.723  0.7030  0.0817 -1.1997
10555TIP3    H153080   2.790   2.507  15.717  0.5392  0.3118 -1.9862
10555TIP3    H253081   2.704   2.424  15.809  0.9184  1.6712 -0.3767
10556TIP3   OH253082   1.175   2.389  16.037 -0.0996 -0.1179 -0.6791
10556TIP3    H153083   1.195   2.300  16.062  2.1621  0.3277 -0.8173
10556TIP3    H253084   1.083   2.401  16.061  0.3690 -1.5409  1.9639
10557TIP3   OH253085   2.056   5.614  16.104  0.3006  0.2514 -0.9141
10557TIP3    H153086   2.122   5.683  16.096  0.4279  0.1419 -0.7890
10557TIP3    H253087   1.980   5.659  16.142  0.4280  0.2949 -0.7077
10558TIP3   OH253088   2.457   2.321  14.407  0.2844 -0.1412 -0.1907
10558TIP3    H153089   2.460   2.407  14.450 -3.7841 -0.1137  0.2120
10558TIP3    H253090   2.413   2.338  14.324 -1.5149 -1.9807  0.3608
10559TIP3   OH253091   6.264   6.574  14.318 -0.1834 -0.0027  0.4115
10559TIP3    H153092   6.186   6.627  14.333 -0.9821 -0.5939 -1.5522
10559TIP3    H253093   6.241   6.488  14.352 -1.7488 -1.1599 -3.4127
10560TIP3   OH253094   0.571   5.051   0.165  0.0255 -0.6573 -0.6112
10560TIP3    H153095   0.573   5.033   0.259 -0.8902 -1.1563 -0.6811
10560TIP3    H253096   0.533   4.971   0.127  1.4869 -0.9373 -1.5139
10561TIP3   OH253097   4.164   2.245  16.453  0.0685  0.5142 -0.1304
10561TIP3    H153098   4.258   2.231  16.468 -0.1046 -1.1893 -0.5761
10561TIP3    H253099   4.161   2.300  16.375  0.6850 -0.6462 -0.9963
10562TIP3   OH253100   1.883   3.939   1.419 -0.0782 -0.2438  0.1724
10562TIP3    H153101   1.954   3.987   1.376 -2.1084  1.6071 -1.2497
10562TIP3    H253102   1.869   3.985   1.502 -0.7177  0.4826 -0.3204
10563TIP3   OH253103   3.685   6.071   0.034 -0.4044 -0.0927 -0.2419
10563TIP3    H153104   3.691   6.066  -0.061  1.0151 -1.6603 -0.1030
10563TIP3    H253105   3.772   6.102   0.061 -0.7725  0.2617  0.5382
10564TIP3   OH253106   0.581   1.346   5.659 -0.3234  0.4245  0.6290
10564TIP3    H153107   0.505   1.372   5.712 -1.7311  0.9931 -1.6235
10564TIP3    H253108   0.555   1.264   5.619 -0.1485  1.1225 -0.9340
10565TIP3   OH253109   1.113   6.442   5.215  0.0852 -0.7259 -0.6319
10565TIP3    H153110   1.089   6.502   5.287  2.0583 -0.2814 -0.3249
10565TIP3    H253111   1.038   6.446   5.156 -0.1372  1.5220 -0.2683
10566TIP3   OH253112   2.084   0.479   2.810  0.0541 -0.0861 -0.3848
10566TIP3    H153113   2.117   0.438   2.890  0.2653  0.7595 -0.0297
10566TIP3    H253114   2.078   0.408   2.747 -0.4652 -0.8278  0.4956
10567TIP3   OH253115   4.601   3.255  15.940  0.6294 -0.3605  0.2568
10567TIP3    H153116   4.633   3.311  16.010 -1.4672 -0.7894  1.6141
10567TIP3    H253117   4.522   3.300  15.908  1.9979  0.2536 -2.4030
10568TIP3   OH253118   3.591   3.981   4.642  0.7811 -0.5192 -0.1632
10568TIP3    H153119   3.623   3.977   4.552  1.1945 -1.4350  0.0246
10568TIP3    H253120   3.558   3.893   4.659  0.0992 -0.1677  0.3659
10569TIP3   OH253121   3.685   1.865  13.807  0.2054  0.6649  0.2133
10569TIP3    H153122   3.677   1.952  13.769 -2.1699  0.3536 -0.0902
10569TIP3    H253123   3.649   1.874  13.896  0.5462  0.1480  0.4040
10570TIP3   OH253124   0.140   3.265  16.499  0.2931  0.7524 -0.8037
10570TIP3    H153125   0.192   3.201  16.548  0.0947 -0.6403 -2.3646
10570TIP3    H253126   0.140   3.232  16.409 -2.3882  1.2942 -1.0442
10571TIP3   OH253127   3.640   2.982  15.008 -0.3396  0.2670 -0.4638
10571TIP3    H153128   3.591   3.062  15.025 -1.9597 -0.6875 -0.5654
10571TIP3    H253129   3.720   2.991  15.060 -0.7056  1.7395 -0.1390
10572TIP3   OH253130   6.409   3.761  12.662  0.0314  0.3453  0.2467
10572TIP3    H153131   6.503   3.775  12.668  0.1207  1.0744 -2.0582
10572TIP3    H253132   6.400   3.672  12.626 -0.0325  1.2736 -2.1722
10573TIP3   OH253133   2.810   5.936  13.762 -0.1004  0.0875 -0.3385
10573TIP3    H153134   2.872   6.001  13.794 -1.6022  1.7105 -0.6643
10573TIP3    H253135   2.760   5.909  13.839  1.6490 -1.9994  0.1237
10574TIP3   OH253136   3.931   0.888   3.605  0.7349 -0.7648  0.3691
10574TIP3    H153137   3.869   0.957   3.582  0.9915 -0.5699  0.2729
10574TIP3    H253138   3.895   0.809   3.564  1.1141 -0.4503 -0.5677
10575TIP3   OH253139   6.659   5.765   5.945  0.3465 -0.2829  0.4604
10575TIP3    H153140   6.733   5.714   5.914 -0.9808 -1.3455 -1.0242
10575TIP3    H253141   6.698   5.838   5.993  2.3235 -0.9537 -0.1144
10576TIP3   OH253142   5.660   5.792   1.393 -0.2878 -0.6058 -0.2748
10576TIP3    H153143   5.621   5.831   1.471 -1.8755  0.3784 -1.5263
10576TIP3    H253144   5.664   5.863   1.329  2.7604 -0.9201 -0.5080
10577TIP3   OH253145   6.654   4.902  12.316  0.2115 -0.2358  0.3794
10577TIP3    H153146   6.711   4.962  12.269 -2.1492  0.2799 -1.9046
10577TIP3    H253147   6.635   4.947  12.399  0.4111  1.1020 -0.2849
10578TIP3   OH253148   0.079   2.289  13.928 -0.2855  0.0090  0.3432
10578TIP3    H153149   0.142   2.230  13.885 -0.3822  0.3692 -0.3025
10578TIP3    H253150   0.128   2.370  13.942 -0.3276 -0.0275  0.6934
10579TIP3   OH253151   6.548   6.154  15.407 -0.4187 -0.0860  0.0432
10579TIP3    H153152   6.506   6.216  15.347  0.4064 -0.1369 -0.5832
10579TIP3    H253153   6.495   6.074  15.399  0.0823 -0.3065 -1.1104
10580TIP3   OH253154   1.512   1.443  16.763 -0.0874 -0.7194 -0.1944
10580TIP3    H153155   1.530   1.506  16.694 -1.7731  0.6356  0.5622
10580TIP3    H253156   1.598   1.421  16.799  0.4596  2.0551  0.2954
10581TIP3   OH253157   6.083   4.112   0.313  0.5072  0.5763 -0.3037
10581TIP3    H153158   6.130   4.099   0.395  0.8094  0.3723 -0.5056
10581TIP3    H253159   6.134   4.062   0.248  0.2007  0.6304 -0.5878
10582TIP3   OH253160   0.531   5.461   5.174 -0.5958 -0.6149 -0.0424
10582TIP3    H153161   0.483   5.385   5.207 -1.2366  0.4584  1.5475
10582TIP3    H253162   0.479   5.536   5.202  1.2210  0.5081  0.3885
10583TIP3   OH253163   6.410   6.442  13.173 -0.0765 -0.0756  0.3974
10583TIP3    H153164   6.341   6.381  13.150 -0.9552  0.8586  0.5060
10583TIP3    H253165   6.491   6.399  13.146 -0.6608 -1.3826  0.7162
10584TIP3   OH253166   0.812   0.374  15.013 -0.1430 -0.5465  0.2572
10584TIP3    H153167   0.834   0.293  14.967  0.1327 -0.1661 -0.2809
10584TIP3    H253168   0.803   0.348  15.104  2.0430 -0.7918  0.4268
10585TIP3   OH253169   3.553   3.773  12.689  0.0548  0.3829 -0.2602
10585TIP3    H153170   3.471   3.741  12.727  1.5223 -2.5493  0.5182
10585TIP3    H253171   3.568   3.857  12.733 -2.1658  0.6791  0.0324
10586TIP3   OH253172   0.089   1.022  12.811  0.0028  0.5429 -0.2164
10586TIP3    H153173   0.129   1.077  12.744  0.5145 -0.2366 -0.5647
10586TIP3    H253174   0.123   1.057  12.894 -1.7888  2.4279 -0.2628
10587TIP3   OH253175   4.987   0.547   0.459  0.2712 -0.1933  0.2289
10587TIP3    H153176   4.895   0.525   0.473  0.7209 -1.7326  0.7841
10587TIP3    H253177   5.023   0.471   0.414  1.1489  0.6415 -0.5008
10588TIP3   OH253178   4.604   0.669   3.573  0.6663 -0.0369  0.0190
10588TIP3    H153179   4.582   0.623   3.653 -1.6397 -0.6818 -0.9262
10588TIP3    H253180   4.682   0.625   3.540 -0.4130 -2.0858  0.1074
10589TIP3   OH253181   2.128   5.822   2.572 -0.3134  0.2368 -0.1608
10589TIP3    H153182   2.044   5.860   2.596 -1.1177  0.5162 -3.1868
10589TIP3    H253183   2.123   5.731   2.603 -0.4006  1.1036  2.5372
10590TIP3   OH253184   6.531   1.216   5.586  0.3136 -0.4256 -0.0486
10590TIP3    H153185   6.619   1.207   5.622  0.2437  0.1508  0.2754
10590TIP3    H253186   6.474   1.182   5.654  0.1636  0.8890  0.5052
10591TIP3   OH253187   3.595   5.192  10.936  0.1198 -0.3102 -0.4050
10591TIP3    H153188   3.583   5.283  10.907  0.7146  0.2926  1.1845
10591TIP3    H253189   3.689   5.176  10.927 -0.1119 -1.0937 -1.5652
10592TIP3   OH253190   4.013   1.835  14.195  0.8371  0.8429 -0.4096
10592TIP3    H153191   4.027   1.795  14.109  0.4391  2.4155 -1.2109
10592TIP3    H253192   4.084   1.800  14.249  0.9235 -0.3795 -1.2902
10593TIP3   OH253193   6.750   5.468  13.191 -0.3445 -0.0713 -0.5980
10593TIP3    H153194   6.753   5.445  13.284 -1.6992 -0.8516 -0.7419
10593TIP3    H253195   6.798   5.551  13.186 -0.9924  0.4234  0.9446
10594TIP3   OH253196   2.469   5.091   2.968  0.0007 -0.0824  0.4904
10594TIP3    H153197   2.378   5.066   2.954  0.2378 -0.6697 -0.0201
10594TIP3    H253198   2.475   5.106   3.062 -0.6536  0.0842  0.5112
10595TIP3   OH253199   2.629   0.829   0.067  0.2284  0.4467  0.0295
10595TIP3    H153200   2.709   0.875   0.091 -0.2033  0.8216  0.7528
10595TIP3    H253201   2.658   0.763   0.004  1.5479 -1.2484  2.3281
10596TIP3   OH253202   0.362   0.153  13.122  0.1460 -0.5046  0.3247
10596TIP3    H153203   0.288   0.092  13.120 -0.1196 -0.1522 -1.4640
10596TIP3    H253204   0.417   0.121  13.194 -1.1822 -1.4130  0.9731
10597TIP3   OH253205   3.889   4.368  17.010 -0.2148 -0.5024  0.0946
10597TIP3    H153206   3.874   4.281  16.974 -0.1696 -0.2596 -0.5309
10597TIP3    H253207   3.831   4.374  17.086 -2.3271 -0.0732 -1.4992
10598TIP3   OH253208   5.422   5.098  15.721  0.5865  0.5033  0.2255
10598TIP3    H153209   5.328   5.080  15.713  1.0339 -1.5829 -0.6752
10598TIP3    H253210   5.459   5.015  15.750  2.2102  1.2185  0.2137
10599TIP3   OH253211   0.657   4.368   2.575 -0.2033 -0.7007 -0.3097
10599TIP3    H153212   0.612   4.396   2.655  3.5736  1.5029  1.1887
10599TIP3    H253213   0.682   4.277   2.592 -0.1121 -0.4914  0.6857
10600TIP3   OH253214   2.735   2.158   5.554 -0.3634 -0.5750 -0.1071
10600TIP3    H153215   2.784   2.238   5.536 -0.5759 -0.1000  1.3632
10600TIP3    H253216   2.677   2.181   5.627 -2.0201 -1.4259 -1.1292
10601TIP3   OH253217   1.499   5.410   3.733 -0.3232 -0.3090 -0.1111
10601TIP3    H153218   1.479   5.376   3.646  1.4101  1.4232 -1.2395
10601TIP3    H253219   1.557   5.345   3.772 -0.0480 -0.4637 -0.7716
10602TIP3   OH253220   3.616   0.454   3.692  0.0558  0.6387 -0.2682
10602TIP3    H153221   3.608   0.486   3.602 -0.3742 -0.2790 -0.5658
10602TIP3    H253222   3.706   0.423   3.699 -0.0498  0.2591 -0.5418
10603TIP3   OH253223   1.665   3.742  14.415  0.0927  0.4632 -0.1807
10603TIP3    H153224   1.709   3.680  14.356  0.4639  0.8784 -0.3381
10603TIP3    H253225   1.702   3.722  14.502  2.8562  2.8355 -0.7543
10604TIP3   OH253226   3.955   0.137  11.555  0.0885  0.2283  0.2112
10604TIP3    H153227   4.038   0.093  11.571  0.2019  0.7391  1.0792
10604TIP3    H253228   3.905   0.076  11.501  0.5990 -0.5579  0.6178
10605TIP3   OH253229   3.021   4.645  13.101 -0.0208  0.3371 -0.3662
10605TIP3    H153230   3.009   4.655  13.196  2.5179 -1.4024  0.1778
10605TIP3    H253231   2.974   4.565  13.080 -0.7927  0.8555 -0.6435
10606TIP3   OH253232   5.056   4.538  12.829 -0.4275 -0.3808  0.0005
10606TIP3    H153233   5.028   4.458  12.874  0.0019 -0.4390  0.1758
10606TIP3    H253234   5.040   4.608  12.892  3.1466 -0.8247  1.5634
10607TIP3   OH253235   0.541   0.981   3.789  0.1281 -0.0334  0.8516
10607TIP3    H153236   0.559   0.905   3.845 -1.8729 -0.7575  0.5612
10607TIP3    H253237   0.448   1.000   3.805  1.0162  3.4882  2.2845
10608TIP3   OH253238   1.245   2.593   5.386 -0.5677 -0.2228  0.2140
10608TIP3    H153239   1.218   2.539   5.461 -0.8249 -0.0608  0.2383
10608TIP3    H253240   1.333   2.621   5.408  0.0214 -1.5944 -0.3286
10609TIP3   OH253241   3.332   1.024  11.833  0.4573 -0.2013 -0.0998
10609TIP3    H153242   3.324   0.943  11.884 -0.5763 -1.2931 -1.9584
10609TIP3    H253243   3.374   0.996  11.752 -0.3528  1.0561 -0.9487
10610TIP3   OH253244   3.898   5.376  16.473  0.1575  0.0233  0.0946
10610TIP3    H153245   3.893   5.295  16.422  0.6495 -0.2886  0.5431
10610TIP3    H253246   3.928   5.442  16.410  0.1245 -0.2155 -0.1780
10611TIP3   OH253247   0.903   1.369   3.835 -1.1016  0.1444 -0.4277
10611TIP3    H153248   0.984   1.319   3.831 -0.9424  0.4747 -1.4245
10611TIP3    H253249   0.850   1.324   3.901 -0.2995 -0.3426 -0.1070
10612TIP3   OH253250   5.845   1.764   3.041  0.0380 -0.4186 -0.4152
10612TIP3    H153251   5.835   1.698   3.109  2.0911  0.2935  0.6441
10612TIP3    H253252   5.763   1.812   3.041 -0.3269 -1.0195  0.9441
10613TIP3   OH253253   6.559   1.648   6.091 -0.3834  0.2421  0.0399
10613TIP3    H153254   6.465   1.631   6.089 -0.2166 -0.6100 -0.8285
10613TIP3    H253255   6.580   1.657   6.184 -1.1042 -0.7451  0.3001
10614TIP3   OH253256   0.977   5.365  14.194  0.6343  0.5755 -0.2342
10614TIP3    H153257   0.911   5.309  14.236  1.1792  0.1397  0.0444
10614TIP3    H253258   0.991   5.327  14.108  0.9520  0.3181 -0.0712
10615TIP3   OH253259   0.069   0.779   3.181  0.3517 -0.4262  0.6491
10615TIP3    H153260   0.067   0.712   3.113 -1.3226 -1.4849  1.7196
10615TIP3    H253261   0.147   0.831   3.161  1.6699 -2.6639 -0.2374
10616TIP3   OH253262   3.208   3.479   3.862 -0.0524 -1.1752  0.3354
10616TIP3    H153263   3.251   3.564   3.864 -0.7590 -0.8266  0.9826
10616TIP3    H253264   3.236   3.436   3.942  0.3665 -1.5866 -0.0301
10617TIP3   OH253265   5.685   4.383  11.013  0.1962  0.2252 -0.1391
10617TIP3    H153266   5.775   4.412  10.999  0.0436  0.5818 -0.3702
10617TIP3    H253267   5.645   4.453  11.064  0.1260 -0.0598  0.1984
10618TIP3   OH253268   5.276   2.929   3.802  0.0245 -0.0132 -0.1568
10618TIP3    H153269   5.291   3.013   3.758  1.1156 -0.4895 -0.7035
10618TIP3    H253270   5.187   2.905   3.778  0.9042 -0.7088 -2.8636
10619TIP3   OH253271   3.011   0.151  14.900 -0.5634  0.2880 -0.3858
10619TIP3    H153272   2.938   0.089  14.898  0.4412 -0.8952 -0.6068
10619TIP3    H253273   3.020   0.181  14.810 -0.1796 -0.2706 -0.5342
10620TIP3   OH253274   1.218   1.210   1.464 -0.4146 -0.1571  0.2111
10620TIP3    H153275   1.305   1.247   1.451 -0.2742 -0.6909 -0.3844
10620TIP3    H253276   1.173   1.274   1.520 -0.0679  0.7419 -0.5224
10621TIP3   OH253277   4.862   0.130   3.742  0.1463  0.0333  0.1512
10621TIP3    H153278   4.807   0.192   3.693 -2.5891 -2.1157  0.3580
10621TIP3    H253279   4.894   0.180   3.817 -1.5131  1.3817 -0.0044
10622TIP3   OH253280   2.035   4.069  11.116 -0.0585 -0.4009  0.2381
10622TIP3    H153281   2.044   3.975  11.134  2.0378 -0.4861 -1.1643
10622TIP3    H253282   2.006   4.073  11.025  0.2316  0.3198  0.1798
10623TIP3   OH253283   1.487   1.040  13.169 -0.6044  0.5357  0.1737
10623TIP3    H153284   1.440   1.107  13.119  1.8943  1.5496 -0.8611
10623TIP3    H253285   1.483   1.071  13.259 -1.7789  0.6830  0.0819
10624TIP3   OH253286   2.559   2.602   2.715 -0.2222 -0.3922 -0.2158
10624TIP3    H153287   2.623   2.531   2.708 -0.6980 -0.7453 -1.0587
10624TIP3    H253288   2.589   2.668   2.654  0.6159  0.4532  1.0963
10625TIP3   OH253289   5.462   0.561  11.130  0.0304 -0.1964 -0.2781
10625TIP3    H153290   5.510   0.536  11.051  0.5587 -0.8720  0.2509
10625TIP3    H253291   5.519   0.625  11.174  1.4273 -2.5111  1.3903
10626TIP3   OH253292   3.277   1.721  14.300 -0.1848 -0.0155  0.0011
10626TIP3    H153293   3.236   1.646  14.257  1.5519 -1.8141  1.3763
10626TIP3    H253294   3.370   1.713  14.280  0.3877  0.2316  2.3555
10627TIP3   OH253295   5.856   3.297  11.911 -0.8007  0.0812 -0.3914
10627TIP3    H153296   5.929   3.335  11.960  0.0048  0.8910 -2.1704
10627TIP3    H253297   5.862   3.337  11.824 -1.5233 -2.1442 -1.5019
10628TIP3   OH253298   2.346   1.434  15.167  0.3289 -0.1504 -0.0326
10628TIP3    H153299   2.411   1.410  15.101 -1.0423  1.0289 -1.8650
10628TIP3    H253300   2.342   1.359  15.226  1.0118 -1.5549 -1.7343
10629TIP3   OH253301   5.779   5.903  14.559  0.0575 -0.0437  0.2272
10629TIP3    H153302   5.783   5.994  14.532  1.0343 -0.7244 -2.0284
10629TIP3    H253303   5.810   5.904  14.650  0.8284  1.7666 -0.0318
10630TIP3   OH253304   3.122   0.571   3.966 -0.1930  0.2476 -0.3007
10630TIP3    H153305   3.168   0.585   3.883 -0.4399  0.7856 -0.3487
10630TIP3    H253306   3.072   0.491   3.952  0.6592 -0.2989 -0.2752
10631TIP3   OH253307   5.365   3.087  12.145  0.2447 -0.3127  0.1170
10631TIP3    H153308   5.391   3.177  12.163  0.9228 -0.2515 -1.1846
10631TIP3    H253309   5.302   3.067  12.215  0.2833  1.0687  0.5687
10632TIP3   OH253310   0.376   1.108  16.761  0.1357 -0.7707 -0.0309
10632TIP3    H153311   0.443   1.126  16.695 -0.8012  2.1512 -0.2555
10632TIP3    H253312   0.318   1.184  16.758 -1.6447 -1.9810  2.0667
10633TIP3   OH253313   4.212   0.708  14.014 -0.2431 -0.3002 -0.3413
10633TIP3    H153314   4.241   0.641  14.076 -0.9951 -1.0923 -0.8223
10633TIP3    H253315   4.256   0.788  14.042 -1.4420 -0.3826  1.9155
10634TIP3   OH253316   5.168   1.317  14.850  0.1614  0.3360  0.6889
10634TIP3    H153317   5.242   1.297  14.792  1.0721  2.1498  1.1594
10634TIP3    H253318   5.110   1.371  14.796  0.0253  0.3326  0.8338
10635TIP3   OH253319   4.312   4.549  13.841 -0.5892 -0.4339 -0.1129
10635TIP3    H153320   4.281   4.529  13.753  1.9006 -0.1138 -1.0899
10635TIP3    H253321   4.362   4.630  13.831  3.3623 -2.6370  0.7317
10636TIP3   OH253322   3.910   0.450   0.859 -0.6730  0.2226 -0.9023
10636TIP3    H153323   3.917   0.388   0.787  1.9170 -0.1628 -0.3775
10636TIP3    H253324   3.840   0.416   0.914 -0.2845 -1.4062 -1.3973
10637TIP3   OH253325   3.877   3.064  13.075 -0.1888 -0.1677  0.0126
10637TIP3    H153326   3.847   3.102  13.158 -0.5464  1.0691 -0.6673
10637TIP3    H253327   3.902   2.975  13.097 -0.0266  0.2325  1.5111
10638TIP3   OH253328   3.499   2.780   1.762  0.1393 -0.3498  0.1211
10638TIP3    H153329   3.418   2.751   1.806 -0.6600  0.2156 -0.9643
10638TIP3    H253330   3.487   2.874   1.749  1.1400 -0.1928  0.2871
10639TIP3   OH253331   5.955   0.595  15.202 -0.1230  0.0864  0.7340
10639TIP3    H153332   5.952   0.656  15.276 -0.1538 -2.7949  3.2060
10639TIP3    H253333   5.879   0.539  15.215  0.0969 -0.6910 -1.2881
10640TIP3   OH253334   2.756   1.742  15.564  0.2279 -0.0657 -0.2568
10640TIP3    H153335   2.795   1.687  15.496  0.6825  1.4900 -1.2923
10640TIP3    H253336   2.694   1.685  15.609  1.6888 -1.8243 -0.3784
10641TIP3   OH253337   4.849   4.521  15.123  0.0683 -0.4173  0.3027
10641TIP3    H153338   4.893   4.448  15.167  0.0942 -0.2236  0.5982
10641TIP3    H253339   4.913   4.592  15.124  0.0034 -0.3573  0.1125
10642TIP3   OH253340   4.891   6.092  12.390 -0.2484  0.1617 -0.0561
10642TIP3    H153341   4.834   6.072  12.316 -0.9645  0.1792  0.4830
10642TIP3    H253342   4.833   6.092  12.466  0.6274 -0.7062  0.6284
10643TIP3   OH253343   3.885   2.991   2.501 -0.4545  0.2161  0.5099
10643TIP3    H153344   3.951   2.922   2.510 -1.4120 -0.8043 -0.2231
10643TIP3    H253345   3.847   2.977   2.414 -0.4431  1.8587  0.2221
10644TIP3   OH253346   5.161   1.345  13.515 -0.1203 -0.1453  0.3213
10644TIP3    H153347   5.196   1.342  13.604  1.6808  0.4410 -0.3228
10644TIP3    H253348   5.099   1.418  13.515  1.2425  1.0522  0.6657
10645TIP3   OH253349   5.522   6.403   3.804  0.1352 -0.2227 -0.4486
10645TIP3    H153350   5.557   6.435   3.887 -1.6108 -1.7854  0.9580
10645TIP3    H253351   5.492   6.482   3.758 -1.9682  0.3990  1.9090
10646TIP3   OH253352   5.733   6.375  10.978 -0.0400  0.1899 -0.4878
10646TIP3    H153353   5.810   6.429  10.962 -0.9615  1.3061 -1.1653
10646TIP3    H253354   5.753   6.291  10.936  0.6691  0.5784 -0.9258
10647TIP3   OH253355   4.982   6.152   4.640 -0.0315  0.0728  0.1375
10647TIP3    H153356   4.894   6.189   4.627  0.7037  1.7932 -0.0496
10647TIP3    H253357   5.018   6.200   4.714  0.8163 -0.5398  0.1343
10648TIP3   OH253358   2.206   2.801   6.441  0.0604  0.3602 -0.6805
10648TIP3    H153359   2.156   2.812   6.360 -1.7052  1.0878  0.4871
10648TIP3    H253360   2.297   2.795   6.411 -0.5147  0.9733 -2.6946
10649TIP3   OH253361   6.047   1.300  11.486  0.0771  0.0198  0.3219
10649TIP3    H153362   5.952   1.307  11.481 -0.0375  1.2962  3.1613
10649TIP3    H253363   6.076   1.387  11.516  2.0398 -0.6191  0.3802
10650TIP3   OH253364   0.141   5.008  13.793  0.4958 -0.2915  0.6507
10650TIP3    H153365   0.150   5.030  13.886  1.6841  0.3282  0.4033
10650TIP3    H253366   0.146   4.913  13.790  0.7892 -0.2952  1.1879
10651TIP3   OH253367   2.771   5.460  15.659 -0.1742 -0.2726 -0.4745
10651TIP3    H153368   2.732   5.521  15.722  0.0966 -1.9275  1.3691
10651TIP3    H253369   2.865   5.465  15.677 -0.2402 -2.0299  0.4856
10652TIP3   OH253370   5.006   0.357  13.712  0.3921  0.2112  0.5096
10652TIP3    H153371   4.932   0.380  13.655  0.8662  0.2008 -0.1098
10652TIP3    H253372   5.025   0.437  13.761  0.9006  0.6155 -0.3616
10653TIP3   OH253373   1.111   3.660  14.260  0.7903  0.4768  0.4144
10653TIP3    H153374   1.203   3.640  14.279  1.2087  3.1515  1.3948
10653TIP3    H253375   1.073   3.682  14.345 -0.8046 -0.6800  0.0221
10654TIP3   OH253376   2.988   2.951  14.507  0.1678 -0.0933  0.6419
10654TIP3    H153377   2.960   3.040  14.487  0.3351  0.3481  2.3039
10654TIP3    H253378   3.080   2.948  14.479 -0.0804 -0.0158 -0.1980
10655TIP3   OH253379   1.692   0.862  13.138  0.7095  0.0560  0.3406
10655TIP3    H153380   1.601   0.892  13.146  0.9384  0.5924  1.0130
10655TIP3    H253381   1.745   0.941  13.145  1.2312 -0.2480 -0.1148
10656TIP3   OH253382   3.864   4.520   1.433 -0.0082 -0.0753  0.4258
10656TIP3    H153383   3.786   4.562   1.397  0.3700 -0.5156 -0.9353
10656TIP3    H253384   3.831   4.462   1.501 -0.8702 -0.2500 -0.1360
10657TIP3   OH253385   6.457   3.022  16.891  0.3424 -0.3215  0.2025
10657TIP3    H153386   6.425   2.994  16.805 -0.5642 -0.0213  0.4338
10657TIP3    H253387   6.403   3.097  16.913  0.3865 -0.5642  1.1615
10658TIP3   OH253388   1.722   3.384   0.107 -0.1431 -0.0133 -0.0415
10658TIP3    H153389   1.645   3.434   0.081  0.1200  1.2100  1.4311
10658TIP3    H253390   1.693   3.333   0.183  1.0959  2.2285  1.9799
10659TIP3   OH253391   6.075   3.948  15.344 -0.4658  0.3927  0.4958
10659TIP3    H153392   6.122   4.009  15.400 -0.4451 -0.4067  1.3583
10659TIP3    H253393   6.052   3.999  15.266 -0.5892  1.5265  1.2737
10660TIP3   OH253394   2.971   2.642  16.384 -0.2595 -0.4830 -0.0062
10660TIP3    H153395   2.958   2.728  16.423  1.0925 -0.8295  1.2457
10660TIP3    H253396   2.950   2.654  16.292  2.0192  1.7089 -0.2690
10661TIP3   OH253397   4.861   5.674  13.755  0.4316  0.0826 -0.0786
10661TIP3    H153398   4.932   5.618  13.724  1.7303  0.5209  2.0491
10661TIP3    H253399   4.901   5.730  13.822 -1.7702  0.7345  0.7401
10662TIP3   OH253400   2.965   4.403   4.764  0.1926  0.0894  0.1897
10662TIP3    H153401   2.900   4.343   4.801  0.9107  0.8764  2.7883
10662TIP3    H253402   3.026   4.346   4.717 -1.7114 -0.7640 -1.2936
10663TIP3   OH253403   1.605   1.192   5.139 -0.8335  0.5956  0.1619
10663TIP3    H153404   1.692   1.233   5.141 -1.3182  1.6964 -0.6173
10663TIP3    H253405   1.555   1.238   5.206 -0.6644 -0.4101  0.9876
10664TIP3   OH253406   5.146   2.236   0.457  0.5368  0.2684 -0.3043
10664TIP3    H153407   5.107   2.203   0.538 -2.0832 -0.4345 -1.7902
10664TIP3    H253408   5.188   2.159   0.418  1.4953  0.5326  0.1713
10665TIP3   OH253409   5.808   5.751  13.602  0.8014  0.5604  0.3995
10665TIP3    H153410   5.892   5.706  13.610  1.3444  1.4152 -0.3901
10665TIP3    H253411   5.812   5.794  13.517 -1.4341 -1.4292 -0.7864
10666TIP3   OH253412   3.510   0.711   5.794  0.0245  0.1827  0.4525
10666TIP3    H153413   3.561   0.637   5.759 -0.0549  0.0962  0.5199
10666TIP3    H253414   3.500   0.770   5.720  1.4086  0.8491  0.7719
10667TIP3   OH253415   2.985   2.587  10.165  0.2173  0.2821  0.0293
10667TIP3    H153416   2.994   2.494  10.143  0.5345  1.0431 -3.3377
10667TIP3    H253417   3.073   2.613  10.194  1.1039  0.3584 -2.5941
10668TIP3   OH253418   2.941   2.784  14.053  0.2670  0.0527 -0.1507
10668TIP3    H153419   2.861   2.781  14.106  2.7356 -2.3890  3.6812
10668TIP3    H253420   2.919   2.735  13.973 -1.7203 -1.5767  1.3563
10669TIP3   OH253421   5.524   1.370   0.800  0.0811 -0.2308  0.1287
10669TIP3    H153422   5.507   1.380   0.706 -1.8066  1.0189  0.5756
10669TIP3    H253423   5.440   1.391   0.842  0.8506 -0.9434  2.0948
10670TIP3   OH253424   5.634   5.461   2.047  0.0210  0.3419 -0.3233
10670TIP3    H153425   5.549   5.446   2.005  0.4202  0.6888 -1.2940
10670TIP3    H253426   5.635   5.403   2.122  0.1537 -1.9364 -2.0282
10671TIP3   OH253427   3.732   5.869   4.233 -0.4760  0.5697 -0.0946
10671TIP3    H153428   3.722   5.892   4.141  0.4302  0.4119 -0.2343
10671TIP3    H253429   3.728   5.953   4.279  1.3120  0.8875 -0.4750
10672TIP3   OH253430   5.546   1.981   5.481  0.2468  0.1846 -0.0115
10672TIP3    H153431   5.476   2.005   5.542  0.9663 -0.7688  1.2185
10672TIP3    H253432   5.505   1.919   5.421  0.4659 -1.8517  1.8620
10673TIP3   OH253433   0.415   1.786  16.516  0.2490 -0.0725 -0.3041
10673TIP3    H153434   0.461   1.716  16.469  1.0911  1.4856 -1.8366
10673TIP3    H253435   0.457   1.867  16.486 -3.8140  1.4680 -2.1886
10674TIP3   OH253436   6.542   0.713   1.960  0.0278 -0.1360 -0.2890
10674TIP3    H153437   6.546   0.696   2.054 -1.5417 -3.1704 -0.6894
10674TIP3    H253438   6.602   0.649   1.922 -0.0227  0.4866 -1.4132
10675TIP3   OH253439   2.173   5.199   2.210 -0.0088 -0.6576 -0.1833
10675TIP3    H153440   2.164   5.294   2.216  0.0913 -0.6571 -0.0452
10675TIP3    H253441   2.118   5.174   2.136  1.5060 -0.2477 -1.4958
10676TIP3   OH253442   5.638   1.902   2.020 -0.1767 -0.4535 -0.5460
10676TIP3    H153443   5.680   1.952   1.951  0.2049 -0.7497 -0.5352
10676TIP3    H253444   5.649   1.956   2.099 -1.0615  0.1163 -0.8087
10677TIP3   OH253445   6.739   4.822  16.687  0.5310 -0.2986  0.0420
10677TIP3    H153446   6.739   4.783  16.600  0.9949  0.8547 -0.4856
10677TIP3    H253447   6.798   4.766  16.739  4.3738  1.9026 -1.7334
10678TIP3   OH253448   6.149   0.387   0.781  0.0122  0.4706 -0.6110
10678TIP3    H153449   6.166   0.480   0.798  0.8583  0.2922 -0.4730
10678TIP3    H253450   6.207   0.340   0.841 -0.9020 -0.1535 -0.2026
10679TIP3   OH253451   6.690   6.013   6.069 -0.1876  0.2329  0.0903
10679TIP3    H153452   6.726   5.963   6.143  0.0237 -1.3050 -1.0210
10679TIP3    H253453   6.722   6.102   6.082  2.4860 -0.7018  0.1260
10680TIP3   OH253454   2.816   1.444  15.444 -0.1222 -0.1680  0.5362
10680TIP3    H153455   2.802   1.351  15.462 -1.2472  0.3310  2.3681
10680TIP3    H253456   2.728   1.477  15.425  0.0278  0.8491  1.5742
10681TIP3   OH253457   5.192   1.531  16.668  0.1380  0.5339 -0.0010
10681TIP3    H153458   5.210   1.612  16.715 -1.6912  0.4313  0.9070
10681TIP3    H253459   5.101   1.510  16.690  0.6547 -1.8875 -0.0358
10682TIP3   OH253460   5.725   1.820  16.715  0.2030  0.2972  0.0011
10682TIP3    H153461   5.675   1.900  16.733  2.2526  1.5687  0.2180
10682TIP3    H253462   5.698   1.760  16.785  0.4201  1.6414  1.2785
10683TIP3   OH253463   2.145   6.232  13.130  0.3003 -0.2553 -0.3327
10683TIP3    H153464   2.094   6.313  13.125 -1.9260 -1.5910 -0.0563
10683TIP3    H253465   2.233   6.257  13.105 -0.3676  2.2517 -0.2754
10684TIP3   OH253466   0.629   2.960   1.167 -0.7678 -0.5118 -0.0491
10684TIP3    H153467   0.613   3.049   1.197  1.6515 -0.0205 -0.1456
10684TIP3    H253468   0.683   2.920   1.236 -0.9147 -1.5474 -0.5195
10685TIP3   OH253469   6.525   4.512  16.857 -0.3255 -0.6273 -0.4402
10685TIP3    H153470   6.512   4.585  16.918  0.1822 -1.3731  0.5870
10685TIP3    H253471   6.458   4.448  16.882  1.1959 -1.8097  0.7101
10686TIP3   OH253472   6.433   1.528   1.250  0.6081  0.7239 -0.6302
10686TIP3    H153473   6.491   1.490   1.315 -0.3134  0.1716 -0.1219
10686TIP3    H253474   6.351   1.544   1.298 -0.7704 -1.5939 -2.1292
10687TIP3   OH253475   1.048   4.157   0.681 -0.2346 -0.2793  0.2632
10687TIP3    H153476   0.995   4.234   0.665  0.6647  0.2749 -0.1005
10687TIP3    H253477   1.014   4.091   0.620 -0.5429  0.0480  0.0809
10688TIP3   OH253478   1.454   6.210  16.238 -0.1337  0.4221  0.3745
10688TIP3    H153479   1.450   6.175  16.328 -1.0400  0.2528  0.2788
10688TIP3    H253480   1.477   6.134  16.185  0.1821  0.4725  0.4381
10689TIP3   OH253481   5.683   3.216   3.383 -0.3758 -0.0299  0.2423
10689TIP3    H153482   5.657   3.215   3.475  0.9107 -0.5490  0.6185
10689TIP3    H253483   5.601   3.228   3.335 -1.1081 -0.1293  1.4377
10690TIP3   OH253484   0.104   6.128   4.766  0.1439 -0.2888 -0.5614
10690TIP3    H153485   0.048   6.089   4.699 -1.2586 -1.5992  1.3459
10690TIP3    H253486   0.096   6.071   4.842  3.1576  0.1553  0.1725
10691TIP3   OH253487   4.652   3.734  15.135 -1.0112  0.2279 -0.4655
10691TIP3    H153488   4.597   3.806  15.164 -0.1423  0.2074  1.2398
10691TIP3    H253489   4.630   3.661  15.193  0.6364  0.1524  0.0925
10692TIP3   OH253490   2.649   1.439   0.126  0.1636 -0.1547  0.0757
10692TIP3    H153491   2.691   1.484   0.053 -2.0162  1.1692 -0.4027
10692TIP3    H253492   2.565   1.409   0.091 -0.3866 -0.5640  1.6958
10693TIP3   OH253493   2.770   6.581   4.284 -0.1057  0.2447  0.1402
10693TIP3    H153494   2.695   6.569   4.343  0.5965  1.7283  1.3915
10693TIP3    H253495   2.737   6.640   4.216 -0.4051 -0.0234  0.0531
10694TIP3   OH253496   4.314   0.881  12.644  0.2190 -0.0293  0.0897
10694TIP3    H153497   4.267   0.798  12.634  0.8287 -0.7377  2.8491
10694TIP3    H253498   4.280   0.936  12.573 -2.5073 -1.5526  0.1453
10695TIP3   OH253499   2.662   3.037  14.116  0.0975 -0.7820  0.2247
10695TIP3    H153500   2.694   2.948  14.102 -0.8620 -1.4306  1.9410
10695TIP3    H253501   2.629   3.036  14.206 -0.4328  1.1551  0.0654
10696TIP3   OH253502   2.253   1.480  16.373  0.2094 -0.4191  0.0660
10696TIP3    H153503   2.272   1.394  16.335 -0.2216 -0.5352  0.1047
10696TIP3    H253504   2.163   1.499  16.345  0.7423  0.5909 -0.9981
10697TIP3   OH253505   0.763   0.099  13.540 -0.1336  0.8176  0.2563
10697TIP3    H153506   0.682   0.142  13.569 -0.2389  0.6123  0.2638
10697TIP3    H253507   0.763   0.111  13.445 -1.7376 -1.8856 -0.1389
10698TIP3   OH253508   2.400   1.851  16.662  0.2933 -0.1874 -0.2226
10698TIP3    H153509   2.413   1.760  16.633  1.4259 -0.0361 -0.2115
10698TIP3    H253510   2.305   1.863  16.660  0.0640 -1.6807  0.7176
10699TIP3   OH253511   0.763   6.324  11.177 -0.0856  0.7970 -0.1025
10699TIP3    H153512   0.668   6.333  11.175 -0.0240  1.6586  0.7057
10699TIP3    H253513   0.789   6.322  11.085 -1.0793 -1.7556 -0.3903
10700TIP3   OH253514   0.038   4.497   5.366 -0.0905 -0.1606 -0.1098
10700TIP3    H153515   0.114   4.453   5.405 -0.4350 -0.8359 -0.1919
10700TIP3    H253516  -0.017   4.521   5.440 -0.8148 -1.5734 -0.1769
10701TIP3   OH253517   5.318   1.670   2.137 -0.1298 -0.2238  1.1547
10701TIP3    H153518   5.338   1.636   2.224  2.1010 -0.7603  0.4563
10701TIP3    H253519   5.368   1.752   2.132  0.4665 -0.6589  0.0347
10702TIP3   OH253520   2.251   0.983   2.330  0.1403  0.0156 -0.1561
10702TIP3    H153521   2.184   1.041   2.367 -0.3000 -0.6629  0.1025
10702TIP3    H253522   2.258   0.911   2.392  1.3282  0.2326 -0.0305
10703TIP3   OH253523   6.685   1.811  16.222 -0.5820 -0.3981 -0.4510
10703TIP3    H153524   6.754   1.825  16.286  0.1141 -0.9080 -1.0835
10703TIP3    H253525   6.651   1.724  16.240 -1.3436  0.0067  0.1139
10704TIP3   OH253526   4.059   5.151   4.174 -0.3875  0.1353 -0.0050
10704TIP3    H153527   4.073   5.201   4.255 -1.7645  1.6129 -0.6619
10704TIP3    H253528   4.066   5.059   4.202 -0.2960  0.6335  1.6943
10705TIP3   OH253529   4.119   3.338   2.582 -0.2447  0.4472 -0.8852
10705TIP3    H153530   4.070   3.363   2.504  0.4951 -0.2072 -1.5707
10705TIP3    H253531   4.071   3.263   2.618 -1.4877  1.7521  0.1973
10706TIP3   OH253532   4.820   6.269  11.250 -0.2460 -0.5453  0.4830
10706TIP3    H153533   4.824   6.312  11.165  1.4809 -0.2600  0.6863
10706TIP3    H253534   4.803   6.177  11.230  0.4797 -0.5381 -0.2041
10707TIP3   OH253535   5.670   0.807   0.525  0.0298  0.3091  0.4191
10707TIP3    H153536   5.595   0.834   0.578 -0.2979  0.6417 -0.2149
10707TIP3    H253537   5.745   0.848   0.569 -0.3890  1.7129 -0.1358
10708TIP3   OH253538   2.631   0.507   2.395  0.3451 -0.1993 -0.0370
10708TIP3    H153539   2.721   0.483   2.376  0.1867  0.3433 -1.5601
10708TIP3    H253540   2.634   0.602   2.410 -0.2428  0.1570 -2.0021
10709TIP3   OH253541   5.334   0.892  11.798  0.1783 -0.2808 -0.6605
10709TIP3    H153542   5.419   0.902  11.841 -1.2846  0.3264  2.1320
10709TIP3    H253543   5.353   0.910  11.705  3.2234 -0.8876 -0.2092
10710TIP3   OH253544   4.996   4.144  14.462 -0.7975 -0.0986 -0.3327
10710TIP3    H153545   4.994   4.052  14.489 -1.1682  0.1719  0.5884
10710TIP3    H253546   5.045   4.188  14.531  0.8885  0.1390 -1.6324
10711TIP3   OH253547   2.726   1.284   3.795  0.4867  0.4568  0.2555
10711TIP3    H153548   2.801   1.317   3.746  1.1190  0.8733  1.4873
10711TIP3    H253549   2.668   1.360   3.805  0.4423  0.4150  0.3189
10712TIP3   OH253550   5.967   3.106   2.011  0.4830 -0.2842 -0.0499
10712TIP3    H153551   5.944   3.035   2.072 -0.7458  0.2536  0.1307
10712TIP3    H253552   5.891   3.164   2.013  0.6208 -0.0236 -1.7526
10713TIP3   OH253553   1.628   5.251  15.590  0.3512 -0.0346  0.1024
10713TIP3    H153554   1.692   5.313  15.554 -0.2733  0.5285 -0.0615
10713TIP3    H253555   1.547   5.301  15.594  0.1332 -0.4533  1.1923
10714TIP3   OH253556   2.579   4.166   3.189 -0.5843  0.6921  0.0269
10714TIP3    H153557   2.617   4.177   3.276  1.4089  0.3970 -0.7850
10714TIP3    H253558   2.579   4.071   3.174  1.9644  0.8998 -1.5195
10715TIP3   OH253559   1.082   4.288  16.808 -0.0744  0.1467 -0.1795
10715TIP3    H153560   1.000   4.297  16.761 -0.3188  0.0387  0.2260
10715TIP3    H253561   1.149   4.312  16.744 -0.1467 -3.1720 -1.6387
10716TIP3   OH253562   0.107   5.634   5.914 -0.0310  0.4725  0.0726
10716TIP3    H153563   0.142   5.669   5.997 -2.3510 -2.6391  2.5042
10716TIP3    H253564   0.168   5.565   5.890 -1.5608 -1.4612  1.5383
10717TIP3   OH253565   5.700   4.999  11.393  0.1013  0.0592 -0.1370
10717TIP3    H153566   5.778   5.024  11.442  0.4063 -2.6571  0.8540
10717TIP3    H253567   5.627   5.035  11.444  0.6505  2.1972 -0.8134
10718TIP3   OH253568   3.321   2.352  13.421  0.3818 -0.0513  0.2752
10718TIP3    H153569   3.243   2.309  13.455  0.0824 -0.7909 -1.2725
10718TIP3    H253570   3.329   2.433  13.472 -0.6815 -0.5644  1.2757
10719TIP3   OH253571   6.484   4.697   3.150 -0.0194 -0.2265  0.4373
10719TIP3    H153572   6.493   4.746   3.068  1.9665  0.4402  1.0386
10719TIP3    H253573   6.449   4.761   3.212  2.1033  0.3284  1.0912
10720TIP3   OH253574   0.359   6.226   4.799  0.1766  0.4414 -0.2474
10720TIP3    H153575   0.264   6.214   4.796  0.2084  0.3145 -0.9000
10720TIP3    H253576   0.377   6.255   4.888 -0.0580 -3.1491  1.0589
10721TIP3   OH253577   2.631   0.742   5.526 -0.3780 -0.2200  0.5155
10721TIP3    H153578   2.618   0.741   5.620 -0.4408  1.1802  0.5253
10721TIP3    H253579   2.550   0.780   5.491  0.5495  1.3302  0.0461
10722TIP3   OH253580   0.228   5.310   4.616  0.1127  0.4606  0.5111
10722TIP3    H153581   0.228   5.361   4.535 -0.6769  0.1808  0.3323
10722TIP3    H253582   0.135   5.299   4.637  0.2950 -0.3374  0.9046
10723TIP3   OH253583   0.207   3.669  13.082  0.4123 -0.1108  0.0592
10723TIP3    H153584   0.257   3.591  13.109 -0.2662 -0.3700  0.5778
10723TIP3    H253585   0.151   3.689  13.157 -1.1013 -0.5074 -0.9384
10724TIP3   OH253586   6.608   4.979   3.182  0.2506  0.2791 -0.8289
10724TIP3    H153587   6.534   4.968   3.241 -0.9946 -0.4313 -2.5042
10724TIP3    H253588   6.674   4.917   3.215  0.1289  0.9141  0.6556
10725TIP3   OH253589   4.221   2.841  14.058  0.3206  0.3775 -0.3977
10725TIP3    H153590   4.203   2.773  14.123  0.8607  1.5386  0.9956
10725TIP3    H253591   4.316   2.836  14.043  0.5140  1.4224  0.4123
10726TIP3   OH253592   5.401   3.255   0.967  0.6402 -0.6872 -0.4860
10726TIP3    H153593   5.422   3.214   1.051  0.7684 -0.6016 -0.4762
10726TIP3    H253594   5.416   3.349   0.981 -0.1412 -0.5805 -0.3607
10727TIP3   OH253595   1.513   5.052   3.512 -0.6248 -0.0997  0.5391
10727TIP3    H153596   1.514   5.043   3.417 -2.4436  1.4522  0.3372
10727TIP3    H253597   1.425   5.025   3.538 -0.0251 -0.8676  1.8336
10728TIP3   OH253598   2.241   3.607   1.883  0.3056  0.0722 -0.3408
10728TIP3    H153599   2.244   3.603   1.978  0.0365 -0.9792 -0.3732
10728TIP3    H253600   2.332   3.618   1.856  0.5935 -1.4896 -0.0359
10729TIP3   OH253601   4.158   1.146  15.829  0.3236  0.6806  0.4869
10729TIP3    H153602   4.249   1.173  15.843  0.7207  0.6339 -1.7704
10729TIP3    H253603   4.139   1.172  15.739 -1.8305  0.4675  0.8510
10730TIP3   OH253604   6.542   5.272   1.247  0.2464  0.2084  0.2731
10730TIP3    H153605   6.495   5.208   1.194  0.3245 -0.5970  1.1625
10730TIP3    H253606   6.474   5.331   1.280  0.1777  0.6146 -0.5622
10731TIP3   OH253607   6.511   1.524  14.119  0.2110 -0.2526  0.1634
10731TIP3    H153608   6.517   1.619  14.118 -2.0989 -0.0779  1.2488
10731TIP3    H253609   6.482   1.501  14.030 -0.6494  0.1685  0.3305
10732TIP3   OH253610   3.992   3.652  11.283  0.3064 -0.2274  0.2532
10732TIP3    H153611   3.941   3.708  11.224 -0.4492 -0.4637  0.6831
10732TIP3    H253612   4.053   3.607  11.225 -0.7418 -0.7994 -0.4187
10733TIP3   OH253613   0.737   0.340  12.832 -0.2785  0.3049  0.4510
10733TIP3    H153614   0.662   0.368  12.886  0.1151  0.1263  1.0947
10733TIP3    H253615   0.767   0.420  12.789  1.4083  1.0872  2.9730
10734TIP3   OH253616   0.878   4.023   3.959 -0.0652  0.0183  0.0283
10734TIP3    H153617   0.833   4.107   3.975 -0.0349  0.0242  0.0822
10734TIP3    H253618   0.928   4.008   4.039  1.0890  0.6725 -0.5650
10735TIP3   OH253619   4.612   6.443  16.727 -0.4537  0.0704  0.2912
10735TIP3    H153620   4.594   6.374  16.663  0.9300  0.7608 -0.8594
10735TIP3    H253621   4.687   6.412  16.777 -0.9627 -0.0625  0.9770
10736TIP3   OH253622   4.864   2.783   4.591  0.4427 -0.0927 -0.2405
10736TIP3    H153623   4.879   2.803   4.683  0.5376 -0.4865 -0.1695
10736TIP3    H253624   4.891   2.691   4.581  1.9508  0.4049 -1.0083
10737TIP3   OH253625   1.603   2.801   3.914  0.2547 -0.3952 -0.0848
10737TIP3    H153626   1.671   2.809   3.847  1.6467 -3.6588  0.8424
10737TIP3    H253627   1.651   2.802   3.997 -1.2327  1.2882  0.7740
10738TIP3   OH253628   0.495   4.108  16.756  0.5151  0.0073  0.2330
10738TIP3    H153629   0.475   4.014  16.751  2.2525 -0.3623 -0.0988
10738TIP3    H253630   0.418   4.146  16.797 -0.6615 -1.4244 -0.5800
10739TIP3   OH253631   3.974   4.945  17.167  0.0581  0.3174  0.3552
10739TIP3    H153632   4.045   4.919  17.109 -0.0999 -1.3126  0.8682
10739TIP3    H253633   3.981   5.040  17.173  2.3596  0.1576  0.5890
10740TIP3   OH253634   5.153   0.910   2.607  0.6078  0.3674  0.8483
10740TIP3    H153635   5.206   0.988   2.588 -0.7119  1.0679 -0.1002
10740TIP3    H253636   5.080   0.916   2.545  1.1127 -2.2752 -0.0497
10741TIP3   OH253637   4.571   3.049   0.106  0.7676 -0.2779  0.3785
10741TIP3    H153638   4.484   3.026   0.074  0.5725 -0.4932  1.0552
10741TIP3    H253639   4.627   3.045   0.029 -0.0517  1.1039 -0.3146
10742TIP3   OH253640   2.027   5.542   1.359  0.3861  0.0729  0.8463
10742TIP3    H153641   2.094   5.611   1.359 -0.4720  0.9273  2.1132
10742TIP3    H253642   2.039   5.497   1.276  2.1787  0.5717  0.8082
10743TIP3   OH253643   3.601   0.624  12.805 -0.1452 -0.3141 -0.0762
10743TIP3    H153644   3.582   0.545  12.855 -0.5484 -0.6340 -0.7249
10743TIP3    H253645   3.586   0.696  12.866 -2.1328 -0.6193 -0.1860
10744TIP3   OH253646   0.378   5.944   1.720 -0.8821  0.1222  0.2660
10744TIP3    H153647   0.336   5.950   1.806 -0.4792  2.7811  0.3116
10744TIP3    H253648   0.469   5.921   1.738 -1.3094 -1.5477  0.3942
10745TIP3   OH253649   5.518   1.174  16.724 -0.1107  0.2146 -0.1275
10745TIP3    H153650   5.454   1.190  16.794 -0.5496 -0.3875 -0.3869
10745TIP3    H253651   5.557   1.259  16.706 -0.8722  0.5839  0.0044
10746TIP3   OH253652   5.893   2.760   6.367 -0.3553  0.3501  0.6984
10746TIP3    H153653   5.947   2.839   6.355 -0.6822  0.8016  2.0652
10746TIP3    H253654   5.869   2.762   6.460 -0.0825 -1.5549  0.8128
10747TIP3   OH253655   6.254   5.038   1.774 -0.0006 -0.0100  0.3650
10747TIP3    H153656   6.203   5.044   1.692  0.4357 -1.5721 -0.0293
10747TIP3    H253657   6.335   5.085   1.755  0.3968 -0.9699 -0.3394
10748TIP3   OH253658   5.446   6.511  16.552  0.0004 -0.3241 -0.4531
10748TIP3    H153659   5.447   6.536  16.645  1.7186  3.2521 -1.3506
10748TIP3    H253660   5.381   6.569  16.513  0.2945 -0.8554 -1.7410
10749TIP3   OH253661   4.236   3.096   1.787 -0.8358  0.1991  0.3532
10749TIP3    H153662   4.271   3.172   1.740 -1.2782 -1.1416 -2.2316
10749TIP3    H253663   4.314   3.050   1.819 -0.4054 -0.2480 -1.3042
10750TIP3   OH253664   0.838   0.277   1.667 -0.3226 -1.0911  0.0568
10750TIP3    H153665   0.929   0.259   1.690  0.1246  0.8182 -0.1172
10750TIP3    H253666   0.787   0.246   1.742  0.4952 -1.7642  0.3411
10751TIP3   OH253667   5.211   3.482  16.375 -0.0705  0.3465 -0.2231
10751TIP3    H153668   5.202   3.539  16.298  0.6365 -0.6277 -1.0563
10751TIP3    H253669   5.305   3.482  16.392 -0.2254  0.5172  0.6194
10752TIP3   OH253670   3.415   0.941  11.599  0.6050  0.1640 -0.1324
10752TIP3    H153671   3.478   0.952  11.528  0.2630  0.2715 -0.4198
10752TIP3    H253672   3.340   0.897  11.558  0.8140 -0.6728  0.3888
10753TIP3   OH253673   2.545   1.902   1.465 -0.2261  0.0291  0.5788
10753TIP3    H153674   2.460   1.882   1.504  0.5289  1.2048  2.9318
10753TIP3    H253675   2.577   1.817   1.433 -2.0419 -0.5058  0.1455
10754TIP3   OH253676   1.853   1.562   1.952 -0.4637  0.2989 -0.3390
10754TIP3    H153677   1.782   1.625   1.960 -1.6107 -0.5507 -3.1726
10754TIP3    H253678   1.915   1.603   1.890 -1.2133 -1.2657 -2.1854
10755TIP3   OH253679   0.230   4.676   0.282  0.6519 -0.2962  0.4365
10755TIP3    H153680   0.136   4.672   0.262  0.5862 -0.6486  0.8109
10755TIP3    H253681   0.248   4.769   0.294  0.2220 -0.2818  0.9706
10756TIP3   OH253682   3.847   2.083  14.661 -0.4266  0.3852 -0.2484
10756TIP3    H153683   3.870   2.081  14.754 -1.8608  1.2360  0.1531
10756TIP3    H253684   3.899   2.013  14.621  2.6006  2.0568  0.6128
10757TIP3   OH253685   0.340   0.173   5.613  0.3538  0.2564 -0.2885
10757TIP3    H153686   0.265   0.156   5.669 -0.2725  1.0544 -0.8795
10757TIP3    H253687   0.381   0.087   5.600 -1.0936 -0.3484 -0.8833
10758TIP3   OH253688   3.723   4.024   3.261  0.1719 -0.0410  0.0877
10758TIP3    H153689   3.708   3.989   3.173 -1.9078 -1.0223  0.7879
10758TIP3    H253690   3.818   4.027   3.270  0.4750  2.3707 -3.0594
10759TIP3   OH253691   6.404   5.296   2.821  0.0752  0.2631  0.5233
10759TIP3    H153692   6.394   5.296   2.726  1.1468  3.1479  0.3561
10759TIP3    H253693   6.339   5.360   2.851 -1.1876 -1.6120  1.8725
10760TIP3   OH253694   0.499   5.203  16.650  0.0303  0.2823 -0.2313
10760TIP3    H153695   0.459   5.188  16.564  0.2085  0.7267 -0.3880
10760TIP3    H253696   0.424   5.223  16.707 -0.5010 -3.3228  0.4826
10761TIP3   OH253697   0.548   2.618  15.065 -0.2656  0.2372  0.3333
10761TIP3    H153698   0.546   2.693  15.006 -2.1011  0.6567  0.9016
10761TIP3    H253699   0.611   2.643  15.133  1.5693 -0.0965 -1.1861
10762TIP3   OH253700   0.015   1.280  12.437 -0.2176 -0.1608 -0.2018
10762TIP3    H153701  -0.010   1.239  12.520  1.3321 -1.0826 -0.1824
10762TIP3    H253702  -0.029   1.365  12.439  0.3695  0.1219  1.8861
10763TIP3   OH253703   3.629   1.602   5.676 -0.3998  0.8143  0.3777
10763TIP3    H153704   3.647   1.677   5.732  0.3095  1.6117 -0.8983
10763TIP3    H253705   3.556   1.557   5.719  1.2833  0.3746  2.8948
10764TIP3   OH253706   1.532   5.521  10.662 -0.5077 -0.2020 -0.0213
10764TIP3    H153707   1.563   5.603  10.701  1.1317 -0.9908  0.3834
10764TIP3    H253708   1.465   5.548  10.599 -0.8644  1.3463  0.9757
10765TIP3   OH253709   1.813   1.623  14.818  0.7702 -1.3270  0.6006
10765TIP3    H153710   1.796   1.578  14.735 -0.2154  0.1559 -0.0159
10765TIP3    H253711   1.743   1.592  14.876 -0.1413 -0.2920  0.0571
10766TIP3   OH253712   4.900   3.394  15.833  0.1248 -0.4456 -0.0215
10766TIP3    H153713   4.922   3.350  15.915  1.8254  0.2658 -0.0795
10766TIP3    H253714   4.897   3.487  15.855  0.0419 -0.2957 -0.6404
10767TIP3   OH253715   3.443   6.510  15.340  0.0164 -0.1483  0.3464
10767TIP3    H153716   3.465   6.548  15.256  0.1669  1.1016  0.9368
10767TIP3    H253717   3.515   6.536  15.398 -0.5036 -0.2543  1.0604
10768TIP3   OH253718   4.472   5.325  12.780 -0.1411  0.5364 -0.2419
10768TIP3    H153719   4.434   5.355  12.697  1.5890  0.4403 -1.0909
10768TIP3    H253720   4.554   5.283  12.755 -0.1040 -0.4303  1.4334
10769TIP3   OH253721   4.604   0.013   5.896 -0.1820 -0.0201  0.0604
10769TIP3    H153722   4.645   0.099   5.893 -0.3731  0.1334  1.3734
10769TIP3    H253723   4.523   0.027   5.945  0.9835 -1.4016  2.4574
10770TIP3   OH253724   5.970   5.575  13.402 -0.0461 -0.1008 -0.5154
10770TIP3    H153725   5.956   5.601  13.311  1.2598  1.0207 -0.4085
10770TIP3    H253726   6.027   5.642  13.438 -0.7097 -0.4249  1.2008
10771TIP3   OH253727   4.152   0.479   3.220  0.3874 -0.1928 -0.4681
10771TIP3    H153728   4.213   0.417   3.261  1.4138  0.5417 -0.8657
10771TIP3    H253729   4.065   0.445   3.241  0.9476 -2.0948 -1.1866
10772TIP3   OH253730   0.224   3.877   4.287 -0.2766  0.0553 -0.7773
10772TIP3    H153731   0.307   3.922   4.301 -0.0534 -0.2195 -1.2167
10772TIP3    H253732   0.178   3.931   4.222 -1.1016  1.0574  0.6061
10773TIP3   OH253733   5.709   6.343  15.818 -0.2173 -0.0686  0.4387
10773TIP3    H153734   5.700   6.424  15.867  1.5118 -0.8409  2.1127
10773TIP3    H253735   5.799   6.344  15.786  0.7210 -2.5140  2.7615
10774TIP3   OH253736   1.872   1.481   4.215 -0.0624 -0.1341  0.9244
10774TIP3    H153737   1.851   1.467   4.123 -0.4682 -0.4324  1.0613
10774TIP3    H253738   1.848   1.400   4.259 -0.1831  0.1226  1.3471
10775TIP3   OH253739   4.678   2.305   6.036  0.6928  0.2322  0.1426
10775TIP3    H153740   4.633   2.342   6.113 -2.7358 -1.0178 -1.1689
10775TIP3    H253741   4.750   2.253   6.073 -1.2354 -0.7957  2.5746
10776TIP3   OH253742   6.719   2.431   5.663  0.5379 -0.3615  0.2520
10776TIP3    H153743   6.687   2.486   5.735  0.1311 -1.7474  1.1375
10776TIP3    H253744   6.659   2.449   5.591  0.2308  0.1353  0.6310
10777TIP3   OH253745   0.267   5.432   1.608 -0.2527 -0.2058  0.2672
10777TIP3    H153746   0.287   5.339   1.614  0.8097 -0.0470 -0.6185
10777TIP3    H253747   0.346   5.476   1.640 -1.3169  0.3934  2.1798
10778TIP3   OH253748   1.804   4.257  11.215 -0.0119 -0.1178 -0.3113
10778TIP3    H153749   1.827   4.306  11.136  1.1356 -0.1415  0.0009
10778TIP3    H253750   1.743   4.314  11.261  0.6963  0.6764 -0.3439
10779TIP3   OH253751   2.019   1.784  12.266  0.3073 -0.0023  0.2937
10779TIP3    H153752   2.009   1.699  12.223  1.5445  1.0475 -2.1775
10779TIP3    H253753   2.106   1.814  12.239  0.0429  1.8790  1.4488
10780TIP3   OH253754   5.903   1.492  11.341  0.5637  0.3684  0.4849
10780TIP3    H153755   5.912   1.417  11.282  1.7103  0.6745  0.2681
10780TIP3    H253756   5.939   1.566  11.293  1.3232  0.6579  1.4786
10781TIP3   OH253757   0.577   6.066   2.705 -0.0949  0.1815 -0.2030
10781TIP3    H153758   0.501   6.012   2.683 -0.6881  1.5866 -1.7523
10781TIP3    H253759   0.551   6.155   2.678  1.8858  0.7666 -0.2333
10782TIP3   OH253760   0.107   4.995   4.399  0.7759 -0.9142 -0.2408
10782TIP3    H153761   0.052   5.067   4.367  1.1667  0.4674  2.0808
10782TIP3    H253762   0.084   4.987   4.492  2.4745 -2.2037  0.0893
10783TIP3   OH253763   6.651   2.377  17.198 -0.4162 -0.6223 -0.2755
10783TIP3    H153764   6.594   2.451  17.178  0.7744 -0.0775 -1.7638
10783TIP3    H253765   6.737   2.415  17.213  0.1234 -1.6500 -0.6479
10784TIP3   OH253766   6.412   4.843   5.197  0.4457 -0.1852 -0.5024
10784TIP3    H153767   6.482   4.794   5.155  0.8460  0.8317 -1.0271
10784TIP3    H253768   6.452   4.926   5.223 -0.5546  0.3974 -0.7939
10785TIP3   OH253769   1.151   5.567  15.888  0.1730  0.5446 -0.2396
10785TIP3    H153770   1.211   5.495  15.867 -0.3777 -0.4160  1.3448
10785TIP3    H253771   1.196   5.646  15.858  1.8380 -0.2423  0.1395
10786TIP3   OH253772   5.279   0.345  12.133  0.2178  0.2628  0.2662
10786TIP3    H153773   5.365   0.386  12.144  0.0528  0.7390 -0.1960
10786TIP3    H253774   5.224   0.414  12.095 -0.3082 -0.1064  0.3533
10787TIP3   OH253775   3.107   0.863   1.455 -0.5432 -0.1126 -0.3958
10787TIP3    H153776   3.054   0.797   1.501 -2.5171  1.3060 -0.6052
10787TIP3    H253777   3.167   0.896   1.522  0.1326 -1.7494 -0.1668
10788TIP3   OH253778   3.570   2.831  14.220 -0.0377 -0.1244 -0.3857
10788TIP3    H153779   3.597   2.798  14.305 -5.3474 -1.4064  1.0385
10788TIP3    H253780   3.530   2.916  14.238  0.0016  0.2154 -1.8080
10789TIP3   OH253781   1.596   6.489  14.702 -0.1487 -0.1004 -0.0971
10789TIP3    H153782   1.607   6.397  14.728  0.8199  0.2701  0.8365
10789TIP3    H253783   1.504   6.496  14.680 -0.3893 -1.1366  0.5138
10790TIP3   OH253784   6.388   5.453   1.622 -0.2202 -0.4337 -0.4839
10790TIP3    H153785   6.407   5.468   1.529 -1.5295 -0.5162 -0.7753
10790TIP3    H253786   6.426   5.368   1.641 -0.7372 -0.8276 -1.1816
10791TIP3   OH253787   3.166   0.906  10.515  0.4410 -0.1320  0.0619
10791TIP3    H153788   3.140   0.826  10.468  0.5082 -1.3652  2.0545
10791TIP3    H253789   3.108   0.908  10.591  1.7028  0.7368  1.0062
10792TIP3   OH253790   4.762   5.458  14.687  0.1554  0.0542 -0.2555
10792TIP3    H153791   4.730   5.377  14.726  1.6120 -0.2065  0.4500
10792TIP3    H253792   4.718   5.528  14.735  0.1306 -0.2985  0.2305
10793TIP3   OH253793   1.056   4.047  15.812 -0.1353 -0.0979  0.1223
10793TIP3    H153794   1.116   4.036  15.738 -0.6842  1.5833 -0.5867
10793TIP3    H253795   1.075   3.973  15.869  0.0594 -1.6432 -1.8748
10794TIP3   OH253796   3.320   1.771   5.415 -0.2307  0.2172 -0.0273
10794TIP3    H153797   3.267   1.849   5.397 -1.5982 -1.1656 -2.1411
10794TIP3    H253798   3.395   1.778   5.356  0.9357  1.1175  1.5037
10795TIP3   OH253799   1.915   5.922  12.718  0.0178  0.1050 -0.9582
10795TIP3    H153800   1.910   5.959  12.630  1.7168  0.4362 -0.9310
10795TIP3    H253801   1.923   5.998  12.776 -0.6088 -0.1306 -0.5580
10796TIP3   OH253802   1.986   0.012   3.753 -0.2550  0.4915  0.2500
10796TIP3    H153803   1.985  -0.013   3.660  0.8012 -2.2050  0.9076
10796TIP3    H253804   1.949   0.100   3.755  0.0635  0.7450 -2.7784
10797TIP3   OH253805   3.312   5.794   3.016  0.7144  0.5200  0.0743
10797TIP3    H153806   3.343   5.824   2.930  1.7001 -1.0654 -0.1346
10797TIP3    H253807   3.387   5.805   3.074  1.3069 -2.1149 -0.1491
10798TIP3   OH253808   3.909   6.399   2.766  0.4716 -0.0550  0.2528
10798TIP3    H153809   3.944   6.443   2.844 -1.0159  1.1452  0.2705
10798TIP3    H253810   3.817   6.427   2.763  0.1074 -1.3858 -1.0243
10799TIP3   OH253811   2.787   2.754   4.309 -0.3866  0.0033  0.0894
10799TIP3    H153812   2.790   2.846   4.285  0.2301  0.2105  0.9667
10799TIP3    H253813   2.806   2.707   4.227 -0.7928  0.6421 -0.3732
10800TIP3   OH253814   0.017   4.302  13.071  0.2505  0.3557  0.2063
10800TIP3    H153815   0.029   4.309  12.976 -0.0481  0.6924  0.1910
10800TIP3    H253816  -0.075   4.326  13.085  0.2456  0.1330  0.5626
10801TIP3   OH253817   5.757   2.144  16.350 -0.4444  0.2779  0.1578
10801TIP3    H153818   5.778   2.189  16.432 -1.0222 -0.3943  0.6791
10801TIP3    H253819   5.716   2.062  16.377 -0.2270 -0.1558 -0.7993
10802TIP3   OH253820   4.910   4.404   3.674 -0.0820  0.5483 -0.1588
10802TIP3    H153821   4.867   4.434   3.593 -0.4189 -0.7795 -0.4801
10802TIP3    H253822   4.994   4.450   3.674  0.0334  0.3541 -1.4064
10803TIP3   OH253823   6.285   0.439   1.347  0.1664  0.6099 -0.0454
10803TIP3    H153824   6.218   0.447   1.279  1.7777  1.2527 -1.6073
10803TIP3    H253825   6.362   0.483   1.311  1.6847 -0.7805  1.3632
10804TIP3   OH253826   3.287   0.029  13.546 -0.9281 -0.2012  0.2392
10804TIP3    H153827   3.193   0.022  13.563 -1.6519  2.7940 -2.1695
10804TIP3    H253828   3.295   0.102  13.485  3.1894  1.0879  2.1304
10805TIP3   OH253829   2.560   1.386   2.597  0.0734 -0.5598 -0.2836
10805TIP3    H153830   2.489   1.322   2.592  0.2683 -0.6673 -1.8893
10805TIP3    H253831   2.602   1.382   2.511  1.3151  0.3246  0.2659
10806TIP3   OH253832   1.693   5.776   4.847 -0.2876  0.1481 -0.4754
10806TIP3    H153833   1.744   5.838   4.899  1.0953 -1.6982  0.4348
10806TIP3    H253834   1.687   5.698   4.902 -0.8220 -1.0068 -2.1408
10807TIP3   OH253835   1.286   5.190   4.485 -0.1216  0.0148  0.1193
10807TIP3    H153836   1.337   5.205   4.565  0.2600  1.0710 -0.3127
10807TIP3    H253837   1.233   5.269   4.476 -0.8758 -0.5239 -0.1427
10808TIP3   OH253838   5.320   0.177   1.527  0.3912  0.5015 -0.7401
10808TIP3    H153839   5.385   0.183   1.457  0.9296  1.4172 -0.1723
10808TIP3    H253840   5.277   0.263   1.527  1.9052  1.2972  1.4889
10809TIP3   OH253841   0.417   2.681   2.926  0.5282  0.1782  0.1816
10809TIP3    H153842   0.491   2.652   2.872  0.3556  0.5459 -0.2533
10809TIP3    H253843   0.440   2.653   3.014  0.7275 -0.6031 -0.1060
10810TIP3   OH253844   4.943   2.530   4.911  0.0010  0.2914 -0.0481
10810TIP3    H153845   4.881   2.603   4.913 -1.3183 -0.8230  0.1788
10810TIP3    H253846   4.889   2.451   4.907  1.3737 -0.7767  1.5366
10811TIP3   OH253847   4.523   5.984  17.075 -0.3253  0.3796  0.5472
10811TIP3    H153848   4.528   6.042  17.150  1.6085 -0.5165  1.1437
10811TIP3    H253849   4.613   5.953  17.062 -1.0117 -1.1695 -0.7757
10812TIP3   OH253850   3.397   4.158   5.060  0.0162  0.3615 -0.3602
10812TIP3    H153851   3.396   4.249   5.090 -2.1650 -0.3063  1.7276
10812TIP3    H253852   3.441   4.162   4.975  1.0504  3.1835  0.2286
10813TIP3   OH253853   3.680   4.651  13.735  0.2794  0.3961 -0.8214
10813TIP3    H153854   3.754   4.713  13.738 -0.3633  1.1185  1.1113
10813TIP3    H253855   3.606   4.704  13.706 -0.1027  0.3603  0.0787
10814TIP3   OH253856   4.209   0.451  11.413 -0.0507 -0.0276 -0.4402
10814TIP3    H153857   4.262   0.495  11.480 -2.0004  0.6587  0.7123
10814TIP3    H253858   4.231   0.496  11.332  1.5175 -0.1149 -0.0845
10815TIP3   OH253859   0.872   2.169  14.146  0.1101  0.0648 -0.2872
10815TIP3    H153860   0.958   2.197  14.177  0.0236 -0.3819  0.3614
10815TIP3    H253861   0.862   2.211  14.061  0.6288  0.7723 -0.0012
10816TIP3   OH253862   3.117   4.234   2.492  0.1857  0.0283 -0.0652
10816TIP3    H153863   3.078   4.263   2.409  1.0459 -1.5620 -1.0462
10816TIP3    H253864   3.174   4.306   2.518  0.1609  0.3988 -1.0178
10817TIP3   OH253865   3.976   3.867   4.098  0.0955 -0.4841 -0.1967
10817TIP3    H153866   4.004   3.908   4.016  1.2446  0.2155  0.5293
10817TIP3    H253867   3.967   3.774   4.076 -0.3009 -0.1982 -1.2872
10818TIP3   OH253868   1.919   4.549  13.015 -0.0001 -0.3650 -0.0290
10818TIP3    H153869   1.958   4.581  13.096 -0.8399  1.0569 -0.1697
10818TIP3    H253870   1.954   4.607  12.947 -0.9551 -0.2202 -0.3999
10819TIP3   OH253871   1.124   0.630   2.900 -0.7362 -0.3126 -0.4640
10819TIP3    H153872   1.069   0.634   2.822 -1.4247 -3.2400 -0.1984
10819TIP3    H253873   1.214   0.626   2.867 -0.9668 -0.4535 -1.0599
10820TIP3   OH253874   0.533   3.036   1.836  0.6650 -0.6689 -0.2440
10820TIP3    H153875   0.569   2.982   1.907  0.2299  0.7028  1.0679
10820TIP3    H253876   0.456   3.078   1.875 -0.3923 -0.9508 -1.9753
10821TIP3   OH253877   1.002   1.624  14.951 -0.0030  0.2026 -0.4874
10821TIP3    H153878   0.972   1.715  14.948 -0.0370  0.2055 -0.0268
10821TIP3    H253879   1.052   1.617  15.032 -1.2521 -0.5840  0.2280
10822TIP3   OH253880   0.388   0.771  14.893  0.2373 -0.2519 -0.3485
10822TIP3    H153881   0.356   0.772  14.802  1.1289 -1.8453 -0.6890
10822TIP3    H253882   0.480   0.746  14.886  0.8322  1.4847  0.8632
10823TIP3   OH253883   3.918   4.893   5.153  0.1330  0.1047  0.7766
10823TIP3    H153884   3.846   4.830   5.161 -0.9570  1.3836  1.1645
10823TIP3    H253885   3.882   4.965   5.102  1.0620  0.9007  1.2272
10824TIP3   OH253886   4.585   0.683   1.794  0.1635 -0.3757 -0.2814
10824TIP3    H153887   4.582   0.702   1.701  0.2634 -0.3378 -0.2775
10824TIP3    H253888   4.494   0.668   1.819  0.3816 -3.0951 -0.9514
10825TIP3   OH253889   6.412   0.421  15.433  0.6667  0.4743  0.0424
10825TIP3    H153890   6.399   0.352  15.499  0.3373  2.3956  2.0238
10825TIP3    H253891   6.470   0.381  15.368 -1.2175 -2.3986  0.0487
10826TIP3   OH253892   0.619   1.234  17.050  0.6416  0.0217 -0.0940
10826TIP3    H153893   0.651   1.239  16.960  1.0634  0.0615  0.0583
10826TIP3    H253894   0.581   1.147  17.057  0.6917 -0.0159 -0.2819
10827TIP3   OH253895   0.521   2.054  16.461 -0.5389 -0.2603 -0.3192
10827TIP3    H153896   0.453   2.106  16.419 -0.8666 -0.6640 -0.2958
10827TIP3    H253897   0.505   2.064  16.555 -0.0638  0.3032 -0.2943
10828TIP3   OH253898   4.955   5.932   0.210 -0.7320 -0.6620  0.6607
10828TIP3    H153899   4.959   6.008   0.152  0.7053 -1.1626  0.0908
10828TIP3    H253900   4.932   5.859   0.152 -1.7474 -0.7262  1.1428
10829TIP3   OH253901   2.778   3.116  11.302 -0.1290  0.0768 -0.4044
10829TIP3    H153902   2.831   3.080  11.231 -0.6026  1.6725 -1.5890
10829TIP3    H253903   2.840   3.163  11.357 -0.0698  0.6098 -0.9232
10830TIP3   OH253904   0.137   5.234  11.578 -0.4246 -0.6529 -0.3253
10830TIP3    H153905   0.125   5.143  11.550 -1.8479 -0.7811  0.6671
10830TIP3    H253906   0.192   5.226  11.657 -2.0959 -0.8063  0.8414
10831TIP3   OH253907   4.701   4.293  16.301 -0.2894 -0.3237 -0.7757
10831TIP3    H153908   4.641   4.244  16.356  0.9100  0.1201  0.9712
10831TIP3    H253909   4.649   4.316  16.224 -1.9085 -1.2163  0.0149
10832TIP3   OH253910   6.066   0.369  17.156 -0.0484 -0.0301 -0.1692
10832TIP3    H153911   6.155   0.367  17.119 -1.2300 -1.2713 -3.1304
10832TIP3    H253912   6.010   0.394  17.082 -2.3264 -0.4726  1.3498
10833TIP3   OH253913   2.826   0.821   5.256  0.1594 -0.9615 -0.2308
10833TIP3    H153914   2.782   0.748   5.213 -1.7339 -0.4742  0.8055
10833TIP3    H253915   2.787   0.899   5.215 -0.1765 -0.5210  0.9161
10834TIP3   OH253916   4.186   3.011  11.506 -0.4480  0.2149  0.4603
10834TIP3    H153917   4.259   2.952  11.527 -0.5393  0.1448  0.5778
10834TIP3    H253918   4.108   2.966  11.539 -0.5652  0.2121  0.1802
10835TIP3   OH253919   5.400   0.768  16.435  0.4276  0.5953 -0.3557
10835TIP3    H153920   5.459   0.843  16.425  0.5607  0.2076 -2.6925
10835TIP3    H253921   5.355   0.761  16.351 -1.2059 -0.6043  0.5935
10836TIP3   OH253922   3.263   0.001  16.744  0.2040 -0.1047  0.0172
10836TIP3    H153923   3.352  -0.006  16.778  0.3758 -1.0568 -0.6330
10836TIP3    H253924   3.270   0.065  16.673  0.3373 -0.1083  0.0284
10837TIP3   OH253925   5.379   1.649  12.578 -0.1306  0.3563  0.3584
10837TIP3    H153926   5.343   1.561  12.568  0.1436  0.3834 -1.0260
10837TIP3    H253927   5.470   1.642  12.547 -0.1354  1.1446  0.1366
10838TIP3   OH253928   0.967   4.491  15.848  0.7226 -0.5747 -0.0949
10838TIP3    H153929   1.041   4.470  15.906  0.5525  1.7600  1.0376
10838TIP3    H253930   0.931   4.406  15.823  2.3345 -1.6847  1.2519
10839TIP3   OH253931   1.005   0.659   1.526 -0.0951 -0.1970  0.7438
10839TIP3    H153932   1.041   0.571   1.517 -1.2459 -0.5671 -0.4246
10839TIP3    H253933   1.076   0.717   1.500  0.3445 -0.8276  0.5219
10840TIP3   OH253934   2.056   1.186   3.940 -0.3465  0.1356  0.0598
10840TIP3    H153935   2.092   1.099   3.920 -0.0295 -0.0607  1.4555
10840TIP3    H253936   1.974   1.189   3.891 -0.5275 -1.0760  0.2587
10841TIP3   OH253937   4.920   4.633  13.235  0.1569 -0.2618 -0.4049
10841TIP3    H153938   4.941   4.636  13.328 -0.3007  1.8030 -0.3609
10841TIP3    H253939   4.920   4.539  13.214  0.9773 -0.7101  1.4931
10842TIP3   OH253940   1.650   4.398  14.643 -0.2151  0.1527 -0.6013
10842TIP3    H153941   1.674   4.306  14.632  0.0017  0.1637 -0.2328
10842TIP3    H253942   1.626   4.427  14.555 -2.0974 -0.7619 -0.4157
10843TIP3   OH253943   6.257   2.477   2.484  0.1629  0.5870 -0.4286
10843TIP3    H153944   6.250   2.401   2.426 -1.5007 -0.0764  0.5927
10843TIP3    H253945   6.167   2.508   2.492  0.9480  3.3275 -1.6744
10844TIP3   OH253946   3.306   0.382   5.841 -0.2166 -0.1312 -0.0180
10844TIP3    H153947   3.392   0.361   5.878 -0.1899 -0.1680 -0.0998
10844TIP3    H253948   3.326   0.425   5.758 -0.3017 -1.9559 -1.0038
10845TIP3   OH253949   0.791   6.776  16.177 -0.2018 -0.2509  0.9840
10845TIP3    H153950   0.844   6.836  16.124  0.9669 -1.8675  0.2629
10845TIP3    H253951   0.799   6.692  16.131 -1.2314 -1.1050  2.3588
10846TIP3   OH253952   2.028   0.453   4.135 -0.5232  0.4694 -0.0669
10846TIP3    H153953   2.014   0.364   4.166 -0.3389  0.9246  1.3575
10846TIP3    H253954   2.122   0.469   4.149 -0.2503  0.3721 -1.7091
10847TIP3   OH253955   3.812   1.025   5.795  0.7047 -0.1673 -0.4586
10847TIP3    H153956   3.735   1.077   5.820  0.4128 -0.6570 -0.3331
10847TIP3    H253957   3.833   0.973   5.873  0.5228 -0.8079 -0.8336
10848TIP3   OH253958   5.800   0.110  13.159  0.2411 -0.8231  0.4473
10848TIP3    H153959   5.775   0.202  13.149  0.1556 -0.9102 -0.1310
10848TIP3    H253960   5.766   0.086  13.245  0.8237 -0.1358  0.8815
10849TIP3   OH253961   1.375   4.105   6.260  0.3276  0.4227  0.0224
10849TIP3    H153962   1.464   4.083   6.233  0.1110  0.5812 -0.8386
10849TIP3    H253963   1.324   4.100   6.179 -0.5385 -0.1593  0.6005
10850TIP3   OH253964   4.566   3.012  15.787  0.0150  0.5045 -0.1656
10850TIP3    H153965   4.591   3.097  15.824  0.7307 -1.0060  2.9706
10850TIP3    H253966   4.480   2.994  15.825 -0.5654  0.2217 -1.5791
10851TIP3   OH253967   3.355   0.535  11.785  0.1010 -0.3600  0.1947
10851TIP3    H153968   3.329   0.444  11.770  1.0514 -0.8999  1.6565
10851TIP3    H253969   3.449   0.535  11.772  0.0683  0.4679 -0.0283
10852TIP3   OH253970   2.099   3.027   2.196 -0.0955  0.0336  0.0984
10852TIP3    H153971   2.094   3.007   2.289 -1.3249 -1.9099 -0.3561
10852TIP3    H253972   2.149   2.955   2.158  1.3723  1.3800 -0.6187
10853TIP3   OH253973   4.267   2.431   2.545 -0.6520  0.4473  0.0776
10853TIP3    H153974   4.185   2.469   2.576  0.7467  3.2667  0.5369
10853TIP3    H253975   4.303   2.497   2.486  0.1256 -1.8118 -2.0744
10854TIP3   OH253976   4.514   1.636   3.376  0.1783  0.6217 -0.0831
10854TIP3    H153977   4.437   1.621   3.431  1.5092  1.7256  2.1433
10854TIP3    H253978   4.555   1.715   3.412  1.5360  0.9201 -2.1780
10855TIP3   OH253979   5.504   1.005  12.795  0.3602  0.1646 -0.2278
10855TIP3    H153980   5.552   1.072  12.844  0.2541  1.4976 -1.8864
10855TIP3    H253981   5.418   1.045  12.778  0.2654 -0.4130 -1.1442
10856TIP3   OH253982   2.988   3.418  17.200  0.2979  0.1457 -0.6423
10856TIP3    H153983   3.016   3.506  17.227  0.7299 -0.4968  1.1169
10856TIP3    H253984   2.937   3.386  17.275  0.0942 -1.0777 -1.2941
10857TIP3   OH253985   1.587   4.482  15.066 -0.0722 -0.1740  0.5759
10857TIP3    H153986   1.654   4.511  15.127 -0.3153  0.7375  0.4165
10857TIP3    H253987   1.540   4.562  15.041 -0.4637 -0.6381 -0.2112
10858TIP3   OH253988   0.650   0.760   1.923 -0.3549 -0.2504  0.5057
10858TIP3    H153989   0.711   0.762   1.997 -0.3902 -1.5720  0.5897
10858TIP3    H253990   0.664   0.674   1.883 -0.6099  0.3022 -0.8003
10859TIP3   OH253991   0.139   0.812  16.140  0.0826  0.1566 -0.2856
10859TIP3    H153992   0.051   0.849  16.136  0.4900  1.1243 -0.5569
10859TIP3    H253993   0.138   0.754  16.215 -0.7177  0.3669 -0.1356
10860TIP3   OH253994   4.836   3.892  15.393 -0.4349 -0.0540 -0.0668
10860TIP3    H153995   4.823   3.954  15.464 -1.1689 -0.0609 -0.1951
10860TIP3    H253996   4.916   3.846  15.416 -1.7759 -1.5018  1.8120
10861TIP3   OH253997   2.740   5.296  16.046  0.0489  0.1875 -0.5476
10861TIP3    H153998   2.715   5.375  16.094 -0.7430  0.1308 -0.8647
10861TIP3    H253999   2.786   5.242  16.111 -2.6385 -0.7175  0.6775
10862TIP3   OH254000   6.452   5.443  15.248  0.2404  0.1098 -0.6197
10862TIP3    H154001   6.482   5.362  15.206 -0.0303 -0.6142  0.5355
10862TIP3    H254002   6.366   5.459  15.209  0.0468 -0.4814 -0.4419
10863TIP3   OH254003   4.607   5.565  13.602 -0.3760 -0.5291  0.5149
10863TIP3    H154004   4.595   5.626  13.529 -0.8420 -0.6209  0.5167
10863TIP3    H254005   4.527   5.572  13.653 -0.4735 -1.2233  0.4561
10864TIP3   OH254006   2.296   6.562   6.105 -0.0427 -0.0384  0.2996
10864TIP3    H154007   2.379   6.528   6.140  0.0835  1.9969  2.0683
10864TIP3    H254008   2.319   6.594   6.018  0.6580 -0.9904  0.1217
10865TIP3   OH254009   6.027   5.352  16.581 -0.6417 -0.1132 -0.2902
10865TIP3    H154010   6.051   5.444  16.586 -0.8380  0.0025 -1.4202
10865TIP3    H254011   5.958   5.341  16.647 -1.5147  0.8284 -1.0341
10866TIP3   OH254012   0.245   2.081   4.992 -0.1353 -0.4742  0.2167
10866TIP3    H154013   0.316   2.096   4.930  1.5380  1.0606  2.3909
10866TIP3    H254014   0.181   2.150   4.974  0.9462  0.7485  1.0079
10867TIP3   OH254015   3.407   1.154  12.117  0.0851  0.6805  0.2497
10867TIP3    H154016   3.438   1.242  12.097  0.4270  0.7654  1.1243
10867TIP3    H254017   3.409   1.108  12.033  3.1485  0.4987  0.3897
10868TIP3   OH254018   4.270   1.738   2.116 -0.1618  0.1009 -0.0038
10868TIP3    H154019   4.273   1.686   2.196 -0.3982  1.6455  1.0411
10868TIP3    H254020   4.355   1.725   2.074  0.5428  0.4708  1.2918
10869TIP3   OH254021   2.692   0.361  15.351  0.0913 -0.1302 -0.0744
10869TIP3    H154022   2.638   0.345  15.428 -1.1149  0.8326 -0.7077
10869TIP3    H254023   2.658   0.301  15.284  1.6641 -1.5444  0.3764
10870TIP3   OH254024   4.055   2.781   2.561  0.1086  0.5136 -0.0303
10870TIP3    H154025   4.133   2.833   2.544  0.0999  0.0217 -1.6635
10870TIP3    H254026   4.043   2.729   2.482 -1.5901  0.2227  0.3926
10871TIP3   OH254027   4.718   4.398   4.169 -0.2026 -0.3664 -0.4034
10871TIP3    H154028   4.626   4.368   4.168 -1.0341  1.9401  1.6876
10871TIP3    H254029   4.736   4.422   4.079 -2.1753  0.5759 -0.5827
10872TIP3   OH254030   3.060   5.704   3.536 -0.2003 -0.0979  0.2790
10872TIP3    H154031   3.025   5.707   3.447  1.8365  0.5532 -0.5197
10872TIP3    H254032   2.989   5.736   3.591 -1.1783  0.3287 -1.2071
10873TIP3   OH254033   2.213   4.203   1.920 -0.0944  0.0245 -0.0930
10873TIP3    H154034   2.255   4.181   2.003 -0.0147 -0.0518 -0.1536
10873TIP3    H254035   2.166   4.124   1.895 -0.4972  0.1956  0.1095
10874TIP3   OH254036   0.660   2.209  15.391 -0.3925  0.2738 -0.2206
10874TIP3    H154037   0.594   2.273  15.418 -0.4020 -0.2090  0.9191
10874TIP3    H254038   0.743   2.256  15.403 -0.3658 -0.1023  1.1577
10875TIP3   OH254039   0.484   6.406  12.410  0.0835  0.4156 -0.2868
10875TIP3    H154040   0.395   6.404  12.445  0.1393  1.2093 -0.1000
10875TIP3    H254041   0.477   6.367  12.323 -0.5410  0.9633 -0.4810
10876TIP3   OH254042   3.320   1.169   1.075 -0.0301 -0.2259  0.5602
10876TIP3    H154043   3.321   1.219   1.157 -0.2187  1.1771 -0.2749
10876TIP3    H254044   3.262   1.094   1.094 -0.0188  0.0415  1.7239
10877TIP3   OH254045   1.402   4.374  14.330  0.1631  0.7074 -0.2995
10877TIP3    H154046   1.437   4.326  14.406 -3.0441 -0.4293  0.5667
10877TIP3    H254047   1.361   4.306  14.276 -1.3631  2.0356 -0.8487
10878TIP3   OH254048   1.070   1.471   0.856 -0.0806 -0.2466 -0.0007
10878TIP3    H154049   0.998   1.409   0.859  0.7243 -1.2324 -0.8872
10878TIP3    H254050   1.096   1.474   0.764  0.5761  0.5933  0.2037
10879TIP3   OH254051   4.281   0.115   0.730  0.0369 -0.2119 -0.4426
10879TIP3    H154052   4.318   0.032   0.759 -1.2557 -0.0928  1.6041
10879TIP3    H254053   4.203   0.089   0.679 -1.4187 -0.2205  1.7462
10880TIP3   OH254054   1.250   3.428   5.210 -0.2150  0.0464  0.4505
10880TIP3    H154055   1.202   3.463   5.286 -0.8824 -0.5225  0.2898
10880TIP3    H254056   1.207   3.346   5.190  0.3365 -0.0888 -0.1948
10881TIP3   OH254057   6.146   5.698  11.840 -0.5205  0.3099 -0.1082
10881TIP3    H154058   6.129   5.680  11.747 -0.2808  1.9497 -0.4709
10881TIP3    H254059   6.216   5.763  11.840  0.9067 -1.1760  1.2748
10882TIP3   OH254060   1.533   6.164   1.556 -0.1965  0.7551 -0.3591
10882TIP3    H154061   1.598   6.234   1.562  1.3752 -0.8158  2.2255
10882TIP3    H254062   1.576   6.096   1.505  0.5165 -0.5414  1.8822
10883TIP3   OH254063   1.384   0.696  16.548 -0.0880  0.3082  0.2658
10883TIP3    H154064   1.453   0.763  16.553  1.0963 -0.7129 -1.5921
10883TIP3    H254065   1.411   0.629  16.611  0.3559  0.1374 -0.1074
10884TIP3   OH254066   5.016   2.769  11.332  0.5769  0.4813 -0.4104
10884TIP3    H154067   4.926   2.737  11.337  0.8557  0.0359  2.5130
10884TIP3    H254068   5.014   2.854  11.375  1.4455  0.7517 -0.8931
10885TIP3   OH254069   3.450   2.429   5.920 -0.3049 -0.1866 -0.2361
10885TIP3    H154070   3.535   2.430   5.964 -0.9573 -0.1783  1.0419
10885TIP3    H254071   3.422   2.520   5.921 -0.5647 -0.2681 -0.2049
10886TIP3   OH254072   4.774   3.822   0.324 -0.0336 -0.1520 -0.1806
10886TIP3    H154073   4.777   3.915   0.302  3.0804 -0.0510  0.4524
10886TIP3    H254074   4.785   3.777   0.241 -2.0055 -0.0103 -0.5519
10887TIP3   OH254075   5.543   1.476   5.020  0.1722 -0.4158 -0.1573
10887TIP3    H154076   5.503   1.436   5.097 -1.3147  3.1473  0.9941
10887TIP3    H254077   5.470   1.490   4.959  1.1610 -2.1703 -1.8309
10888TIP3   OH254078   1.812   1.741  11.664 -0.0473 -0.0457 -0.2032
10888TIP3    H154079   1.768   1.699  11.590 -1.3153  0.4182  0.2683
10888TIP3    H254080   1.844   1.824  11.629  1.6715 -0.9698 -0.8971
10889TIP3   OH254081   1.212   0.780   1.854  0.2115  0.6077 -0.0825
10889TIP3    H154082   1.237   0.869   1.879 -1.3722  0.8839  0.5783
10889TIP3    H254083   1.118   0.786   1.836  0.4430 -0.5494 -1.7990
10890TIP3   OH254084   6.513   1.489   2.878  0.9592  0.6334 -0.1621
10890TIP3    H154085   6.462   1.569   2.881 -2.0741 -1.2313  0.0458
10890TIP3    H254086   6.554   1.489   2.792 -0.8938  1.2948 -1.0640
10891TIP3   OH254087   4.164   3.844   0.431 -0.0959 -0.0678 -0.4752
10891TIP3    H154088   4.199   3.819   0.346 -1.5939  1.1090 -1.4569
10891TIP3    H254089   4.082   3.796   0.439 -0.6321  0.8634 -0.2941
10892TIP3   OH254090   5.998   2.097   2.300  0.1354  0.5562  0.4100
10892TIP3    H154091   5.993   2.045   2.219  0.2204  0.2404  0.6079
10892TIP3    H254092   6.054   2.045   2.358 -0.9051  0.2005  1.1108
10893TIP3   OH254093   3.468   4.421  11.628  0.3714  0.7602 -0.1063
10893TIP3    H154094   3.376   4.397  11.639  0.8128 -1.6088 -1.3007
10893TIP3    H254095   3.479   4.433  11.534  1.6131 -0.4885 -0.1349
10894TIP3   OH254096   0.834   5.981   4.876  0.2161  0.9477  0.5783
10894TIP3    H154097   0.845   5.887   4.863 -2.0761  0.6653  0.5367
10894TIP3    H254098   0.903   6.004   4.938  0.5335 -0.8396  0.9320
10895TIP3   OH254099   0.569   3.962  10.894  1.0796 -0.0523 -0.2812
10895TIP3    H154100   0.618   4.017  10.833 -1.9612  0.5968 -2.2561
10895TIP3    H254101   0.549   3.882  10.845 -0.0192 -0.1947  0.3697
10896TIP3   OH254102   4.813   5.947  10.445 -0.2882  0.3767 -0.0575
10896TIP3    H154103   4.887   5.893  10.416 -0.9363 -0.8694  0.5353
10896TIP3    H254104   4.751   5.944  10.372  0.8755  2.6828 -1.1730
10897TIP3   OH254105   5.324   0.545   5.539  0.4217  0.4921 -0.5469
10897TIP3    H154106   5.415   0.521   5.557  0.5827  0.4770 -1.3593
10897TIP3    H254107   5.285   0.466   5.501  0.4047  0.8736 -1.3414
10898TIP3   OH254108   3.862   2.396  12.011  0.1969 -0.6013 -0.6432
10898TIP3    H154109   3.935   2.410  12.070 -0.9203 -1.1321  0.9090
10898TIP3    H254110   3.787   2.436  12.056 -0.5906 -0.6318 -1.8969
10899TIP3   OH254111   3.149   3.409   5.195  0.0822 -0.7960 -0.4345
10899TIP3    H154112   3.223   3.422   5.255  2.2011 -3.3536 -2.4017
10899TIP3    H254113   3.120   3.319   5.211  0.0893 -1.2098 -2.5876
10900TIP3   OH254114   2.829   5.839  15.428  0.2655 -0.6399 -0.4492
10900TIP3    H154115   2.738   5.826  15.453  0.6926  0.1505  1.6188
10900TIP3    H254116   2.833   5.928  15.393  0.3382 -0.4916 -0.0673
10901TIP3   OH254117   1.073   5.638  13.988 -0.1140  0.2994  0.9175
10901TIP3    H154118   1.042   5.605  13.904  0.1653  0.1182  0.8823
10901TIP3    H254119   1.011   5.603  14.052 -0.0776  0.0729  0.8321
10902TIP3   OH254120   1.230   6.393  11.712  0.3286 -0.0685  0.0562
10902TIP3    H154121   1.208   6.375  11.621 -0.2327  0.5620  0.0636
10902TIP3    H254122   1.208   6.312  11.758  0.0138 -0.1696 -0.2662
10903TIP3   OH254123   2.726   4.823   5.734 -0.6796  0.1114  0.4804
10903TIP3    H154124   2.792   4.761   5.703  0.0886  0.6780  0.9483
10903TIP3    H254125   2.751   4.841   5.825 -1.8972 -0.2148  0.8895
10904TIP3   OH254126   6.726   1.215  14.543  0.1452  0.2700 -0.0393
10904TIP3    H154127   6.693   1.272  14.612  0.4886  0.6185 -0.1635
10904TIP3    H254128   6.718   1.267  14.463 -1.0989 -0.4523 -0.4062
10905TIP3   OH254129   1.434   0.908   1.238 -0.6876  0.1442  0.0917
10905TIP3    H154130   1.409   0.826   1.195 -1.3099  0.1141  0.5097
10905TIP3    H254131   1.352   0.955   1.248 -0.5241  0.2005  1.1542
10906TIP3   OH254132   0.274   2.022   2.317  0.0894 -0.1059 -0.0224
10906TIP3    H154133   0.315   1.939   2.340 -1.5003 -0.9602 -0.1621
10906TIP3    H254134   0.220   2.044   2.393  0.2079  0.5927 -0.1440
10907TIP3   OH254135   2.188   5.946  14.134 -0.0636 -0.6191  0.3229
10907TIP3    H154136   2.108   5.997  14.131 -1.0516 -2.1454  0.0153
10907TIP3    H254137   2.236   5.971  14.055 -1.1445 -1.1198 -0.5119
10908TIP3   OH254138   2.854   4.275   5.637  0.3579  0.1176 -0.0879
10908TIP3    H154139   2.930   4.219   5.653  0.0240  0.1075  1.5271
10908TIP3    H254140   2.789   4.217   5.596  0.5020 -0.3486  0.3417
10909TIP3   OH254141   5.829   0.198  13.831  0.3732  0.1818  0.1401
10909TIP3    H154142   5.887   0.272  13.849  2.2489 -1.3795  0.7354
10909TIP3    H254143   5.778   0.225  13.755  1.4635  1.8452 -0.0232
10910TIP3   OH254144   5.906   3.092  14.350 -0.4493 -0.3446  0.4202
10910TIP3    H154145   5.912   3.188  14.357 -1.8411 -0.3306  1.6589
10910TIP3    H254146   5.839   3.068  14.413 -0.2901 -2.1318 -0.0756
10911TIP3   OH254147   6.427   1.933  12.407 -0.3307 -0.0101  0.1944
10911TIP3    H154148   6.403   2.025  12.401  0.0861  0.0906  0.0684
10911TIP3    H254149   6.522   1.932  12.398 -0.1574 -0.2877  1.8598
10912TIP3   OH254150   5.315   6.601   2.425 -0.5373 -0.1800  0.4673
10912TIP3    H154151   5.344   6.512   2.448 -0.0243  0.3102  1.7430
10912TIP3    H254152   5.385   6.635   2.370 -1.2581 -0.9615 -0.9717
10913TIP3   OH254153   6.772   5.863   3.645  0.5147  0.2227  0.2978
10913TIP3    H154154   6.679   5.882   3.641 -0.2902 -3.3208  0.4209
10913TIP3    H254155   6.782   5.782   3.594  3.6248  0.8763 -0.2212
10914TIP3   OH254156   2.609   4.603  15.001 -0.4365 -0.1406 -0.2392
10914TIP3    H154157   2.680   4.561  15.049 -0.8352  2.6765  2.9862
10914TIP3    H254158   2.558   4.648  15.068 -3.6667  0.2623 -2.8145
10915TIP3   OH254159   5.529   4.953  15.405  0.1250 -0.3952  0.3625
10915TIP3    H154160   5.479   4.873  15.392  1.0366 -1.3221  2.3540
10915TIP3    H254161   5.583   4.936  15.482  1.1573  1.7335  0.1654
10916TIP3   OH254162   0.327   6.244   6.017 -0.7745  0.1731 -0.2390
10916TIP3    H154163   0.362   6.299   6.087 -1.5392 -0.9132  1.0094
10916TIP3    H254164   0.283   6.305   5.958 -1.3844  0.9248  0.9841
10917TIP3   OH254165   2.655   3.923   6.340  0.0028  0.0332 -0.1251
10917TIP3    H154166   2.651   3.845   6.394  1.6648  0.6018  0.8518
10917TIP3    H254167   2.620   3.993   6.395  0.1861  0.3167 -0.3657
10918TIP3   OH254168   1.399   4.218   5.779  0.4310  0.5088  0.5240
10918TIP3    H154169   1.467   4.169   5.734 -1.2588 -0.6468 -0.8623
10918TIP3    H254170   1.357   4.269   5.709 -0.2523  1.0544  1.3249
10919TIP3   OH254171   5.928   2.561   5.551  0.1464 -0.3001 -0.2735
10919TIP3    H154172   5.861   2.628   5.568  0.3250  0.0109 -0.7726
10919TIP3    H254173   5.891   2.509   5.480 -1.0517 -2.2294  1.6935
10920TIP3   OH254174   3.986   2.400   5.987  0.5319 -0.1442  0.4922
10920TIP3    H154175   3.987   2.309   6.017  0.8997 -0.4889 -0.5512
10920TIP3    H254176   3.897   2.414   5.955 -0.4624  0.8211  3.4731
10921TIP3   OH254177   4.844   4.286   6.433  0.4563  0.1545 -0.1785
10921TIP3    H154178   4.848   4.196   6.399 -1.9126  0.2774 -0.9368
10921TIP3    H254179   4.872   4.279   6.524  1.1624 -1.2033 -0.4845
10922TIP3   OH254180   2.226   0.216   4.708 -0.5411 -0.7124  0.2006
10922TIP3    H154181   2.282   0.244   4.781 -0.1471  0.5333 -0.5743
10922TIP3    H254182   2.284   0.164   4.652  0.7553  3.2428 -2.2796
10923TIP3   OH254183   0.318   5.245  17.099 -0.2391 -0.0447 -0.0536
10923TIP3    H154184   0.234   5.245  17.145 -0.5858 -1.4387 -0.6835
10923TIP3    H254185   0.368   5.314  17.143 -1.1982 -0.1506  1.2542
10924TIP3   OH254186   0.959   5.623  15.571  0.0997  0.0628  0.2053
10924TIP3    H154187   0.918   5.699  15.614  0.2745 -0.2738  0.9854
10924TIP3    H254188   0.901   5.602  15.498 -1.2095 -0.5191  1.3952
10925TIP3   OH254189   0.808   0.524  16.420  0.3741 -0.2751 -0.0113
10925TIP3    H154190   0.794   0.528  16.515  3.3842 -0.1183  0.4737
10925TIP3    H254191   0.720   0.513  16.383 -0.7924 -0.8421  2.8176
10926TIP3   OH254192   5.403   5.431  12.179 -0.7725  0.7230 -0.2918
10926TIP3    H154193   5.380   5.354  12.126 -0.8366  0.6793 -0.2032
10926TIP3    H254194   5.490   5.410  12.214  0.3561  1.8232 -2.3615
10927TIP3   OH254195   0.517   1.121  11.736 -0.0007 -0.0628 -0.7282
10927TIP3    H154196   0.486   1.065  11.807 -0.2149  0.1690 -0.6402
10927TIP3    H254197   0.503   1.210  11.767  1.7968  0.0633 -0.2414
10928TIP3   OH254198   0.835   3.328  14.787  0.1944  0.9249  0.3691
10928TIP3    H154199   0.886   3.260  14.831  0.1437  1.3768  1.1408
10928TIP3    H254200   0.745   3.313  14.814  0.5505  3.0319  2.8732
10929TIP3   OH254201   0.701   6.632  11.069 -0.3584  0.5792  0.0648
10929TIP3    H154202   0.629   6.571  11.054  1.6305 -1.9888  0.7390
10929TIP3    H254203   0.749   6.633  10.986  0.1151  0.5635  0.3410
10930TIP3   OH254204   1.908   5.173   5.141 -0.1031 -0.1920 -0.2580
10930TIP3    H154205   1.854   5.157   5.063 -0.6326 -0.6714  0.2066
10930TIP3    H254206   1.996   5.147   5.115 -0.1565  0.2578 -0.9069
10931TIP3   OH254207   1.058   2.655  13.672 -0.2797  0.6911 -0.3534
10931TIP3    H154208   1.114   2.697  13.736  2.0781 -1.2768 -1.0416
10931TIP3    H254209   1.065   2.561  13.691 -0.9505  0.1971 -2.3554
10932TIP3   OH254210   6.563   3.529  11.207 -0.1802  0.2326 -0.1959
10932TIP3    H154211   6.639   3.562  11.255  0.6061 -1.2853 -0.3564
10932TIP3    H254212   6.582   3.436  11.193 -1.3447  0.1840 -1.6201
10933TIP3   OH254213   1.880   6.303  12.572 -0.4840  0.2177 -0.3181
10933TIP3    H154214   1.967   6.291  12.534 -0.9763 -1.9065 -0.8374
10933TIP3    H254215   1.823   6.320  12.497 -0.7499  0.2449 -0.1134
10934TIP3   OH254216   2.310   0.063   2.316 -0.3334  0.9356  0.8168
10934TIP3    H154217   2.340   0.009   2.389 -1.1046  0.7035  0.9589
10934TIP3    H254218   2.268   0.139   2.358 -0.2515  1.0924  0.6155
10935TIP3   OH254219   4.377   5.877  12.028  0.4556  0.2539 -0.0667
10935TIP3    H154220   4.333   5.824  11.961  2.6133  1.4080 -2.5013
10935TIP3    H254221   4.313   5.943  12.053 -2.1578 -3.1526  2.7744
10936TIP3   OH254222   3.351   4.503  10.603  0.0755  0.5066 -0.0859
10936TIP3    H154223   3.350   4.482  10.510  0.0797  0.4496 -0.0733
10936TIP3    H254224   3.419   4.571  10.612  0.4943  0.0818 -0.0301
10937TIP3   OH254225   4.285   1.347  12.897 -0.4209 -0.0144 -0.0015
10937TIP3    H154226   4.267   1.272  12.954  0.2364  0.0511  0.2947
10937TIP3    H254227   4.200   1.368  12.859 -1.4430  1.5895  2.9756
10938TIP3   OH254228   1.693   6.067   3.869  0.1013  0.2884  0.2112
10938TIP3    H154229   1.709   6.125   3.795  2.3846  0.4669  0.8051
10938TIP3    H254230   1.598   6.063   3.877 -0.1307  1.5653 -1.6975
10939TIP3   OH254231   5.015   6.134   2.443  0.0348  0.3909 -0.2258
10939TIP3    H154232   4.941   6.189   2.468 -1.4391 -1.4526 -0.3957
10939TIP3    H254233   5.042   6.092   2.524  0.3128  0.3700 -0.3292
10940TIP3   OH254234   4.491   2.423  10.257  0.6453 -0.1020 -0.4494
10940TIP3    H154235   4.421   2.358  10.270  1.3288 -1.1038 -1.6461
10940TIP3    H254236   4.459   2.502  10.301 -1.0593 -0.6794 -0.6089
10941TIP3   OH254237   4.237   5.713   6.243  0.0665  0.4445  0.5204
10941TIP3    H154238   4.203   5.636   6.289 -1.3626  0.8082  0.0968
10941TIP3    H254239   4.259   5.775   6.313 -3.0844  1.4087  0.7512
10942TIP3   OH254240   2.631   3.586   1.620  0.2069  0.1140  0.3623
10942TIP3    H154241   2.664   3.623   1.702  0.4631  0.3406  0.1582
10942TIP3    H254242   2.590   3.503   1.646  1.0390 -0.2273  0.6072
10943TIP3   OH254243   2.638   0.782  13.629  0.4879 -0.1937 -0.1092
10943TIP3    H154244   2.563   0.841  13.633  0.4142 -0.3404  0.7956
10943TIP3    H254245   2.694   0.809  13.701 -0.1026 -1.9630  1.0544
10944TIP3   OH254246   1.850   0.019  10.843 -0.0078  0.7755 -0.0082
10944TIP3    H154247   1.870  -0.068  10.809  0.8592  0.6358  0.8273
10944TIP3    H254248   1.895   0.022  10.927 -0.5071  1.8281  0.2259
10945TIP3   OH254249   4.592   5.078   5.856  0.1535  0.4009  0.1261
10945TIP3    H154250   4.511   5.128   5.868 -0.3375 -0.6323  1.2870
10945TIP3    H254251   4.576   5.026   5.778 -0.3051  0.2089  0.3454
10946TIP3   OH254252   3.417   5.871  10.860  0.2247  0.1357  0.0325
10946TIP3    H154253   3.411   5.796  10.802 -1.8936  1.0252 -0.9616
10946TIP3    H254254   3.417   5.947  10.801  3.0387  0.9405  0.9742
10947TIP3   OH254255   1.620   5.197   4.689  0.1953  0.0928 -0.9243
10947TIP3    H154256   1.685   5.246   4.638 -0.4004  1.0127 -0.8086
10947TIP3    H254257   1.601   5.120   4.636 -1.2852  1.5992 -2.6781
10948TIP3   OH254258   6.158   6.341   3.867  0.1978  0.7779 -0.6862
10948TIP3    H154259   6.127   6.259   3.830 -0.5336  1.0349 -0.6403
10948TIP3    H254260   6.209   6.314   3.943 -0.7434  0.4062 -0.1775
10949TIP3   OH254261   4.361   4.195  14.226 -0.2403 -0.7167 -0.7060
10949TIP3    H154262   4.380   4.109  14.264 -0.5539 -1.0009 -1.1899
10949TIP3    H254263   4.374   4.183  14.132  1.0083  0.1129 -0.6489
10950TIP3   OH254264   4.756   1.342   3.556 -0.0961 -0.5940 -0.3127
10950TIP3    H154265   4.819   1.278   3.589  0.4996 -0.3993 -1.0688
10950TIP3    H254266   4.799   1.427   3.567 -1.5062 -0.1679  2.1362
10951TIP3   OH254267   2.954   0.350   3.990 -0.4527 -0.2607 -0.2426
10951TIP3    H154268   2.932   0.257   3.981  2.1892 -1.0135  0.6538
10951TIP3    H254269   2.900   0.380   4.063 -1.8263 -0.8940 -0.9734
10952TIP3   OH254270   0.543   6.520  15.559  0.1410 -0.1929 -0.1231
10952TIP3    H154271   0.527   6.596  15.503 -1.2772  0.2645  0.8759
10952TIP3    H254272   0.487   6.451  15.522 -1.1751  0.2503  0.9787
10953TIP3   OH254273   1.499   3.635  16.170  0.1956 -0.3797  0.2897
10953TIP3    H154274   1.438   3.561  16.171 -0.6347  0.2172 -1.9777
10953TIP3    H254275   1.544   3.627  16.086  2.3555 -0.0803  1.4013
10954TIP3   OH254276   1.272   4.686   3.019 -0.1972 -0.5341 -0.2742
10954TIP3    H154277   1.274   4.685   3.115 -0.3009 -1.1301 -0.2796
10954TIP3    H254278   1.362   4.664   2.993  0.3155  1.4902 -0.3074
10955TIP3   OH254279   5.727   3.975   2.448 -0.2882  0.3671  0.2300
10955TIP3    H154280   5.765   3.937   2.526 -3.8948  0.0072  1.9158
10955TIP3    H254281   5.766   3.926   2.375  0.6510 -1.5080  1.9667
10956TIP3   OH254282   5.059   2.770  16.825 -0.2334 -0.1069  0.4021
10956TIP3    H154283   5.010   2.807  16.751  0.4546  0.3111  0.1523
10956TIP3    H254284   5.110   2.699  16.788  0.3072  0.2673  0.4253
10957TIP3   OH254285   6.547   2.076   5.753  0.0807  0.5284 -0.2262
10957TIP3    H154286   6.546   1.981   5.760 -0.7793  0.4440 -1.3397
10957TIP3    H254287   6.474   2.097   5.694  0.3608  1.8614 -0.1255
10958TIP3   OH254288   5.354   4.777   3.424  0.5754 -0.5760  0.1190
10958TIP3    H154289   5.328   4.691   3.392  1.4618 -0.2183 -1.6281
10958TIP3    H254290   5.449   4.773   3.430  0.7251  0.6204 -1.0900
10959TIP3   OH254291   1.841   3.360   3.141 -0.1950 -0.0694  0.1773
10959TIP3    H154292   1.773   3.308   3.099 -0.0451  0.0585 -0.2202
10959TIP3    H254293   1.819   3.358   3.234 -0.6540 -0.1545  0.0646
10960TIP3   OH254294   2.226   4.435   5.170  0.2453  0.2136 -0.4605
10960TIP3    H154295   2.146   4.477   5.203  0.5506  1.0438 -0.7623
10960TIP3    H254296   2.294   4.502   5.179  0.7802 -0.2824 -0.7730
10961TIP3   OH254297   0.849   0.355   4.362  0.1751  0.7605 -0.2040
10961TIP3    H154298   0.780   0.293   4.387  1.2582 -0.8280 -1.1192
10961TIP3    H254299   0.898   0.369   4.443 -1.8306  2.7273  0.7165
10962TIP3   OH254300   5.913   1.120   3.332 -0.3218 -0.3054  0.3383
10962TIP3    H154301   5.864   1.190   3.374  1.4329 -0.4097  2.6865
10962TIP3    H254302   5.846   1.059   3.301 -1.8703  2.2491 -1.5966
10963TIP3   OH254303   0.999   3.271   4.019  0.2522 -0.4385  0.4427
10963TIP3    H154304   1.060   3.319   4.076 -1.1539  0.6030  1.0891
10963TIP3    H254305   0.916   3.317   4.028 -0.2860 -0.9690 -1.5763
10964TIP3   OH254306   2.448   2.921  16.178 -0.3571  0.6183  0.1521
10964TIP3    H154307   2.386   2.990  16.203 -0.2436  0.5154  0.7228
10964TIP3    H254308   2.446   2.921  16.082 -1.8953  0.0279  0.1646
10965TIP3   OH254309   0.551   0.515  12.029 -0.0679 -0.0452 -0.2469
10965TIP3    H154310   0.610   0.515  11.953  0.5248  0.0907  0.2111
10965TIP3    H254311   0.599   0.468  12.097 -0.3945  0.2704  0.2048
10966TIP3   OH254312   6.097   0.024  12.681 -0.3492  0.4217  1.0193
10966TIP3    H154313   6.035  -0.047  12.696  0.0534  0.1768  1.5727
10966TIP3    H254314   6.078   0.088  12.749 -0.1979  0.4893  0.9987
10967TIP3   OH254315   3.921   2.875   5.789 -0.4118 -0.1025  0.0554
10967TIP3    H154316   3.957   2.796   5.749 -1.0546  0.5042 -1.7630
10967TIP3    H254317   3.992   2.939   5.785 -0.2874 -0.2178  0.4145
10968TIP3   OH254318   2.614   3.669   4.573  0.7425 -0.2134  0.1847
10968TIP3    H154319   2.549   3.701   4.510  0.3989 -3.3350 -1.1436
10968TIP3    H254320   2.565   3.609   4.630  2.1049 -1.4036  0.1463
10969TIP3   OH254321   2.250   0.164  10.646  0.4379  0.3626 -0.2519
10969TIP3    H154322   2.178   0.177  10.708 -0.0200  0.2304 -0.7566
10969TIP3    H254323   2.294   0.085  10.677 -0.6779 -0.5519 -0.9319
10970TIP3   OH254324   3.318   1.185   4.465 -0.3583  0.4806 -0.0270
10970TIP3    H154325   3.313   1.090   4.458  0.3523  0.4949 -0.7895
10970TIP3    H254326   3.401   1.202   4.508 -0.5316  0.7574  0.2018
10971TIP3   OH254327   5.515   5.379   2.335  0.5376 -0.1704  0.6446
10971TIP3    H154328   5.463   5.314   2.287  0.4601 -0.1271  0.6694
10971TIP3    H254329   5.527   5.342   2.422  0.4004 -0.1045  0.6930
10972TIP3   OH254330   4.404   3.901  15.176 -0.2318 -0.2304 -0.2433
10972TIP3    H154331   4.404   3.985  15.129 -0.0479  0.4936  1.0384
10972TIP3    H254332   4.396   3.925  15.268  0.9248 -1.5870  0.2166
10973TIP3   OH254333   6.339   2.993  11.205 -0.2161  0.3462  0.8439
10973TIP3    H154334   6.352   3.079  11.246 -0.4769  0.4046  0.8077
10973TIP3    H254335   6.370   3.003  11.115 -0.3167  0.4234  0.8184
10974TIP3   OH254336   5.571   1.799  11.932 -0.0811  0.1273 -0.0292
10974TIP3    H154337   5.658   1.824  11.899  0.1966 -1.2122 -0.3283
10974TIP3    H254338   5.536   1.880  11.970  1.4512  0.5948  0.4294
10975TIP3   OH254339   0.446   0.265   4.790  0.1232  0.2479  0.1322
10975TIP3    H154340   0.532   0.262   4.831  0.4002 -0.3907 -0.4730
10975TIP3    H254341   0.418   0.356   4.798 -0.1426 -0.0022  2.3392
10976TIP3   OH254342   5.050   4.411   5.331 -0.0767 -0.4939  0.6603
10976TIP3    H154343   5.006   4.333   5.363 -1.2405  0.5385  1.6466
10976TIP3    H254344   5.068   4.462   5.410 -1.7366  1.4524 -0.1686
10977TIP3   OH254345   0.606   1.832  10.788 -0.0819  0.0615 -0.3260
10977TIP3    H154346   0.513   1.832  10.811  0.3153 -1.0232  1.3910
10977TIP3    H254347   0.646   1.894  10.849  0.8736 -2.2924  1.5268
10978TIP3   OH254348   0.622   4.137  13.574  0.4188  0.0637 -0.2409
10978TIP3    H154349   0.565   4.161  13.501  1.3605 -1.2207 -1.4143
10978TIP3    H254350   0.669   4.217  13.595 -1.8042  1.1589  0.7727
10979TIP3   OH254351   3.991   3.318   3.496 -0.0904  0.2326  0.3402
10979TIP3    H154352   4.070   3.370   3.483 -0.4330  0.3021 -1.5864
10979TIP3    H254353   4.003   3.277   3.582  1.2915  1.5215  0.7809
10980TIP3   OH254354   5.997   3.041  14.899 -0.1882 -0.0621 -0.2424
10980TIP3    H154355   5.974   3.051  14.991 -0.0524 -2.1413  0.0257
10980TIP3    H254356   5.943   3.106  14.854 -0.4795  0.7578  1.2501
10981TIP3   OH254357   6.152   5.335   5.492  0.2292  0.0166  0.1294
10981TIP3    H154358   6.163   5.368   5.581 -0.2068 -0.4496  0.3516
10981TIP3    H254359   6.115   5.409   5.443 -2.0276 -0.5472  0.9306
10982TIP3   OH254360   3.984   6.311   4.996 -0.2769  0.6352  0.1023
10982TIP3    H154361   4.011   6.337   4.908 -0.1877 -0.2882 -0.1418
10982TIP3    H254362   3.900   6.266   4.983  1.4124 -2.6602  0.0504
10983TIP3   OH254363   4.052   3.902   3.836  0.6318 -0.0555  0.9642
10983TIP3    H154364   4.132   3.954   3.829 -0.2476  1.1368 -0.5368
10983TIP3    H254365   4.076   3.815   3.804  0.6191  1.1000 -2.3584
10984TIP3   OH254366   0.520   1.844   2.719 -0.4137  0.7196 -0.4159
10984TIP3    H154367   0.612   1.828   2.741 -0.0216  0.9833 -1.8483
10984TIP3    H254368   0.471   1.793   2.784  0.7585 -0.9268 -0.7919
10985TIP3   OH254369   5.433   2.781  13.681 -0.2133  0.2496 -0.5281
10985TIP3    H154370   5.471   2.715  13.623 -0.0832 -0.3720  0.2629
10985TIP3    H254371   5.355   2.740  13.718 -0.2227  0.5964 -0.1567
10986TIP3   OH254372   5.400   3.202   2.485  0.5834  0.0778 -0.4463
10986TIP3    H154373   5.324   3.224   2.540  0.9421  0.6237 -0.1706
10986TIP3    H254374   5.409   3.277   2.426  2.4302  1.1816  1.1706
10987TIP3   OH254375   4.132   2.433   3.942 -0.3455 -0.2153 -0.0324
10987TIP3    H154376   4.192   2.359   3.954  1.0105  1.0233  1.0067
10987TIP3    H254377   4.109   2.460   4.031 -1.1519  0.3787 -0.4103
10988TIP3   OH254378   2.796   2.870   0.814  0.4943 -0.3431  0.0357
10988TIP3    H154379   2.835   2.783   0.814 -0.4209 -0.7750 -1.8774
10988TIP3    H254380   2.705   2.856   0.788 -0.3366  0.9251  2.0648
10989TIP3   OH254381   4.719   6.011   1.161 -0.1107 -0.2300 -0.3294
10989TIP3    H154382   4.647   6.038   1.104 -1.9841  0.0582  2.1135
10989TIP3    H254383   4.729   6.083   1.223  1.3827 -0.8826  0.2166
10990TIP3   OH254384   1.425   3.783   6.282 -0.5372 -0.0097  0.3092
10990TIP3    H154385   1.347   3.791   6.226 -0.3168  0.5021  0.0724
10990TIP3    H254386   1.453   3.692   6.271 -0.5847  0.0467 -0.2991
10991TIP3   OH254387   2.954   3.242  15.418  0.4190 -0.5089  0.1396
10991TIP3    H154388   2.959   3.337  15.429  0.1129 -0.4337 -0.3786
10991TIP3    H254389   2.862   3.220  15.434 -0.1758 -0.3240 -2.8158
10992TIP3   OH254390   5.193   0.296  10.306 -0.5563 -0.0380  0.2581
10992TIP3    H154391   5.218   0.213  10.346 -1.2008 -0.4651 -0.2138
10992TIP3    H254392   5.184   0.276  10.213 -0.3563  0.6435  0.0906
10993TIP3   OH254393   0.429   3.727  13.360 -0.7118 -0.9031  0.4408
10993TIP3    H154394   0.402   3.699  13.447  1.1246 -1.2522  0.9096
10993TIP3    H254395   0.524   3.730  13.364 -0.6892  1.5178 -0.7898
10994TIP3   OH254396   5.784   1.959   3.440  0.0830 -0.2235 -0.5595
10994TIP3    H154397   5.778   2.026   3.508  0.3209  1.2825 -1.9719
10994TIP3    H254398   5.695   1.925   3.432 -0.1356  0.2340 -0.1303
10995TIP3   OH254399   1.146   3.390   1.012  0.2859 -0.1804  0.4884
10995TIP3    H154400   1.182   3.328   1.075 -0.1551 -1.0516 -0.1030
10995TIP3    H254401   1.107   3.459   1.066  1.3306 -0.0863  1.1451
10996TIP3   OH254402   2.178   6.191  11.035  0.7421  0.2108  0.0394
10996TIP3    H154403   2.087   6.177  11.009  0.7745  0.7565 -0.3755
10996TIP3    H254404   2.216   6.103  11.037  0.4348  0.0592 -0.6475
10997TIP3   OH254405   1.812   3.327  10.407 -0.1777  0.2955  0.3281
10997TIP3    H154406   1.870   3.337  10.331 -0.2792 -0.0941  0.1960
10997TIP3    H254407   1.814   3.233  10.426 -1.0237  0.2347  0.1226
10998TIP3   OH254408   5.275   1.186   0.617  0.2760  0.5568  0.2253
10998TIP3    H154409   5.345   1.245   0.591  0.3743  0.3624  0.0527
10998TIP3    H254410   5.316   1.100   0.623  0.5653  0.7969  2.2715
10999TIP3   OH254411   0.827   4.785  13.385  0.3140  0.3158 -0.1375
10999TIP3    H154412   0.789   4.809  13.469 -1.3830  0.3581 -0.9069
10999TIP3    H254413   0.824   4.865  13.333  0.5238  0.0639 -0.5402
11000TIP3   OH254414   3.706   1.997  14.389 -0.3248  0.1364  0.5692
11000TIP3    H154415   3.785   2.047  14.408  1.5177 -2.0232 -1.0657
11000TIP3    H254416   3.711   1.922  14.448 -1.7860  0.5832  1.2780
11001TIP3   OH254417   4.458   0.588  15.847  0.3497 -0.3481  0.3917
11001TIP3    H154418   4.551   0.590  15.827  0.1145 -0.0003 -0.7343
11001TIP3    H254419   4.453   0.569  15.941  1.5082 -1.9249  0.1497
11002TIP3   OH254420   3.532   4.435  12.293  0.4316 -0.1488  0.4245
11002TIP3    H154421   3.506   4.466  12.206  0.9802  0.6830  0.5545
11002TIP3    H254422   3.620   4.399  12.280  0.3643 -0.3636  0.5633
11003TIP3   OH254423   2.294   4.974  15.156 -0.1195 -0.0572 -0.2321
11003TIP3    H154424   2.280   5.020  15.239 -1.3040  0.3386 -0.6278
11003TIP3    H254425   2.299   5.045  15.091  0.8481 -0.3626 -0.4898
11004TIP3   OH254426   5.633   0.550   2.683  0.3795 -0.2146 -0.4508
11004TIP3    H154427   5.709   0.571   2.738 -0.3296  0.9327  0.1177
11004TIP3    H254428   5.670   0.534   2.596  1.3708 -0.6079  0.0352
11005TIP3   OH254429   0.960   0.269   3.862  0.3574 -0.6057  0.4370
11005TIP3    H154430   0.990   0.178   3.856  1.3269 -0.2597 -0.1899
11005TIP3    H254431   0.936   0.280   3.954 -0.5059 -1.7157  0.3566
11006TIP3   OH254432   2.990   1.318  16.085 -0.0416 -0.0515  0.2810
11006TIP3    H154433   2.928   1.317  16.158  0.2019 -0.6155  0.4911
11006TIP3    H254434   2.954   1.381  16.023 -0.5683 -0.0168  0.6200
11007TIP3   OH254435   3.107   6.087  12.769 -0.1517 -0.2690  0.0361
11007TIP3    H154436   3.123   6.071  12.862  1.3158 -1.6564 -0.4291
11007TIP3    H254437   3.194   6.094  12.730 -0.7310 -0.5897 -1.3769
11008TIP3   OH254438   4.540   4.543   4.994  0.4057  0.2564  0.2317
11008TIP3    H154439   4.528   4.469   4.934 -0.1605 -1.6126  2.5577
11008TIP3    H254440   4.453   4.560   5.030  0.4699  2.2882 -0.5132
11009TIP3   OH254441   6.437   3.735  15.902 -0.3935  0.2744 -0.1415
11009TIP3    H154442   6.393   3.708  15.821 -0.8287  0.5604 -0.0041
11009TIP3    H254443   6.496   3.805  15.874 -0.4396  0.2777 -0.2324
11010TIP3   OH254444   4.774   3.791  12.593  0.2844  0.4756 -0.0417
11010TIP3    H154445   4.692   3.818  12.552 -1.0440  0.1400  2.3147
11010TIP3    H254446   4.772   3.833  12.679  1.6912 -1.0732  0.7633
11011TIP3   OH254447   4.043   1.093  11.050 -0.0304  0.6096  0.0877
11011TIP3    H154448   4.024   1.170  11.104  0.2308  1.2415 -0.7224
11011TIP3    H254449   4.093   1.035  11.108  1.6871  1.9939  0.0049
11012TIP3   OH254450   3.038   5.568   4.973 -0.3900 -0.0646  0.1422
11012TIP3    H154451   2.970   5.506   4.946 -0.5937  0.2540 -0.0770
11012TIP3    H254452   2.990   5.648   4.997 -0.1117  0.0810  0.2160
11013TIP3   OH254453   3.007   6.019   1.109  0.4569  0.3075  0.2915
11013TIP3    H154454   2.936   6.083   1.109  0.3888  0.2306  0.0974
11013TIP3    H254455   3.083   6.067   1.142  0.6869  0.7925 -0.9529
11014TIP3   OH254456   1.250   2.567  11.634 -0.2697 -0.4199  0.5834
11014TIP3    H154457   1.203   2.538  11.712  0.6509  1.1142  1.7139
11014TIP3    H254458   1.227   2.659  11.623  1.4708  0.0241  0.4351
11015TIP3   OH254459   5.841   4.052  17.112 -0.1225  0.2324  0.0546
11015TIP3    H154460   5.833   3.961  17.083 -1.7104  0.2719  0.3043
11015TIP3    H254461   5.787   4.057  17.191  0.3758  1.2709  0.3421
11016TIP3   OH254462   4.810   1.500   4.581  0.1690  0.2439  0.6878
11016TIP3    H154463   4.739   1.474   4.523  0.9201 -0.4817  0.0696
11016TIP3    H254464   4.768   1.552   4.649 -0.5462  2.2803 -1.2291
11017TIP3   OH254465   6.272   5.162  14.923  0.4089  0.0828  0.1095
11017TIP3    H154466   6.270   5.240  14.867  1.5401  0.5058  0.6508
11017TIP3    H254467   6.361   5.127  14.913  1.1539  1.0794  2.8790
11018TIP3   OH254468   0.271   6.556  13.275 -0.3503  0.2031  0.1351
11018TIP3    H154469   0.240   6.639  13.312  0.2851  0.2395  0.5935
11018TIP3    H254470   0.268   6.570  13.180 -0.1131  0.8054  0.2096
11019TIP3   OH254471   2.575   0.760  15.255 -0.0439 -0.1800  0.0896
11019TIP3    H154472   2.616   0.721  15.333 -0.8083  0.7967  0.9877
11019TIP3    H254473   2.494   0.711  15.244 -1.1260  1.2851  1.3664
11020TIP3   OH254474   2.418   1.201  13.373  0.0888 -0.0411 -0.0249
11020TIP3    H154475   2.438   1.141  13.445 -1.5165  0.9602  1.3105
11020TIP3    H254476   2.357   1.264  13.412  0.0439  1.1520 -1.9898
11021TIP3   OH254477   0.485   6.418  11.455 -0.4820  0.4237 -0.1049
11021TIP3    H154478   0.441   6.473  11.391 -0.7705 -1.1971 -1.3306
11021TIP3    H254479   0.426   6.343  11.467  0.2940 -0.0486  0.8888
11022TIP3   OH254480   5.909   3.084   4.200  0.2315  0.2499 -0.1121
11022TIP3    H154481   5.814   3.087   4.192  0.1140 -0.6159  0.8104
11022TIP3    H254482   5.932   3.167   4.243 -0.2269 -0.0200  0.6711
11023TIP3   OH254483   1.258   1.928  12.024  0.2483 -0.5432  0.1236
11023TIP3    H154484   1.326   1.976  12.072  0.1883 -0.0372 -0.3092
11023TIP3    H254485   1.239   1.981  11.947 -0.5765 -0.7279  0.1896
11024TIP3   OH254486   2.856   5.022   1.315  0.5689 -0.5334  0.3103
11024TIP3    H154487   2.945   5.043   1.341 -0.0120 -1.6325  3.3410
11024TIP3    H254488   2.808   5.105   1.323  0.6793 -0.5852  1.6036
11025TIP3   OH254489   0.717   1.203  11.185 -0.2428 -0.8602  0.0602
11025TIP3    H154490   0.624   1.201  11.206  0.0854 -3.0337  1.4375
11025TIP3    H254491   0.719   1.202  11.089 -1.6407 -2.9633  0.0088
11026TIP3   OH254492   6.560   5.708   0.362 -0.0951 -0.3930  0.1579
11026TIP3    H154493   6.603   5.790   0.339  0.0846 -0.6061 -0.2707
11026TIP3    H254494   6.526   5.722   0.450  1.1364 -0.3325  0.6230
11027TIP3   OH254495   4.256   0.666   2.269  0.8192  0.1683 -0.5887
11027TIP3    H154496   4.205   0.721   2.328  0.1230 -1.4040  0.3172
11027TIP3    H254497   4.332   0.639   2.321  1.0808  0.1467 -0.9807
11028TIP3   OH254498   3.118   1.025  14.760 -0.1199 -0.2446 -0.0294
11028TIP3    H154499   3.043   1.034  14.818  0.9557 -0.0398  1.3484
11028TIP3    H254500   3.150   0.936  14.776 -0.0971 -0.3599 -0.6742
11029TIP3   OH254501   2.213   6.037   2.074 -0.2227 -0.2201  0.3513
11029TIP3    H154502   2.203   6.043   2.169 -0.4852  0.1340  0.2994
11029TIP3    H254503   2.152   5.969   2.048 -0.7924  0.2994  0.3263
11030TIP3   OH254504   2.472   5.175   2.614  0.7787 -0.5446 -0.0756
11030TIP3    H154505   2.518   5.091   2.615  1.0324 -0.4393 -1.4802
11030TIP3    H254506   2.531   5.234   2.661  0.1564 -1.3530  1.7730
11031TIP3   OH254507   0.973   0.351   5.455  0.3675 -0.2082 -0.3918
11031TIP3    H154508   1.020   0.363   5.372  1.4060 -1.7430 -0.0337
11031TIP3    H254509   1.021   0.406   5.517 -0.2761  0.7660 -0.7373
11032TIP3   OH254510   0.004   3.652  14.724  0.3339 -0.1079  0.0007
11032TIP3    H154511   0.040   3.725  14.774  0.1868  0.0883 -0.1800
11032TIP3    H254512   0.081   3.608  14.688  0.4387 -0.2569  0.4113
11033TIP3   OH254513   4.946   1.079   0.623  0.5559  0.0655 -0.2037
11033TIP3    H154514   4.970   1.147   0.686 -3.2383  0.0733  1.3513
11033TIP3    H254515   4.956   0.997   0.672 -0.9354 -0.0364 -0.0632
11034TIP3   OH254516   3.699   0.784  12.990 -0.6438  0.0519 -0.1561
11034TIP3    H154517   3.644   0.791  13.069  1.1994  1.1699  1.0427
11034TIP3    H254518   3.692   0.869  12.948 -0.3964 -0.0526 -0.4070
11035TIP3   OH254519   3.774   3.734  16.806  0.2453 -0.2084 -0.5246
11035TIP3    H154520   3.684   3.704  16.817 -0.3474  0.2890 -3.5419
11035TIP3    H254521   3.769   3.828  16.820  0.4682 -0.2949  0.1526
11036TIP3   OH254522   6.120   1.273   0.016 -0.0238  0.1686 -0.6162
11036TIP3    H154523   6.136   1.282   0.110 -0.1574 -0.0826 -0.5697
11036TIP3    H254524   6.171   1.344  -0.024  0.4090 -0.0139 -0.3904
11037TIP3   OH254525   6.357   1.931  11.436  0.1543  0.1103 -0.1100
11037TIP3    H154526   6.357   1.880  11.517 -2.1248 -2.1342 -1.4600
11037TIP3    H254527   6.450   1.950  11.421  1.0710 -3.2597  0.7309
11038TIP3   OH254528   6.239   6.670   4.552 -0.4784 -0.1045  0.5563
11038TIP3    H154529   6.293   6.654   4.475 -2.0918  0.1770 -0.6571
11038TIP3    H254530   6.297   6.653   4.626  1.2281  0.0727 -0.7099
11039TIP3   OH254531   1.776   2.481  14.916 -0.0339 -0.2057 -1.0910
11039TIP3    H154532   1.767   2.418  14.987  0.2413  0.6755 -0.2698
11039TIP3    H254533   1.714   2.450  14.849 -2.7224  0.7870  0.8445
11040TIP3   OH254534   0.521   0.016  14.600 -0.6365 -0.1856 -0.0006
11040TIP3    H154535   0.444   0.032  14.545  1.4418  1.9407 -2.4028
11040TIP3    H254536   0.513   0.080  14.671 -0.5925  0.6698 -0.7622
11041TIP3   OH254537   4.302   5.545  11.232  0.2077  0.2405  0.0569
11041TIP3    H154538   4.280   5.463  11.189 -1.7737  2.0893 -2.6781
11041TIP3    H254539   4.240   5.552  11.305  1.6537 -1.5305  1.5024
11042TIP3   OH254540   4.637   2.515   5.077 -0.1965  0.6026  0.0288
11042TIP3    H154541   4.585   2.494   5.154  0.0776  1.1942  0.3784
11042TIP3    H254542   4.712   2.564   5.111  1.2574 -1.3112 -0.3255
11043TIP3   OH254543   0.345   0.376   0.864 -0.8128  0.1238  0.5255
11043TIP3    H154544   0.410   0.379   0.935 -1.3407  0.3246  1.0006
11043TIP3    H254545   0.360   0.456   0.814 -0.8862  0.3145  0.8075
11044TIP3   OH254546   1.793   6.375  12.306 -0.0628  0.3176  0.0040
11044TIP3    H154547   1.878   6.346  12.273 -0.5304 -0.6554 -0.3576
11044TIP3    H254548   1.742   6.394  12.227 -0.6898 -0.5712  0.1955
11045TIP3   OH254549   1.477   1.429   0.147  0.3453 -0.4664 -0.2039
11045TIP3    H154550   1.542   1.429   0.076 -0.2766  0.4515 -0.7848
11045TIP3    H254551   1.526   1.400   0.224  2.1479  2.7864 -0.0157
11046TIP3   OH254552   5.780   4.858   2.517  0.0372  0.5064  0.0023
11046TIP3    H154553   5.840   4.786   2.498 -1.7536 -0.7666 -0.9001
11046TIP3    H254554   5.787   4.915   2.440  1.4088  1.3017  0.6907
11047TIP3   OH254555   4.987   1.626   2.427  0.6456  0.4412  0.5457
11047TIP3    H154556   5.042   1.550   2.409  0.0932  0.3222 -0.6961
11047TIP3    H254557   4.949   1.609   2.514  0.1190 -0.9454  0.0632
11048TIP3   OH254558   6.060   1.473  15.751 -0.6861 -0.0123  0.2143
11048TIP3    H154559   6.130   1.537  15.744 -1.1997  0.5009 -0.2981
11048TIP3    H254560   6.104   1.392  15.778 -0.2763  0.9881  2.6276
11049TIP3   OH254561   2.349   4.352   6.607  0.4399 -0.0030  0.1112
11049TIP3    H154562   2.292   4.401   6.548  2.2660  0.3916 -1.3820
11049TIP3    H254563   2.429   4.404   6.614  1.7303 -1.8697 -0.0977
11050TIP3   OH254564   6.733   1.156   0.626  0.1413 -0.2125  0.0134
11050TIP3    H154565   6.721   1.158   0.722 -1.4740  0.5584 -0.1793
11050TIP3    H254566   6.816   1.110   0.613 -0.0977 -1.2082  1.7603
11051TIP3   OH254567   0.192   3.228   3.312 -0.2491 -0.9161 -0.0945
11051TIP3    H154568   0.169   3.173   3.387 -1.1635  1.1602  1.1944
11051TIP3    H254569   0.249   3.296   3.349  0.1755 -0.4837 -1.4947
11052TIP3   OH254570   1.645   0.536   0.975  0.1663 -0.3065  0.0700
11052TIP3    H154571   1.604   0.451   0.964 -1.1455  0.0528  1.9866
11052TIP3    H254572   1.577   0.599   0.952  0.1302  0.2655  1.7074
11053TIP3   OH254573   2.200   0.621   6.455  0.6957 -0.7616 -0.4785
11053TIP3    H154574   2.162   0.612   6.542  2.5592 -1.0150  0.3266
11053TIP3    H254575   2.167   0.545   6.406 -0.9580 -0.2148 -0.2470
11054TIP3   OH254576   0.682   4.995   1.919  0.6899 -0.4765 -0.7318
11054TIP3    H154577   0.758   4.959   1.965  0.8401 -0.6040 -1.0817
11054TIP3    H254578   0.695   4.970   1.828  0.5258  0.0110 -0.8893
11055TIP3   OH254579   0.855   3.083  15.617 -0.1966 -0.2911 -0.0202
11055TIP3    H154580   0.844   3.067  15.711  1.0314 -2.6493 -0.2509
11055TIP3    H254581   0.949   3.098  15.606 -0.2659 -0.4929 -0.9338
11056TIP3   OH254582   5.222   3.052  11.913  0.0812 -0.4279 -0.0038
11056TIP3    H154583   5.261   3.035  11.999 -2.3302 -2.6831  0.6889
11056TIP3    H254584   5.211   3.147  11.911  0.2131 -0.3257  2.1688
11057TIP3   OH254585   4.899   6.372  15.644 -0.4807 -0.1840  0.3149
11057TIP3    H154586   4.885   6.440  15.578  1.8986 -2.3497 -2.5579
11057TIP3    H254587   4.919   6.420  15.724  1.6437  2.5662 -1.7462
11058TIP3   OH254588   0.610   5.482   2.589  0.0143 -0.2222  0.0945
11058TIP3    H154589   0.635   5.573   2.576  0.2315 -0.4073 -0.8670
11058TIP3    H254590   0.523   5.475   2.549  0.6016 -0.7618 -1.1221
11059TIP3   OH254591   2.129   1.345  11.295 -0.4142  0.0932 -0.1519
11059TIP3    H154592   2.106   1.412  11.231  1.2446  0.2207 -0.6312
11059TIP3    H254593   2.114   1.262  11.250  0.5995  0.1819 -0.6523
11060TIP3   OH254594   5.003   0.686  10.721 -0.5229  0.3294 -0.3874
11060TIP3    H154595   5.049   0.769  10.735  0.4327 -0.2188 -0.3187
11060TIP3    H254596   4.910   0.710  10.727 -0.2384  1.2226  0.6354
11061TIP3   OH254597   5.523   4.579   1.497 -0.2244 -0.1995 -0.0491
11061TIP3    H154598   5.593   4.583   1.432 -0.3701 -0.4029 -0.2200
11061TIP3    H254599   5.567   4.551   1.577  0.0577  0.6434  0.0949
11062TIP3   OH254600   5.203   4.553   5.090 -0.7003 -0.2716 -0.2829
11062TIP3    H154601   5.215   4.647   5.099 -0.0596 -0.3453 -0.3447
11062TIP3    H254602   5.164   4.526   5.173  1.5484 -0.3452  0.7879
11063TIP3   OH254603   5.990   2.944   0.636 -0.3677  0.1630  0.0585
11063TIP3    H154604   6.038   2.989   0.566  0.9914  0.3521  1.0817
11063TIP3    H254605   5.898   2.960   0.616  0.0465  2.0781 -0.4717
11064TIP3   OH254606   2.561   0.895  12.600 -0.2205  0.0511  0.3058
11064TIP3    H154607   2.483   0.932  12.559 -0.6728 -0.6192  0.5546
11064TIP3    H254608   2.556   0.926  12.691  0.3687  0.8858  0.0639
11065TIP3   OH254609   2.841   0.900   3.704 -0.1832  0.0893  0.3010
11065TIP3    H154610   2.877   0.941   3.783  1.1265 -0.3476 -0.0492
11065TIP3    H254611   2.879   0.951   3.632  1.6853 -1.8489 -0.1541
11066TIP3   OH254612   0.166   1.108  11.753  0.2778  0.3808 -0.6610
11066TIP3    H154613   0.222   1.042  11.795 -0.1845 -0.1671 -0.8970
11066TIP3    H254614   0.083   1.102  11.801 -0.2326 -0.2051 -1.6021
11067TIP3   OH254615   0.105   5.660  14.587  0.0442  0.0013  0.3750
11067TIP3    H154616   0.066   5.620  14.665 -0.0373 -1.0291 -0.1785
11067TIP3    H254617   0.198   5.667  14.607  0.0142 -0.2206  0.5914
11068TIP3   OH254618   3.594   5.027   3.358 -0.0802 -0.0949 -0.4339
11068TIP3    H154619   3.661   5.063   3.301  1.5924 -2.4973 -0.0703
11068TIP3    H254620   3.596   5.083   3.436  3.1205 -1.4498  0.5242
11069TIP3   OH254621   2.059   0.742  11.688 -0.0504 -0.6440 -0.0271
11069TIP3    H154622   2.074   0.797  11.612  1.4407  0.0552  0.7610
11069TIP3    H254623   2.045   0.804  11.760  0.6845 -1.2912  0.6823
11070TIP3   OH254624   0.195   3.725  16.524 -0.0683  0.2955 -0.6212
11070TIP3    H154625   0.181   3.744  16.431  2.5293 -0.1329 -1.1252
11070TIP3    H254626   0.248   3.646  16.525 -1.6608 -0.7809  1.2829
11071TIP3   OH254627   2.318   3.821  11.663  0.1201  0.5277 -0.4823
11071TIP3    H154628   2.260   3.745  11.663 -1.1225  1.4733 -0.8185
11071TIP3    H254629   2.374   3.808  11.740 -0.1682 -0.6598 -0.4641
11072TIP3   OH254630   4.066   3.523   0.072  0.4445  0.2459 -0.3719
11072TIP3    H154631   4.046   3.602   0.023 -0.0999  0.6406  0.4766
11072TIP3    H254632   4.138   3.547   0.129  1.3686 -0.3356 -1.2770
11073TIP3   OH254633   4.015   5.210  13.234 -0.1777  0.6865 -0.1711
11073TIP3    H154634   4.025   5.259  13.152 -0.7336  1.3881  0.1689
11073TIP3    H254635   4.010   5.278  13.301 -1.4247  0.1767  0.2631
11074TIP3   OH254636   4.610   6.752  15.968  0.3845 -0.1311 -0.3736
11074TIP3    H154637   4.615   6.748  15.872  0.3500  1.9019 -0.4775
11074TIP3    H254638   4.700   6.769  15.996  0.0807  1.2047 -0.1759
11075TIP3   OH254639   4.678   2.515   0.611  0.4617  0.3299  0.2327
11075TIP3    H154640   4.694   2.497   0.704  1.8884  0.4120  0.0230
11075TIP3    H254641   4.664   2.609   0.607  1.6892  0.5283  0.2183
11076TIP3   OH254642   5.963   1.033   1.757 -0.3206 -0.4253  0.2815
11076TIP3    H154643   6.028   1.066   1.818  0.9025 -1.6135 -0.3611
11076TIP3    H254644   5.955   0.940   1.777 -2.0704 -0.2402  0.5685
11077TIP3   OH254645   1.161   1.830   6.590 -0.0290  0.2507  0.1487
11077TIP3    H154646   1.144   1.792   6.503  0.5394  1.9273 -0.7215
11077TIP3    H254647   1.109   1.910   6.592  1.3544  1.1639  0.6374
11078TIP3   OH254648   5.158   4.734   6.037  0.3627  0.2182  0.0216
11078TIP3    H154649   5.146   4.733   6.132  1.3086  1.2089  0.1653
11078TIP3    H254650   5.252   4.722   6.024  0.6302  2.6650 -0.6685
11079TIP3   OH254651   3.761   5.338   2.835 -0.0032 -0.3011 -0.5604
11079TIP3    H154652   3.775   5.277   2.908 -0.7357 -1.8141 -1.6553
11079TIP3    H254653   3.683   5.305   2.791 -0.8845  1.9071 -0.7209
11080TIP3   OH254654   5.762   2.737   0.455 -0.0052 -0.3233 -0.3875
11080TIP3    H154655   5.772   2.795   0.380  0.4436 -0.1837 -0.2250
11080TIP3    H254656   5.670   2.711   0.454 -0.6500  1.8132  0.5721
11081TIP3   OH254657   6.691   5.025   3.924  0.0984 -0.4402  0.1762
11081TIP3    H154658   6.696   5.063   4.012 -0.3589  0.8598 -0.3460
11081TIP3    H254659   6.781   4.997   3.905 -0.0918 -2.1290  1.6538
11082TIP3   OH254660   5.854   3.328  14.046 -0.0922  0.1152 -0.2596
11082TIP3    H154661   5.864   3.274  14.124 -0.0269 -0.7437 -0.8640
11082TIP3    H254662   5.822   3.269  13.979  0.1850  0.7714 -0.9839
11083TIP3   OH254663   1.600   5.469  16.525 -0.2931  0.1719  0.5023
11083TIP3    H154664   1.636   5.552  16.493 -1.8008  0.5920 -0.1314
11083TIP3    H254665   1.673   5.407  16.516 -0.2172  0.5842 -2.4957
11084TIP3   OH254666   6.398   0.637  16.668 -0.1303  0.6003  0.0352
11084TIP3    H154667   6.483   0.593  16.676  0.5050  1.9070  0.6833
11084TIP3    H254668   6.334   0.566  16.671  0.8837 -0.3137  0.6113
11085TIP3   OH254669   4.461   4.825   0.822  0.4897  0.1869 -0.4255
11085TIP3    H154670   4.456   4.755   0.757 -0.8783 -0.0552 -0.0576
11085TIP3    H254671   4.514   4.788   0.893  1.2115  0.1387 -0.9756
11086TIP3   OH254672   3.390   5.293  16.815  0.3178 -0.3889 -0.2154
11086TIP3    H154673   3.392   5.265  16.907  1.9257  1.5271  0.3765
11086TIP3    H254674   3.457   5.241  16.772 -0.9674 -1.8470 -0.5030
11087TIP3   OH254675   0.975   1.240   2.898  0.4161 -0.2687  0.0961
11087TIP3    H154676   1.046   1.254   2.836 -0.3142 -0.4701 -0.8039
11087TIP3    H254677   0.906   1.198   2.847  0.1912 -1.4100  1.3024
11088TIP3   OH254678   2.874   4.658   2.923  0.2532  0.6403 -0.2326
11088TIP3    H154679   2.952   4.711   2.905  1.4152 -1.0412 -0.3650
11088TIP3    H254680   2.894   4.573   2.883 -1.9649  0.4065 -0.8803
11089TIP3   OH254681   0.357   3.114   5.792 -0.5216  0.2455 -0.3511
11089TIP3    H154682   0.261   3.115   5.788 -0.4473  0.1920 -2.3807
11089TIP3    H254683   0.378   3.034   5.840 -1.4521 -0.7425 -1.5790
11090TIP3   OH254684   4.088   1.322   2.811 -0.5567 -0.1567 -0.9434
11090TIP3    H154685   4.083   1.347   2.719  0.4148 -0.5848 -1.1075
11090TIP3    H254686   4.151   1.251   2.814  1.5902  1.7186  0.4472
11091TIP3   OH254687   3.738   6.042   5.865 -0.7594 -0.0107 -0.1886
11091TIP3    H154688   3.657   6.049   5.914 -0.3223 -0.8638  0.6663
11091TIP3    H254689   3.803   6.010   5.928  0.0964  0.0632 -1.0047
11092TIP3   OH254690   6.685   6.412  16.656 -0.4104  0.3534 -0.9098
11092TIP3    H154691   6.757   6.452  16.705  0.3441 -1.0621 -0.8468
11092TIP3    H254692   6.613   6.408  16.718 -0.1479  0.6165 -0.5847
11093TIP3   OH254693   3.626   5.112   0.069  0.4316 -0.1040  0.2612
11093TIP3    H154694   3.717   5.136   0.085  1.1799 -1.9114 -1.1681
11093TIP3    H254695   3.602   5.056   0.142  0.7461 -0.3442  0.1816
11094TIP3   OH254696   3.200   0.093  11.548 -0.7488 -0.2719  0.5598
11094TIP3    H154697   3.141   0.019  11.534 -0.1843 -0.9589  1.7628
11094TIP3    H254698   3.286   0.053  11.563  0.0623  0.7232 -1.3183
11095TIP3   OH254699   2.419   5.653  12.895 -0.4699  0.4062 -0.7236
11095TIP3    H154700   2.462   5.662  12.809  1.8127  0.1212  0.3420
11095TIP3    H254701   2.335   5.698  12.885 -0.4152  0.0201 -3.2294
11096TIP3   OH254702   0.303   4.351  16.261 -0.3053  0.1721 -0.1545
11096TIP3    H154703   0.385   4.400  16.266  1.1434 -2.3324  1.4128
11096TIP3    H254704   0.289   4.337  16.168 -0.0433  2.3733 -0.5513
11097TIP3   OH254705   6.484   0.258  17.201  0.2621  0.0356 -0.1630
11097TIP3    H154706   6.451   0.208  17.126  0.2530 -2.5462  1.4795
11097TIP3    H254707   6.415   0.321  17.221  0.0017  0.3198 -1.9369
11098TIP3   OH254708   1.066   2.943   2.097 -0.0560  0.5837 -0.8710
11098TIP3    H154709   1.029   2.867   2.051 -1.8667  0.5054  0.6717
11098TIP3    H254710   1.156   2.916   2.117 -0.6925 -1.2096 -0.2784
11099TIP3   OH254711   0.670   5.906   1.707 -0.2417  0.2104  0.1612
11099TIP3    H154712   0.746   5.958   1.732  0.8831 -1.2449 -0.1704
11099TIP3    H254713   0.644   5.861   1.788 -0.7372  0.6696  0.2640
11100TIP3   OH254714   5.481   3.341   1.683  0.4422  0.1768 -0.3245
11100TIP3    H154715   5.474   3.436   1.670 -0.0413  0.1842  0.0068
11100TIP3    H254716   5.397   3.306   1.654 -0.5793  0.1679  2.5625
11101TIP3   OH254717   0.022   2.471   1.131 -0.2988  0.3805  0.6561
11101TIP3    H154718   0.093   2.406   1.128 -0.8394 -0.1843 -0.5183
11101TIP3    H254719   0.019   2.500   1.222  0.7541 -0.3547  0.9362
11102TIP3   OH254720   2.216   1.086  14.068  0.5528 -0.1437  0.1927
11102TIP3    H154721   2.295   1.101  14.120  0.6034 -0.1475  0.1158
11102TIP3    H254722   2.238   1.119  13.981  0.7311 -0.8437 -0.0287
11103TIP3   OH254723   0.683   3.656  16.875 -0.2521  0.4270 -0.3805
11103TIP3    H154724   0.716   3.619  16.957 -2.1089 -1.9015 -0.6264
11103TIP3    H254725   0.719   3.599  16.807 -1.2367  0.4490 -0.9323
11104TIP3   OH254726   3.424   2.652  12.751 -0.1864 -0.1591  0.9228
11104TIP3    H154727   3.377   2.736  12.745 -0.3976 -0.4238 -1.4390
11104TIP3    H254728   3.439   2.640  12.845 -0.4832  2.3475  1.3279
11105TIP3   OH254729   4.527   2.479  16.358 -0.3393 -0.0528  0.1853
11105TIP3    H154730   4.487   2.423  16.425 -0.6163  0.4529  0.4475
11105TIP3    H254731   4.549   2.419  16.287 -0.4409 -0.5272  0.5493
11106TIP3   OH254732   3.836   0.977  10.496  0.3956  0.3053  0.8342
11106TIP3    H154733   3.910   0.962  10.437 -0.0815 -1.5357  0.6433
11106TIP3    H254734   3.773   1.026  10.443  0.4471 -0.3236  0.1799
11107TIP3   OH254735   4.512   5.467   5.268 -0.3964  0.6038  0.0732
11107TIP3    H154736   4.586   5.423   5.312 -0.3164  0.7188  0.0549
11107TIP3    H254737   4.522   5.443   5.176 -1.4031 -0.8367  0.3231
11108TIP3   OH254738   2.772   5.396  13.059 -0.6804  0.1145  0.2412
11108TIP3    H154739   2.866   5.390  13.074 -0.4134 -0.1067 -1.3978
11108TIP3    H254740   2.734   5.334  13.121  0.3254 -0.5571  0.2016
11109TIP3   OH254741   3.932   4.143   5.025  0.3434  0.2060  0.4757
11109TIP3    H154742   3.849   4.127   5.068  0.4793  0.3195  0.7837
11109TIP3    H254743   3.912   4.141   4.931  0.6656 -3.4944  0.4189
11110TIP3   OH254744   4.597   4.839   5.335 -0.3391  0.4036  0.0921
11110TIP3    H154745   4.625   4.760   5.289  0.7860  1.0383 -0.3363
11110TIP3    H254746   4.508   4.820   5.363 -0.1456 -0.9509 -0.1587
11111TIP3   OH254747   4.730   0.880  14.452 -0.6582 -0.0219 -0.5274
11111TIP3    H154748   4.717   0.935  14.374 -0.8953  1.1141  0.3055
11111TIP3    H254749   4.728   0.941  14.525 -1.1461 -1.1729  0.4371
11112TIP3   OH254750   4.349   1.266   3.801 -0.7351 -0.6036  0.1711
11112TIP3    H154751   4.356   1.216   3.883  1.2091 -0.0671  0.3469
11112TIP3    H254752   4.374   1.204   3.733  0.8774 -0.1471  0.3152
11113TIP3   OH254753   2.521   3.736  11.000 -0.0700  0.0678 -0.3330
11113TIP3    H154754   2.612   3.760  10.985 -0.0243  0.1229  0.0258
11113TIP3    H254755   2.470   3.807  10.959  0.0632  0.7737  0.6907
11114TIP3   OH254756   0.654   5.892  13.272  0.5524  0.6166 -0.5107
11114TIP3    H154757   0.641   5.957  13.203  0.6268 -1.0558 -2.1443
11114TIP3    H254758   0.566   5.872  13.303  0.5246  1.4506 -0.0367
11115TIP3   OH254759   6.333   2.312  11.630  0.5512 -0.3567 -0.3617
11115TIP3    H154760   6.323   2.375  11.559  1.5555 -0.5198 -0.6506
11115TIP3    H254761   6.247   2.269  11.636 -0.1138  0.9965 -0.1901
11116TIP3   OH254762   3.372   6.004   2.707 -0.2575 -0.1192 -0.1682
11116TIP3    H154763   3.323   6.058   2.769  0.5563 -0.8638  1.1486
11116TIP3    H254764   3.322   6.011   2.626 -1.5890  0.5402  0.6728
11117TIP3   OH254765   4.537   2.924   2.646 -0.2392  0.4356  0.2570
11117TIP3    H154766   4.503   2.989   2.584  0.8164 -1.3371 -2.2420
11117TIP3    H254767   4.461   2.872   2.671 -0.6065  0.9049  0.1249
11118TIP3   OH254768   5.716   3.197  16.469 -0.3570  0.4580 -0.2268
11118TIP3    H154769   5.639   3.148  16.500  0.7853 -0.4364  1.2550
11118TIP3    H254770   5.726   3.170  16.378 -0.6680 -0.8942  0.1248
11119TIP3   OH254771   0.871   3.673   3.680  0.0595 -0.8070  0.8371
11119TIP3    H154772   0.934   3.677   3.752  0.0820 -0.4177  0.7933
11119TIP3    H254773   0.858   3.764   3.654 -1.0913 -0.8104  1.3542
11120TIP3   OH254774   2.932   1.447   4.816 -0.0201  0.2577  0.4924
11120TIP3    H154775   2.968   1.377   4.761 -1.0703  0.8289 -0.9703
11120TIP3    H254776   2.841   1.422   4.830  0.0478  0.4983  1.3694
11121TIP3   OH254777   1.545   5.466   6.025 -0.2346  0.1320 -0.6350
11121TIP3    H154778   1.486   5.522   5.976  0.7048  0.3298 -1.5605
11121TIP3    H254779   1.487   5.404   6.070 -1.3885  2.9181  1.8374
11122TIP3   OH254780   0.447   6.557  17.205  0.4371 -0.5081  0.0178
11122TIP3    H154781   0.470   6.650  17.199  0.3509 -0.6080 -2.4545
11122TIP3    H254782   0.354   6.557  17.226  0.4836 -0.0243  0.2364
11123TIP3   OH254783   1.310   3.625   4.156  0.1886  0.0438  0.1517
11123TIP3    H154784   1.399   3.619   4.123 -0.1122  0.3139 -0.7207
11123TIP3    H254785   1.303   3.713   4.192  0.2265  0.0715  0.0907
11124TIP3   OH254786   6.480   0.692   4.430 -0.0051  0.1975 -0.2088
11124TIP3    H154787   6.562   0.655   4.461 -0.7005 -0.2771  1.1023
11124TIP3    H254788   6.470   0.656   4.341  0.4250 -0.9987  0.2185
11125TIP3   OH254789   1.904   6.284   2.305 -0.1052 -0.2453  0.7553
11125TIP3    H154790   1.937   6.367   2.339  1.1416  0.2585 -1.6071
11125TIP3    H254791   1.812   6.282   2.331  0.1035  1.4240  1.6620
11126TIP3   OH254792   5.349   4.189   1.851  0.1087  0.2247  0.1455
11126TIP3    H154793   5.391   4.158   1.771 -0.1224  0.6104 -0.1274
11126TIP3    H254794   5.356   4.116   1.912 -0.4224 -0.3574 -0.4850
11127TIP3   OH254795   0.293   3.290   3.077 -0.4824 -0.7334 -0.0661
11127TIP3    H154796   0.261   3.275   3.165 -1.4205  0.6986 -0.1591
11127TIP3    H254797   0.221   3.262   3.020 -1.1957  1.4326 -0.2910
11128TIP3   OH254798   6.284   2.806   1.932  0.2969 -0.5624  0.6090
11128TIP3    H154799   6.361   2.771   1.976  0.6420  0.9680  1.2897
11128TIP3    H254800   6.231   2.842   2.004 -0.0080  0.3192 -0.0520
11129TIP3   OH254801   5.300   2.655   0.765  0.2031 -0.1019  0.7352
11129TIP3    H154802   5.205   2.654   0.769  0.2047 -0.4279  0.7445
11129TIP3    H254803   5.325   2.746   0.779  0.0202 -0.4244  3.5487
11130TIP3   OH254804   1.305   5.099  16.884 -0.0621 -0.3117 -0.5456
11130TIP3    H154805   1.330   5.192  16.885  0.8659 -0.5724  0.2850
11130TIP3    H254806   1.371   5.057  16.830 -0.9681 -0.3727 -1.6388
11131TIP3   OH254807   0.738   3.048  14.426  0.0505 -0.1257 -0.7269
11131TIP3    H154808   0.821   3.091  14.409  0.7258 -0.8186  0.6829
11131TIP3    H254809   0.689   3.110  14.480  0.2996 -0.3640 -0.2193
11132TIP3   OH254810   5.756   3.251   1.056 -0.8148 -0.1398 -0.4765
11132TIP3    H154811   5.784   3.188   1.123  3.1945  0.5446 -1.4065
11132TIP3    H254812   5.722   3.325   1.106  0.5808 -0.3189  0.7624
11133TIP3   OH254813   5.337   5.445   1.729  0.8233 -0.3741  0.1522
11133TIP3    H154814   5.347   5.453   1.824 -0.0474 -0.3395  0.2409
11133TIP3    H254815   5.383   5.521   1.693 -1.2095  1.1407  0.6738
11134TIP3   OH254816   3.527   2.871   5.036  0.1879 -0.2138 -0.7683
11134TIP3    H154817   3.534   2.812   5.110  1.2477 -1.5210 -1.8755
11134TIP3    H254818   3.589   2.941   5.055 -1.4368  0.8255  0.7858
11135TIP3   OH254819   3.018   2.338  15.046  0.3832 -0.2546 -0.4369
11135TIP3    H154820   3.069   2.260  15.069  1.7790  0.9326  0.6149
11135TIP3    H254821   3.027   2.345  14.951  0.7843 -1.0307 -0.4556
11136TIP3   OH254822   3.554   3.789  11.660 -0.0650 -0.2511 -0.0979
11136TIP3    H154823   3.549   3.884  11.647  0.0704 -0.1518  0.5537
11136TIP3    H254824   3.632   3.776  11.714  0.7342 -0.8665 -1.3775
11137TIP3   OH254825   0.659   4.766  17.239 -0.4477 -0.0646 -0.0246
11137TIP3    H154826   0.673   4.700  17.307 -1.6711  0.0512  0.3679
11137TIP3    H254827   0.564   4.781  17.241 -0.1631  1.8589  0.0471
11138TIP3   OH254828   5.772   0.315   0.661 -0.2299  0.2531  0.2424
11138TIP3    H154829   5.801   0.321   0.752 -0.7882  0.3839  0.4141
11138TIP3    H254830   5.817   0.388   0.617  0.4807 -0.1487  0.2880
11139TIP3   OH254831   2.008   4.518  12.021 -0.1532 -0.4577 -0.8152
11139TIP3    H154832   1.933   4.459  12.031  0.6991 -1.6274 -1.2041
11139TIP3    H254833   1.969   4.605  12.012 -1.4404 -0.9838 -0.4680
11140TIP3   OH254834   6.329   3.869  13.262  0.0902  0.2239  0.5435
11140TIP3    H154835   6.247   3.820  13.251  0.4436 -0.8208  2.4699
11140TIP3    H254836   6.305   3.944  13.316 -0.4204  2.2002 -2.2929
11141TIP3   OH254837   0.111   3.126   5.687  0.4032  0.1329  0.1832
11141TIP3    H154838   0.114   3.033   5.664 -0.6476 -0.1777  1.2533
11141TIP3    H254839   0.076   3.169   5.609 -0.6225 -0.5721  0.2472
11142TIP3   OH254840   5.206   6.620   2.679  0.5694  0.3487  0.2637
11142TIP3    H154841   5.265   6.627   2.604 -0.6595  0.0266 -0.7417
11142TIP3    H254842   5.128   6.576   2.645 -0.0932  0.4038  1.6717
11143TIP3   OH254843   5.664   3.985   3.797 -1.0476  0.6011 -0.1405
11143TIP3    H154844   5.740   3.977   3.854 -1.5568 -0.7407  0.3629
11143TIP3    H254845   5.698   4.022   3.716  0.2025 -0.3394 -0.0436
11144TIP3   OH254846   2.163   3.276   0.700  0.0606  0.4237  0.1586
11144TIP3    H154847   2.238   3.278   0.641  0.2983  2.6424  0.5005
11144TIP3    H254848   2.192   3.224   0.775  0.3714 -0.8573 -0.8306
11145TIP3   OH254849   6.497   1.072  16.750  0.3281 -0.2588 -0.4161
11145TIP3    H154850   6.449   1.027  16.819  1.4402 -0.3903  0.2886
11145TIP3    H254851   6.498   1.164  16.777 -0.0465 -0.1557 -0.7399
11146TIP3   OH254852   1.336   6.689   5.811 -0.1449  0.1301  0.3150
11146TIP3    H154853   1.262   6.648   5.856  0.2912 -1.2006 -0.1649
11146TIP3    H254854   1.337   6.648   5.724 -0.3240  1.8966 -0.5576
11147TIP3   OH254855   4.777   0.778   5.303  0.2705 -0.0245 -0.0606
11147TIP3    H154856   4.762   0.750   5.393  0.6153  0.6497  0.2033
11147TIP3    H254857   4.742   0.706   5.250 -0.9011  0.0518  0.5952
11148TIP3   OH254858   2.391   1.563  14.440  0.0248 -0.5497 -0.1889
11148TIP3    H154859   2.423   1.567  14.349  0.3822 -0.2876 -0.0546
11148TIP3    H254860   2.433   1.638  14.483 -0.8232 -0.1617 -0.0225
11149TIP3   OH254861   3.310   6.043   4.420 -0.2324  0.0473  0.2220
11149TIP3    H154862   3.287   6.041   4.513  1.0552  1.1057  0.5794
11149TIP3    H254863   3.354   6.127   4.408 -0.2426 -0.1576 -1.3119
11150TIP3   OH254864   4.277   1.595  13.046  0.3911  0.3667  0.0480
11150TIP3    H154865   4.197   1.629  13.007  0.6791  0.2685 -0.6335
11150TIP3    H254866   4.290   1.510  13.005  0.5898  0.1706  0.5075
11151TIP3   OH254867   0.768   1.684   1.200  0.5987  0.2032 -0.0637
11151TIP3    H154868   0.678   1.675   1.170  0.3296 -2.1467  1.3709
11151TIP3    H254869   0.820   1.638   1.134  0.3978 -1.3427  0.8230
11152TIP3   OH254870   4.178   1.965   6.478  0.2897 -0.1490  0.7379
11152TIP3    H154871   4.109   1.950   6.413  0.8653  1.3901 -0.2521
11152TIP3    H254872   4.167   2.057   6.504  1.1282 -0.2817  1.5877
11153TIP3   OH254873   5.006   3.110  13.866  0.2101 -0.4900  0.4086
11153TIP3    H154874   5.089   3.153  13.845  0.0938 -1.0509 -1.2840
11153TIP3    H254875   4.940   3.177  13.854  0.3114 -0.3232  0.7638
11154TIP3   OH254876   2.760   2.746   2.331  0.0380 -0.3970  0.6411
11154TIP3    H154877   2.755   2.772   2.239  0.4585  0.0071  0.7349
11154TIP3    H254878   2.853   2.731   2.347 -0.1041 -1.0720  0.8328
11155TIP3   OH254879   3.538   2.479  11.575 -0.3400 -0.1858  0.3434
11155TIP3    H154880   3.462   2.519  11.533  0.0689 -0.4493 -0.6734
11155TIP3    H254881   3.512   2.389  11.593 -0.2600 -0.2787 -0.0139
11156TIP3   OH254882   3.167   2.323  14.045  0.0573 -0.1153  0.3312
11156TIP3    H154883   3.252   2.364  14.065  1.5915 -1.7818 -2.4634
11156TIP3    H254884   3.118   2.392  14.000  0.6459  0.2937  0.3023
11157TIP3   OH254885   4.015   4.941   1.597  0.1641 -0.3678 -0.2052
11157TIP3    H154886   4.004   5.034   1.577  1.5968 -0.2652 -0.5401
11157TIP3    H254887   3.933   4.916   1.640 -0.4454  0.9148 -0.5986
11158TIP3   OH254888   1.961   2.601  11.038  0.1474  0.3315 -0.8944
11158TIP3    H154889   1.906   2.597  11.116 -0.7574 -0.5436 -1.5793
11158TIP3    H254890   1.981   2.510  11.018  2.3494  0.6478 -0.3108
11159TIP3   OH254891   0.752   5.236  11.160 -0.1052 -0.4396  0.3465
11159TIP3    H154892   0.681   5.298  11.144  1.2711  1.1374  0.1779
11159TIP3    H254893   0.810   5.246  11.085  0.8047 -0.9790  0.9646
11160TIP3   OH254894   3.686   0.399  15.715 -0.2122  1.0998 -0.0456
11160TIP3    H154895   3.602   0.358  15.694  0.3731 -0.4228  0.4936
11160TIP3    H254896   3.664   0.489  15.738 -1.7041  0.7147  0.0653
11161TIP3   OH254897   5.441   3.256   3.227 -0.8479 -0.4008  0.2709
11161TIP3    H154898   5.351   3.286   3.213 -0.8861 -1.0180 -0.8991
11161TIP3    H254899   5.462   3.206   3.148  0.7500  0.2715  0.2557
11162TIP3   OH254900   2.841   1.907  10.436 -0.7075  0.1891  0.2367
11162TIP3    H154901   2.885   1.964  10.500 -2.0902  0.4537  0.9887
11162TIP3    H254902   2.773   1.963  10.398 -0.8580 -0.4147 -0.3946
11163TIP3   OH254903   0.185   4.298  13.758  0.1905  0.1143 -0.1980
11163TIP3    H154904   0.266   4.299  13.708  0.0635 -0.2332 -0.4182
11163TIP3    H254905   0.120   4.337  13.699 -0.1108 -0.9431 -0.5763
11164TIP3   OH254906   4.360   2.601  11.170  0.3700  0.8604 -0.1189
11164TIP3    H154907   4.381   2.561  11.086 -1.6342 -2.2941  0.7729
11164TIP3    H254908   4.285   2.657  11.151  0.4432  0.8079 -0.5819
11165TIP3   OH254909   1.759   0.797   4.939  0.1054  0.0987  0.2942
11165TIP3    H154910   1.820   0.727   4.960  1.8675  0.9877 -1.6351
11165TIP3    H254911   1.808   0.878   4.954 -0.9393  0.8712 -0.3144
11166TIP3   OH254912   0.424   0.163  10.933 -0.4210 -0.3877 -0.4860
11166TIP3    H154913   0.467   0.148  10.849 -0.9876  0.2641 -0.8986
11166TIP3    H254914   0.370   0.241  10.919 -1.3497 -0.9029  0.1668
11167TIP3   OH254915   6.382   5.434  14.502 -0.3744  0.0755 -0.1073
11167TIP3    H154916   6.476   5.421  14.493 -0.6566 -2.1422 -0.1962
11167TIP3    H254917   6.353   5.460  14.414  0.3645  2.2818  0.2900
11168TIP3   OH254918   0.487   6.198   2.998  0.3112  0.5156  0.0199
11168TIP3    H154919   0.538   6.151   3.063 -0.6956  0.3104  0.6694
11168TIP3    H254920   0.552   6.229   2.934  1.1028 -0.8037  0.1698
11169TIP3   OH254921   6.377   4.323  11.739 -0.3784 -0.1528  0.3217
11169TIP3    H154922   6.371   4.319  11.834 -0.1002 -1.4832  0.3020
11169TIP3    H254923   6.287   4.319  11.708 -0.4166 -0.7178  0.5067
11170TIP3   OH254924   3.486   1.929  11.820 -0.1245 -0.5222  0.1047
11170TIP3    H154925   3.460   1.905  11.909 -1.0620  0.0703 -0.0091
11170TIP3    H254926   3.441   2.012  11.803  1.0412  0.0195 -0.4577
11171TIP3   OH254927   4.643   4.078   6.680  0.3247 -0.5708 -0.4464
11171TIP3    H154928   4.637   3.999   6.733  1.3488  0.6628  1.5485
11171TIP3    H254929   4.732   4.110   6.695 -0.6424  1.9118  0.1675
11172TIP3   OH254930   1.568   2.753   4.755 -0.6087  0.5004 -0.2273
11172TIP3    H154931   1.572   2.840   4.795  0.3639 -0.0700  0.9367
11172TIP3    H254932   1.656   2.718   4.767 -1.3375 -1.1302  0.3872
11173TIP3   OH254933   5.063   5.345  14.751 -0.3610  0.2187 -0.4604
11173TIP3    H154934   5.147   5.321  14.712 -0.0339 -0.1409  0.4356
11173TIP3    H254935   5.005   5.272  14.730  0.7140 -1.5918  2.5099
11174TIP3   OH254936   0.162   2.473   4.578 -0.0414  0.1515 -0.6595
11174TIP3    H154937   0.235   2.488   4.638 -0.1202  1.1116 -0.8021
11174TIP3    H254938   0.085   2.505   4.625 -0.4435 -1.2279 -0.3454
11175TIP3   OH254939   1.245   1.559   0.034  0.4919  0.6638  0.0686
11175TIP3    H154940   1.317   1.513   0.077  2.0079 -0.4972 -3.5284
11175TIP3    H254941   1.282   1.643   0.007  0.6463 -0.0609 -2.0710
11176TIP3   OH254942   3.457   0.087   2.250 -0.4647 -0.4200 -0.8131
11176TIP3    H154943   3.491   0.045   2.171  1.4349  2.4999 -1.6327
11176TIP3    H254944   3.533   0.130   2.288 -1.9684  0.6908  0.9975
11177TIP3   OH254945   0.480   4.807   6.006  0.5280 -0.3776  0.2996
11177TIP3    H154946   0.553   4.837   6.059  0.4704  0.4189 -0.0707
11177TIP3    H254947   0.482   4.863   5.928  0.9845 -1.9119 -0.8324
11178TIP3   OH254948   0.335   6.715  11.025  0.1189 -0.1335  0.7317
11178TIP3    H154949   0.403   6.652  11.001 -0.1169 -0.4225  0.8161
11178TIP3    H254950   0.366   6.798  10.989  0.2636 -0.3651  0.3063
11179TIP3   OH254951   3.488   1.583  10.899 -0.4171  0.4595 -0.1398
11179TIP3    H154952   3.472   1.489  10.904 -0.4665  0.4606 -0.2683
11179TIP3    H254953   3.577   1.589  10.864  0.7690  0.4268  2.7616
11180TIP3   OH254954   3.674   2.857  13.316 -0.4517 -0.0811  0.1512
11180TIP3    H154955   3.616   2.780  13.319  1.4293 -1.5316 -0.0154
11180TIP3    H254956   3.645   2.911  13.389 -1.1117 -1.4497  0.9181
11181TIP3   OH254957   0.215   6.268  14.407 -0.6022 -0.2672 -0.0111
11181TIP3    H154958   0.137   6.299  14.363 -1.8982 -1.8039  1.1303
11181TIP3    H254959   0.213   6.311  14.493 -1.5393 -2.1869  0.9536
11182TIP3   OH254960   0.044   5.304  14.217  0.3728 -0.1072  0.4168
11182TIP3    H154961   0.022   5.282  14.307  0.8266 -1.2401  0.2594
11182TIP3    H254962   0.129   5.348  14.222 -1.1290  2.8076  0.8590
11183TIP3   OH254963   2.363   0.534  16.818 -0.4883 -1.4675 -0.2451
11183TIP3    H154964   2.355   0.499  16.906 -1.7877 -1.1558 -0.2309
11183TIP3    H254965   2.395   0.460  16.766 -1.9092 -2.2954  0.0415
11184TIP3   OH254966   1.068   2.163   0.571 -0.3743  0.1035 -0.7697
11184TIP3    H154967   1.054   2.254   0.595 -1.6669 -0.2157 -0.3127
11184TIP3    H254968   1.125   2.167   0.494 -1.9273  1.3616 -1.8668
11185TIP3   OH254969   1.043   1.772  15.971  0.0442  0.2558 -0.2401
11185TIP3    H154970   1.127   1.735  15.998 -0.5385 -0.1718  0.9817
11185TIP3    H254971   1.033   1.743  15.880  1.3677  0.5797 -0.5087
11186TIP3   OH254972   2.442   4.762   4.744  0.0447  0.2158 -0.2304
11186TIP3    H154973   2.532   4.736   4.762 -0.0829 -0.5084 -0.5794
11186TIP3    H254974   2.398   4.759   4.829  0.2566  0.1839 -0.1226
11187TIP3   OH254975   0.569   1.932  15.437  0.6341  0.1027 -0.2138
11187TIP3    H154976   0.520   1.936  15.519  0.8751 -0.1270 -0.0564
11187TIP3    H254977   0.620   2.013  15.435  0.3484  0.2789 -0.3131
11188TIP3   OH254978   1.218   2.428  13.339  0.4882 -0.4199 -0.2274
11188TIP3    H154979   1.190   2.468  13.257 -0.7245  1.1915  0.9331
11188TIP3    H254980   1.277   2.492  13.378 -1.1170  0.1113  1.4311
11189TIP3   OH254981   5.599   6.030  13.456  0.0160 -0.6844 -0.2207
11189TIP3    H154982   5.636   6.109  13.416  1.4163 -0.9674  0.4966
11189TIP3    H254983   5.581   6.056  13.547  1.0148 -1.3582  0.1715
11190TIP3   OH254984   1.444   0.003  17.228  0.3935 -0.0833  0.4861
11190TIP3    H154985   1.401  -0.005  17.314  1.7000  0.2078  1.1799
11190TIP3    H254986   1.436   0.096  17.206  2.0776  0.2981  1.3845
11191TIP3   OH254987   2.777   5.993  16.013  0.1152  0.2707 -0.7467
11191TIP3    H154988   2.773   5.943  15.931 -2.2793 -0.1217 -0.4139
11191TIP3    H254989   2.689   6.026  16.026  0.1411 -0.6531  2.2716
11192TIP3   OH254990   1.432   0.863   4.004 -0.2944  0.3585  0.7983
11192TIP3    H154991   1.427   0.799   4.076  1.4994 -1.9535 -1.0356
11192TIP3    H254992   1.482   0.818   3.936  0.0836  3.3645 -1.0014
11193TIP3   OH254993   1.942   5.018  15.112 -0.1325 -0.3582  0.0449
11193TIP3    H154994   1.999   5.075  15.163 -1.3084  1.5745 -0.7279
11193TIP3    H254995   1.901   4.961  15.177  1.4669 -0.6955  0.7736
11194TIP3   OH254996   4.188   1.698   1.380  0.2066  0.8860  0.6184
11194TIP3    H154997   4.120   1.759   1.351 -1.0199 -0.2407  1.0772
11194TIP3    H254998   4.252   1.754   1.425 -0.1187  2.0307 -0.3148
11195TIP3   OH254999   5.741   4.708   4.666  0.0183  0.0460  0.2167
11195TIP3    H155000   5.657   4.755   4.666  1.9715  3.7473 -1.4225
11195TIP3    H255001   5.805   4.773   4.694  2.6278 -2.2298 -0.2284
11196TIP3   OH255002   6.361   2.092  12.779 -1.1765 -0.1680 -0.0707
11196TIP3    H155003   6.418   2.043  12.720 -1.6282  0.4945 -1.0692
11196TIP3    H255004   6.287   2.034  12.794 -0.3237 -0.9716  1.1124
11197TIP3   OH255005   0.879   5.852  16.673  0.2958  0.4876 -0.3045
11197TIP3    H155006   0.916   5.859  16.761  0.3839  2.3809 -0.4646
11197TIP3    H255007   0.802   5.796  16.684  0.6642  0.1915  0.8642
11198TIP3   OH255008   5.808   4.542   2.778  0.2753  0.4009 -0.4599
11198TIP3    H155009   5.758   4.583   2.849  1.1789 -1.3434  1.2350
11198TIP3    H255010   5.840   4.615   2.726 -0.5652  1.7160  0.8180
11199TIP3   OH255011   4.945   4.395  15.473  0.0122 -0.4210 -0.6302
11199TIP3    H155012   4.964   4.361  15.386  2.7344 -1.1227  0.1694
11199TIP3    H255013   5.015   4.458  15.490 -1.3372  0.8152  0.4614
11200TIP3   OH255014   2.667   4.568   3.090  0.1308 -0.0608  0.6367
11200TIP3    H155015   2.716   4.597   3.014  0.5546 -0.6956  0.6662
11200TIP3    H255016   2.718   4.496   3.126 -0.3980 -0.1896  1.1452
11201TIP3   OH255017   2.495   6.115   5.807  0.0804 -0.5489  0.4965
11201TIP3    H155018   2.431   6.072   5.865  0.0428 -0.3806  0.5799
11201TIP3    H255019   2.475   6.080   5.720  0.1456 -0.8122  0.5874
11202TIP3   OH255020   4.787   0.022   2.231  0.3973 -0.0834  0.0175
11202TIP3    H155021   4.859   0.084   2.239 -1.2026  1.6576  1.3259
11202TIP3    H255022   4.767  -0.004   2.321 -1.3597  0.3554 -0.2258
11203TIP3   OH255023   0.625   1.020   0.181 -0.0907  0.2390 -0.2871
11203TIP3    H155024   0.682   1.092   0.158  2.3257 -1.4259  0.2673
11203TIP3    H255025   0.680   0.961   0.233 -1.5608 -2.6840 -1.8954
11204TIP3   OH255026   5.947   6.257   3.457  0.3503 -0.0706 -0.4837
11204TIP3    H155027   5.904   6.215   3.532  2.4041 -1.3560  0.0142
11204TIP3    H255028   5.951   6.349   3.481 -1.1633 -0.0899 -0.0761
11205TIP3   OH255029   3.684   6.258   3.645 -0.1612  0.2016 -0.1406
11205TIP3    H155030   3.734   6.256   3.563  0.5283 -0.4629  0.2841
11205TIP3    H255031   3.621   6.187   3.636 -1.3179  1.2992 -0.8440
11206TIP3   OH255032   4.258   4.575  16.188  0.6224 -0.1266  0.6411
11206TIP3    H155033   4.242   4.642  16.122  1.0573 -1.7104 -1.1340
11206TIP3    H255034   4.247   4.619  16.272 -3.3694  1.1228 -0.4645
11207TIP3   OH255035   0.675   5.362  16.786 -0.2249 -0.1245  0.6610
11207TIP3    H155036   0.638   5.320  16.708  1.0881  1.4743 -0.8543
11207TIP3    H255037   0.600   5.401  16.830 -0.4659  2.7771 -2.1797
11208TIP3   OH255038   6.672   4.349   0.958 -0.0455  0.2353  0.1448
11208TIP3    H155039   6.619   4.394   0.891 -0.4930 -0.5445 -0.0296
11208TIP3    H255040   6.760   4.348   0.922 -0.2508 -0.0219 -0.3595
11209TIP3   OH255041   6.599   4.479   4.665 -0.4403  0.3931  0.2557
11209TIP3    H155042   6.654   4.528   4.604 -1.7050  0.6607 -0.6916
11209TIP3    H255043   6.519   4.531   4.673 -0.1821  0.5151  2.3865
11210TIP3   OH255044   4.775   2.232   1.187 -0.4671  0.0619  0.2483
11210TIP3    H155045   4.800   2.208   1.098  1.3628  3.0325 -0.1015
11210TIP3    H255046   4.809   2.161   1.242  0.9815 -0.3426 -1.1358
11211TIP3   OH255047   3.260   6.226  13.709 -0.0603  0.1109  0.4282
11211TIP3    H155048   3.244   6.263  13.622  0.2503  1.6088  0.9981
11211TIP3    H255049   3.354   6.211  13.712  0.0334  0.7452  0.7654
11212TIP3   OH255050   1.818   0.725  14.482 -0.2835 -0.6641  0.0894
11212TIP3    H155051   1.816   0.630  14.474 -0.9377 -0.5018 -2.0558
11212TIP3    H255052   1.899   0.751  14.437  0.4544 -0.2602  1.6118
11213TIP3   OH255053   2.458   3.889  13.466 -0.2751 -0.3507  0.1341
11213TIP3    H155054   2.401   3.832  13.518  0.7792 -0.6722  0.9843
11213TIP3    H255055   2.510   3.936  13.532 -0.1367  0.5253 -0.6005
11214TIP3   OH255056   2.500   5.870  15.704  0.0851 -0.2503  0.4622
11214TIP3    H155057   2.509   5.865  15.609 -0.3285 -1.5689  0.4826
11214TIP3    H255058   2.589   5.885  15.737  0.3384 -0.5623 -0.0827
11215TIP3   OH255059   6.484   4.374  16.587  0.8555  0.1453 -0.0693
11215TIP3    H155060   6.417   4.438  16.610  1.4513  0.6095  0.4106
11215TIP3    H255061   6.453   4.334  16.506 -0.3431 -0.1423  0.5257
11216TIP3   OH255062   5.038   2.293  16.601 -0.0197 -0.7578 -0.1186
11216TIP3    H155063   4.974   2.323  16.666 -1.7843 -0.6144 -1.8765
11216TIP3    H255064   5.037   2.198  16.609 -2.7789 -0.9760 -2.1968
11217TIP3   OH255065   3.442   0.495   2.258  0.4118 -0.4068 -0.2605
11217TIP3    H155066   3.401   0.441   2.191 -1.2547 -0.1251  0.5042
11217TIP3    H255067   3.388   0.482   2.337  1.1026  0.8698  0.4485
11218TIP3   OH255068   4.210   4.606  11.619 -0.4043 -0.2564  0.7096
11218TIP3    H155069   4.138   4.657  11.580 -0.2122  0.2332  0.9824
11218TIP3    H255070   4.234   4.543  11.552 -1.3294 -0.6645  0.7491
11219TIP3   OH255071   6.648   2.912  13.962  0.0307 -0.0851  0.0443
11219TIP3    H155072   6.688   2.999  13.961  1.2754 -0.6310  0.9412
11219TIP3    H255073   6.601   2.906  13.879  2.0304  0.4920 -1.1693
11220TIP3   OH255074   5.018   1.534   5.317  0.0858  0.3361 -0.4053
11220TIP3    H155075   5.017   1.611   5.374 -0.0087 -0.7327  1.0822
11220TIP3    H255076   4.951   1.552   5.252 -0.0301  1.4581  0.0061
11221TIP3   OH255077   5.072   1.168   4.872 -0.1432  0.1444  0.1870
11221TIP3    H155078   5.014   1.114   4.926  1.2188 -0.5111  1.0109
11221TIP3    H255079   5.012   1.219   4.818 -1.5384  0.3559  1.8572
11222TIP3   OH255080   6.127   4.500  11.509 -0.1512  0.5333 -0.8474
11222TIP3    H155081   6.076   4.526  11.432 -1.7418 -0.2208 -0.0567
11222TIP3    H255082   6.070   4.518  11.583  0.3836 -1.1619 -0.0100
11223TIP3   OH255083   3.796   0.024  15.099 -0.0632 -0.2319  0.1918
11223TIP3    H155084   3.731  -0.046  15.103  0.9328 -1.2275 -0.4850
11223TIP3    H255085   3.796   0.051  15.007  0.8694 -0.6435  0.0588
11224TIP3   OH255086   1.282   5.212   2.193  0.1460  0.2232 -0.0761
11224TIP3    H155087   1.202   5.221   2.141  0.5301 -0.2417 -0.7728
11224TIP3    H255088   1.351   5.242   2.134  1.0639 -3.8302 -1.2760
11225TIP3   OH255089   2.240   2.600  15.032 -0.0251  0.3921 -0.5029
11225TIP3    H155090   2.191   2.559  14.960  2.8541  0.6819 -2.7378
11225TIP3    H255091   2.205   2.689  15.037 -0.9940  0.0292 -0.8320
11226TIP3   OH255092   1.407   0.216  11.637  0.5934  0.1850 -0.5386
11226TIP3    H155093   1.451   0.181  11.560  0.3904 -2.2883  0.4063
11226TIP3    H255094   1.314   0.202  11.620  0.5517 -0.4311  0.1574
11227TIP3   OH255095   4.979   0.634  16.225  0.1251 -0.8880 -0.4154
11227TIP3    H155096   5.048   0.646  16.159  0.8273 -0.2998  0.4153
11227TIP3    H255097   4.928   0.560  16.193  0.4289 -0.5781 -1.6551
11228TIP3   OH255098   6.457   3.546  16.083  0.1640 -0.4655 -0.1327
11228TIP3    H155099   6.368   3.521  16.108 -0.2051  1.2511  0.3547
11228TIP3    H255100   6.445   3.618  16.021  1.1994 -1.1117 -1.1058
11229TIP3   OH255101   6.451   4.070  15.897  0.6168 -0.8888  0.0775
11229TIP3    H155102   6.500   4.044  15.975  1.7138  0.3208 -0.1958
11229TIP3    H255103   6.483   4.011  15.829  1.1298 -0.6064  0.0742
11230TIP3   OH255104   0.287   4.266  12.227  0.2518  0.0596 -0.1732
11230TIP3    H155105   0.319   4.237  12.142  0.7695  0.3989 -0.0999
11230TIP3    H255106   0.227   4.197  12.255  1.4670 -0.9489  0.0053
11231TIP3   OH255107   2.574   6.636  11.408  0.2060 -0.2781  0.4396
11231TIP3    H155108   2.534   6.568  11.461  0.7131 -0.4611  0.5915
11231TIP3    H255109   2.530   6.630  11.323 -3.3581  2.5181  1.9401
11232TIP3   OH255110   3.120   1.497  11.691 -0.9241  0.1005 -0.0548
11232TIP3    H155111   3.175   1.421  11.712 -1.6725 -0.6861 -0.9373
11232TIP3    H255112   3.182   1.566  11.667 -0.3115 -0.8084 -1.1227
11233TIP3   OH255113   5.680   1.021   3.540  0.6757 -0.9289  0.5732
11233TIP3    H155114   5.732   1.102   3.543  1.0123 -1.1138 -0.1378
11233TIP3    H255115   5.736   0.958   3.493  0.6547 -1.7451  1.6290
11234TIP3   OH255116   0.924   3.553  15.033 -0.2772 -0.6009  0.1489
11234TIP3    H155117   1.016   3.571  15.052 -1.0249  1.9607  1.4968
11234TIP3    H255118   0.907   3.469  15.076  1.3730 -1.0416 -0.0180
11235TIP3   OH255119   5.576   6.051  17.074 -0.6691 -0.3779  0.0553
11235TIP3    H155120   5.570   6.146  17.058  1.5487 -0.3508 -0.8593
11235TIP3    H255121   5.558   6.041  17.167 -0.4458  1.0249  0.2701
11236TIP3   OH255122   2.639   1.468  11.218 -0.2867 -0.5579  0.7195
11236TIP3    H155123   2.710   1.494  11.276  1.9233  0.7558 -2.4268
11236TIP3    H255124   2.681   1.458  11.132 -4.0766  1.4816 -1.4923
11237TIP3   OH255125   4.892   1.026   0.335 -0.1166  0.8729 -0.2750
11237TIP3    H155126   4.901   1.052   0.427 -1.1443  0.6503 -0.1039
11237TIP3    H255127   4.965   1.069   0.291  1.9895 -1.2147  1.0895
11238TIP3   OH255128   3.141   2.966  12.970 -0.0395 -0.5547  0.1386
11238TIP3    H155129   3.125   2.873  12.987 -0.3920 -0.4991  0.0960
11238TIP3    H255130   3.055   3.007  12.973 -0.1637 -0.5979 -2.1412
11239TIP3   OH255131   5.194   4.648   1.976 -0.2812 -0.3523  0.1685
11239TIP3    H155132   5.180   4.659   1.882 -0.2362 -1.2719  0.0528
11239TIP3    H255133   5.139   4.574   2.000 -2.0647  1.3006  1.3030
11240TIP3   OH255134   4.272   3.574  13.623 -0.6079 -0.4940  0.4267
11240TIP3    H155135   4.337   3.524  13.574  0.2361  0.0925  0.9290
11240TIP3    H255136   4.222   3.509  13.672 -2.0344 -1.1643 -1.8727
11241TIP3   OH255137   6.396   0.355   0.311 -0.3933  0.0124  0.1920
11241TIP3    H155138   6.365   0.362   0.221 -2.4378 -0.4026  0.8417
11241TIP3    H255139   6.391   0.261   0.331  0.2538  0.0758  0.6781
11242TIP3   OH255140   5.385   2.689   5.882  0.0581 -0.0881 -0.2028
11242TIP3    H155141   5.466   2.701   5.833 -0.8994  3.1417 -1.0736
11242TIP3    H255142   5.413   2.676   5.972  1.6195 -1.7094 -0.8894
11243TIP3   OH255143   1.086   4.642  16.485 -0.4943 -0.5462  0.3303
11243TIP3    H155144   1.054   4.716  16.434  1.3601 -0.0929 -0.2381
11243TIP3    H255145   1.153   4.680  16.542  1.6074 -1.9926 -1.0826
11244TIP3   OH255146   4.654   4.548  12.648 -0.1107  0.6043 -0.3629
11244TIP3    H155147   4.674   4.456  12.632 -1.6686  0.5666 -2.3811
11244TIP3    H255148   4.733   4.595  12.622  0.4852 -0.1198  0.1223
11245TIP3   OH255149   5.471   2.145  11.178 -0.2886 -0.3162  0.4602
11245TIP3    H155150   5.437   2.230  11.151  0.2592  0.0393  0.8844
11245TIP3    H255151   5.553   2.164  11.222  1.1163 -1.2510 -1.6341
11246TIP3   OH255152   1.308   1.526   0.959 -0.3605 -0.0147 -0.0489
11246TIP3    H155153   1.367   1.454   0.937 -1.0652 -0.7167  0.3695
11246TIP3    H255154   1.225   1.503   0.917 -0.4606  0.7785 -0.3019
11247TIP3   OH255155   2.163   4.039   4.745 -0.6984  0.2389 -0.7296
11247TIP3    H155156   2.215   4.050   4.665  1.1686  1.3761  0.6009
11247TIP3    H255157   2.108   4.118   4.748 -1.9099 -0.5522 -1.6862
11248TIP3   OH255158   3.873   6.377   0.015 -0.1380  0.3363 -0.1424
11248TIP3    H155159   3.834   6.420  -0.061 -0.0390 -1.1586 -1.0647
11248TIP3    H255160   3.937   6.316  -0.022  0.3988  0.0722  1.1793
11249TIP3   OH255161   6.102   2.379  13.794  0.5926  0.4036  0.1202
11249TIP3    H155162   6.103   2.380  13.890  2.2408 -0.2465  0.1309
11249TIP3    H255163   6.071   2.291  13.771  4.1497 -0.9505  0.1239
11250TIP3   OH255164   2.852   1.492   2.663 -0.0469 -0.5961 -0.4876
11250TIP3    H155165   2.820   1.573   2.622 -1.0445 -1.4900 -1.5102
11250TIP3    H255166   2.900   1.447   2.593  0.8447 -0.6960  0.1916
11251TIP3   OH255167   6.289   5.659   6.588 -0.7079 -0.6270  0.2913
11251TIP3    H155168   6.307   5.681   6.497  1.5294  0.9427  1.0628
11251TIP3    H255169   6.229   5.727   6.618  1.3523  0.9446  0.9495
11252TIP3   OH255170   2.029   1.801   3.606  0.3437 -0.0315  0.0865
11252TIP3    H155171   2.022   1.813   3.511 -3.6713 -0.9168  0.2185
11252TIP3    H255172   2.079   1.719   3.616 -1.7011 -1.5113 -1.3753
11253TIP3   OH255173   1.173   2.058  13.349 -0.7564 -0.3770  0.0044
11253TIP3    H155174   1.203   2.042  13.260 -1.2173  0.7419 -0.3585
11253TIP3    H255175   1.123   1.980  13.372 -2.4204  0.2068 -1.5081
11254TIP3   OH255176   0.177   2.578  12.712 -0.3299  0.4620  0.3776
11254TIP3    H155177   0.203   2.503  12.658 -1.4644 -1.0328  1.8544
11254TIP3    H255178   0.254   2.597  12.766 -0.0668  0.2937  0.0608
11255TIP3   OH255179   6.744   5.240   0.823 -0.3213 -0.0223  0.7479
11255TIP3    H155180   6.740   5.157   0.776  0.3309 -0.0264  0.7006
11255TIP3    H255181   6.666   5.288   0.793 -0.5765 -0.5224  0.6082
11256TIP3   OH255182   3.692   4.795  13.425 -0.3283 -0.7650 -0.3364
11256TIP3    H155183   3.749   4.761  13.494 -1.5673  1.6911  2.0137
11256TIP3    H255184   3.745   4.793  13.346  2.9184  1.1262  1.6926
11257TIP3   OH255185   6.120   0.804  13.424  0.4087  0.0372 -0.0016
11257TIP3    H155186   6.124   0.766  13.512  0.4970 -0.4499 -0.2180
11257TIP3    H255187   6.195   0.767  13.378  0.4937  0.4681 -0.2158
11258TIP3   OH255188   6.152   5.606  10.932  0.0722  0.1242  0.9765
11258TIP3    H155189   6.099   5.528  10.917 -1.2446  0.8628  1.6618
11258TIP3    H255190   6.094   5.679  10.910  0.9124  0.9404  1.4133
11259TIP3   OH255191   0.802   1.449  13.074 -0.8108  0.1732  0.5257
11259TIP3    H155192   0.871   1.458  13.008  0.7306 -2.0152  1.7559
11259TIP3    H255193   0.725   1.422  13.025 -0.3635  0.9678 -0.6584
11260TIP3   OH255194   6.100   5.311   5.118  0.2159  0.4428 -0.2466
11260TIP3    H155195   6.009   5.335   5.136  0.1330 -0.8752  1.2452
11260TIP3    H255196   6.147   5.395   5.121 -1.1494  1.3414 -2.6261
11261TIP3   OH255197   5.333   1.328   1.622 -0.7445  0.5323 -0.6354
11261TIP3    H155198   5.376   1.407   1.590 -0.3221  0.5898  0.0551
11261TIP3    H255199   5.289   1.355   1.703 -0.4817  0.0374 -0.3212
11262TIP3   OH255200   6.140   0.455   1.602 -0.0078 -0.0763  0.1148
11262TIP3    H155201   6.212   0.483   1.659 -0.0621 -1.5045  0.9012
11262TIP3    H255202   6.180   0.446   1.515  0.3781  0.7501  0.1962
11263TIP3   OH255203   1.920   0.912   0.444  0.2974 -0.2617  0.2724
11263TIP3    H155204   2.016   0.913   0.439  0.3042  1.0747  0.3289
11263TIP3    H255205   1.892   0.867   0.365  0.9198  1.8671 -1.2298
11264TIP3   OH255206   1.314   0.414  16.394  0.2355  0.1303 -0.0806
11264TIP3    H155207   1.221   0.429  16.374  0.0680  1.5629  1.6482
11264TIP3    H255208   1.360   0.440  16.314 -0.7501  0.9352 -0.4082
11265TIP3   OH255209   3.296   6.671  11.337  0.2247 -0.2226 -0.0847
11265TIP3    H155210   3.380   6.651  11.379  0.4706  2.6889  0.8888
11265TIP3    H255211   3.231   6.646  11.403  0.3383 -1.3839 -0.3912
11266TIP3   OH255212   5.855   5.554   2.813  0.5395 -0.3991  0.7092
11266TIP3    H155213   5.902   5.638   2.815  0.0436 -0.0709 -0.6862
11266TIP3    H255214   5.763   5.579   2.814  0.3888 -0.9612  0.9540
11267TIP3   OH255215   4.298   4.183   4.374  0.1588 -0.1553  0.0038
11267TIP3    H155216   4.392   4.162   4.374 -0.3601 -2.5434  0.9657
11267TIP3    H255217   4.266   4.149   4.291  0.0477  0.2700 -0.1289
11268TIP3   OH255218   5.339   1.169   2.224  0.0286 -0.3804 -0.1258
11268TIP3    H155219   5.272   1.190   2.158 -0.3232 -0.1826  0.2926
11268TIP3    H255220   5.416   1.218   2.195  0.1163 -0.9270 -0.8308
11269TIP3   OH255221   3.841   1.150  13.547  0.4341  0.7128  0.0532
11269TIP3    H155222   3.856   1.177  13.638 -0.2101 -0.5671  0.5529
11269TIP3    H255223   3.863   1.228  13.495  2.2598  0.9781  1.1906
11270TIP3   OH255224   6.574   0.917  13.058 -0.5415 -0.8276 -0.1984
11270TIP3    H155225   6.619   0.965  13.128  1.1267 -2.1353 -0.3334
11270TIP3    H255226   6.607   0.956  12.977 -0.7689 -0.8127 -0.2843
11271TIP3   OH255227   2.696   3.545  11.780 -0.4824 -0.4851  0.2729
11271TIP3    H155228   2.781   3.515  11.813  0.3530  0.6200 -0.8363
11271TIP3    H255229   2.674   3.482  11.711 -0.2345 -0.3811  0.0970
11272TIP3   OH255230   4.557   6.592  11.989  0.6335 -0.0350  0.6105
11272TIP3    H155231   4.490   6.585  11.921  1.3185  2.9371 -0.4244
11272TIP3    H255232   4.509   6.624  12.066  0.6737  1.1667  0.1447
11273TIP3   OH255233   4.486   1.614  16.902 -0.6444  0.3323 -0.1435
11273TIP3    H155234   4.460   1.547  16.840 -1.4012  0.6119 -0.1253
11273TIP3    H255235   4.442   1.693  16.872 -1.5569  0.3266  1.1259
11274TIP3   OH255236   0.518   4.328  16.532 -0.4443 -0.3439  0.1032
11274TIP3    H155237   0.532   4.380  16.453 -0.3489 -0.4519  0.0494
11274TIP3    H255238   0.500   4.392  16.601 -0.1709 -0.2318  0.0684
11275TIP3   OH255239   1.113   4.372  15.289 -0.2461  0.0731  0.1256
11275TIP3    H155240   1.121   4.294  15.234 -2.1265  0.8828 -1.3777
11275TIP3    H255241   1.174   4.435  15.250 -0.1380 -0.0101  0.1606
11276TIP3   OH255242   6.239   4.466   4.812  0.4502 -0.1422 -0.2978
11276TIP3    H155243   6.147   4.457   4.837  0.4407 -0.4972 -0.4490
11276TIP3    H255244   6.275   4.378   4.825  0.7131 -0.0563 -0.4556
11277TIP3   OH255245   3.954   3.573   2.559  0.4884 -0.0020 -0.5010
11277TIP3    H155246   3.899   3.515   2.613 -2.8381  2.1118 -1.4543
11277TIP3    H255247   3.928   3.552   2.469  2.9517 -0.5682 -1.0965
11278TIP3   OH255248   1.208   5.784  13.517  0.0731  0.6448  0.1330
11278TIP3    H155249   1.291   5.778  13.469  0.1358  1.3448  0.1505
11278TIP3    H255250   1.234   5.792  13.608 -0.0444 -0.4836  0.2806
11279TIP3   OH255251   1.706   2.165  15.676 -0.2037 -0.2682 -0.4134
11279TIP3    H155252   1.706   2.088  15.732 -0.0048 -1.4168 -1.9647
11279TIP3    H255253   1.673   2.236  15.732  0.4894 -1.2697  1.2859
11280TIP3   OH255254   3.473   4.117  12.605 -0.0940  0.5227 -0.7383
11280TIP3    H155255   3.394   4.065  12.588 -0.0451 -0.1513  1.0095
11280TIP3    H255256   3.449   4.206  12.579 -1.8293  0.5416  0.8411
11281TIP3   OH255257   4.958   5.811  12.784  0.0173  0.0129 -0.1168
11281TIP3    H155258   5.019   5.739  12.799  0.6916  0.8745  1.4026
11281TIP3    H255259   5.005   5.870  12.724  0.4087  0.3304  0.4977
11282TIP3   OH255260   3.999   6.205   4.208 -0.5290 -0.0834  1.1083
11282TIP3    H155261   3.988   6.258   4.130 -0.2253  0.4856  1.4484
11282TIP3    H255262   4.055   6.133   4.181 -0.3611  0.1556  0.8259
11283TIP3   OH255263   2.754   2.278   4.188  0.1821 -0.0457 -0.5839
11283TIP3    H155264   2.751   2.274   4.093 -0.6081  2.4986 -0.7125
11283TIP3    H255265   2.695   2.350   4.211  0.1049 -0.8268  1.8449
11284TIP3   OH255266   2.376   5.760  13.483  0.1040 -0.4908  0.5301
11284TIP3    H155267   2.309   5.693  13.492  0.1337 -1.0545 -2.7083
11284TIP3    H255268   2.336   5.840  13.519 -1.8814 -1.0824 -0.3055
11285TIP3   OH255269   4.461   3.575   6.117  0.0653  1.0474  0.1769
11285TIP3    H155270   4.530   3.573   6.050 -1.3274  0.9627 -1.2922
11285TIP3    H255271   4.477   3.496   6.169  0.7430  0.7323 -0.4898
11286TIP3   OH255272   0.068   2.266  11.226 -0.2475 -0.3111 -0.4456
11286TIP3    H155273   0.122   2.306  11.158 -1.4529  1.4778 -0.3755
11286TIP3    H255274   0.006   2.211  11.177 -0.0082 -0.3776 -0.6779
11287TIP3   OH255275   0.127   3.519   0.933  0.3579  0.6402  0.3656
11287TIP3    H155276   0.074   3.448   0.899 -0.6478  1.1180  0.9044
11287TIP3    H255277   0.212   3.509   0.890 -0.2944  0.1097 -0.8112
11288TIP3   OH255278   0.748   5.379  16.369  0.8308 -0.6496 -0.2660
11288TIP3    H155279   0.815   5.310  16.372  0.3004 -1.1145  1.2384
11288TIP3    H255280   0.707   5.369  16.283  2.2721 -0.7447 -0.9723
11289TIP3   OH255281   2.905   0.799   2.781  0.5217 -0.3697 -0.5971
11289TIP3    H155282   2.880   0.765   2.867 -0.4510 -0.5548 -0.9418
11289TIP3    H255283   2.976   0.861   2.799  1.0259 -1.1838  0.2283
11290TIP3   OH255284   1.309   1.601  11.783  0.5504  0.0168 -0.0470
11290TIP3    H155285   1.350   1.564  11.704  1.0001 -2.0493  1.1098
11290TIP3    H255286   1.217   1.612  11.759  0.5271 -1.3219 -0.6186
11291TIP3   OH255287   0.620   6.633   1.147 -0.0391  0.3663  0.1874
11291TIP3    H155288   0.550   6.656   1.208 -0.3599  1.4197 -0.5538
11291TIP3    H255289   0.580   6.641   1.060  1.1918  1.6931 -0.2791
11292TIP3   OH255290   3.656   2.760  15.232  0.5155 -0.5692  0.6162
11292TIP3    H155291   3.741   2.759  15.188 -0.5798  0.9180 -1.6134
11292TIP3    H255292   3.596   2.796  15.167 -1.5855 -0.3992  2.6003
11293TIP3   OH255293   1.526   3.520   5.181  0.1661 -0.4135  0.0894
11293TIP3    H155294   1.439   3.480   5.175 -0.1466 -0.1115  2.3930
11293TIP3    H255295   1.528   3.584   5.109 -2.1265  0.7469  1.0225
11294TIP3   OH255296   2.940   2.939  15.972  0.1477 -0.4219 -0.2155
11294TIP3    H155297   3.019   2.891  15.997 -0.7821 -2.6876 -1.5455
11294TIP3    H255298   2.884   2.874  15.931 -3.0519  0.8224  1.9782
11295TIP3   OH255299   6.686   3.571   6.148  0.5366  0.1666 -0.1019
11295TIP3    H155300   6.670   3.490   6.196  1.8474 -0.5749 -0.9027
11295TIP3    H255301   6.734   3.626   6.209 -0.4611  0.4088  0.4868
11296TIP3   OH255302   1.173   2.885  17.237  0.5621  0.3048 -0.3614
11296TIP3    H155303   1.233   2.817  17.203 -0.5616 -0.7898 -0.1836
11296TIP3    H255304   1.144   2.851  17.322 -0.7235  0.5763 -0.6857
11297TIP3   OH255305   6.014   4.721   3.640 -0.1139 -0.0052  0.2284
11297TIP3    H155306   6.089   4.675   3.603  0.3196  1.5830 -0.9202
11297TIP3    H255307   6.035   4.731   3.732  0.1525 -1.3673  0.3281
11298TIP3   OH255308   0.448   6.086   3.822  0.4795  0.1655 -0.3599
11298TIP3    H155309   0.534   6.122   3.798  0.9315  0.6391  1.8774
11298TIP3    H255310   0.467   5.997   3.851  0.3532  0.5350  0.9019
11299TIP3   OH255311   4.526   5.860  15.094  0.1830 -0.5652  0.8408
11299TIP3    H155312   4.461   5.925  15.119  0.6778 -0.1647  1.0916
11299TIP3    H255313   4.567   5.834  15.177  0.8301 -0.2930  0.6051
11300TIP3   OH255314   3.026   2.816   3.008  0.4512  0.4695  0.4421
11300TIP3    H155315   2.977   2.766   3.073  0.9834 -0.8714 -0.1729
11300TIP3    H255316   3.038   2.902   3.048 -3.7777  1.3855 -0.0025
11301TIP3   OH255317   2.013   3.749  13.834 -0.0523  0.0943 -0.2879
11301TIP3    H155318   1.932   3.757  13.784 -0.1017  0.9547 -0.0723
11301TIP3    H255319   1.985   3.738  13.925 -0.0031 -2.8055 -0.5544
11302TIP3   OH255320   6.678   0.385   4.635 -0.5548 -0.1702  0.4939
11302TIP3    H155321   6.631   0.356   4.556 -1.0293  0.1775  0.6473
11302TIP3    H255322   6.695   0.304   4.683 -1.2068 -0.2826  0.5471
11303TIP3   OH255323   4.288   0.162   1.954 -0.3744  0.4428  0.8098
11303TIP3    H155324   4.202   0.190   1.924 -0.7753  0.8571  2.3100
11303TIP3    H255325   4.325   0.239   1.997  2.0638  1.2464 -2.5463
11304TIP3   OH255326   2.117   3.247   2.020 -0.0094  0.4596 -0.4680
11304TIP3    H155327   2.118   3.182   2.090 -0.7185  0.4615 -0.4577
11304TIP3    H255328   2.025   3.259   1.999  0.0999  1.6413 -0.3032
11305TIP3   OH255329   2.624   0.566  11.343 -0.0286  0.2429  0.3493
11305TIP3    H155330   2.640   0.649  11.299 -0.1616  0.0201 -0.1130
11305TIP3    H255331   2.692   0.561  11.410 -0.1994  0.8637  0.5767
11306TIP3   OH255332   0.906   0.315  11.870  0.5475 -0.6845 -0.4530
11306TIP3    H155333   0.915   0.251  11.941 -0.6675 -2.1062 -1.5339
11306TIP3    H255334   0.834   0.371  11.897  1.3449 -0.0148  0.3100
11307TIP3   OH255335   5.342   5.061   0.729  0.2688  0.0929 -0.4766
11307TIP3    H155336   5.360   5.084   0.820  0.4743 -0.2809 -0.4232
11307TIP3    H255337   5.255   5.097   0.712  0.5151  0.7752 -0.3440
11308TIP3   OH255338   3.545   1.414   3.164 -0.7984  0.0902 -0.1546
11308TIP3    H155339   3.568   1.410   3.257 -0.2832  2.2169 -0.1553
11308TIP3    H255340   3.454   1.383   3.160 -0.2194 -1.7994  0.7857
11309TIP3   OH255341   6.583   3.913  15.694 -0.0965 -0.4216  0.2946
11309TIP3    H155342   6.666   3.905  15.647  0.1959 -0.8187  0.8645
11309TIP3    H255343   6.518   3.876  15.635  0.2222 -0.6328  0.0729
11310TIP3   OH255344   5.381   5.956  13.309  0.0944  0.3591 -0.0108
11310TIP3    H155345   5.450   5.984  13.368 -0.2044  0.9150  0.0825
11310TIP3    H255346   5.382   5.861  13.314 -0.2586  0.4148  1.2654
11311TIP3   OH255347   6.004   5.728   2.575  0.1967 -0.2719  0.0616
11311TIP3    H155348   5.952   5.807   2.591  0.4211  0.1887 -1.3964
11311TIP3    H255349   6.065   5.724   2.649  1.3029  1.8686 -0.6956
11312TIP3   OH255350   5.779   4.241   4.098 -0.2406 -0.1590 -0.6699
11312TIP3    H155351   5.737   4.317   4.138  2.0826  0.6034  0.4151
11312TIP3    H255352   5.742   4.166   4.145 -0.6974  0.4606 -0.0263
11313TIP3   OH255353   4.407   5.262   4.286  0.1550 -0.0178  0.0679
11313TIP3    H155354   4.381   5.354   4.285 -1.1739 -0.3694  1.0193
11313TIP3    H255355   4.474   5.255   4.218  3.0506  2.4330  2.5416
11314TIP3   OH255356   0.407   1.334  14.620  0.4973  0.2263  0.0705
11314TIP3    H155357   0.430   1.244  14.641 -1.5569 -0.1155  0.9899
11314TIP3    H255358   0.491   1.378  14.606  1.4984 -1.8919 -0.6851
11315TIP3   OH255359   1.206   1.506   2.354 -0.2602 -1.5180 -1.4843
11315TIP3    H155360   1.115   1.503   2.385 -0.1622  0.6865 -0.8616
11315TIP3    H255361   1.210   1.587   2.302  1.5547 -1.1550 -0.7960
11316TIP3   OH255362   4.936   5.411  16.964  0.5591 -0.4982 -0.0457
11316TIP3    H155363   4.996   5.482  16.989 -1.9872  1.3361  1.1880
11316TIP3    H255364   4.892   5.444  16.886  0.9548 -1.7058 -0.7855
11317TIP3   OH255365   3.371   1.350  14.223  0.1577 -1.0004  0.0669
11317TIP3    H155366   3.298   1.408  14.242  0.6295 -0.4631  0.2601
11317TIP3    H255367   3.333   1.279  14.171 -0.5035 -0.7470  0.2060
11318TIP3   OH255368   5.394   0.232  13.828  0.2138  0.3747  0.2796
11318TIP3    H155369   5.363   0.152  13.870 -0.8307  0.5800 -0.0845
11318TIP3    H255370   5.353   0.231  13.741  0.7444  0.9618  0.0152
11319TIP3   OH255371   3.251   0.640  12.295  0.4054  0.1192  0.4901
11319TIP3    H155372   3.221   0.563  12.247 -3.0636  1.6071  0.0601
11319TIP3    H255373   3.315   0.607  12.357 -1.1296 -3.1506  0.4411
11320TIP3   OH255374   3.146   4.671   0.202 -0.6346  0.0129 -0.2895
11320TIP3    H155375   3.186   4.585   0.187 -0.5176 -0.1018  0.6689
11320TIP3    H255376   3.174   4.724   0.127  1.9144  0.1449  0.7153
11321TIP3   OH255377   3.920   6.355   6.032  0.4187  0.0127 -0.2515
11321TIP3    H155378   3.880   6.387   5.952 -2.1818  0.0337  0.9899
11321TIP3    H255379   3.852   6.301   6.073  1.5276  0.3461  2.1519
11322TIP3   OH255380   6.773   1.225  14.143  0.2420  0.2658  0.1599
11322TIP3    H155381   6.822   1.143  14.135  1.2350  0.9485 -0.7656
11322TIP3    H255382   6.830   1.282  14.195 -0.7504  0.1501  1.4098
11323TIP3   OH255383   0.873   0.437   3.458 -0.6021 -0.1759 -0.2163
11323TIP3    H155384   0.828   0.521   3.469 -0.2162 -0.0832  0.7255
11323TIP3    H255385   0.802   0.374   3.441 -1.3312 -0.3643  3.1030
11324TIP3   OH255386   1.219   0.647   0.180  0.3674  0.1776  0.3581
11324TIP3    H155387   1.206   0.741   0.167 -0.2114 -0.2299 -2.1025
11324TIP3    H255388   1.151   0.605   0.128  2.4977 -1.6697 -1.0434
11325TIP3   OH255389   2.865   5.040   0.311  0.3141 -0.1245 -0.1996
11325TIP3    H155390   2.955   5.010   0.313  0.2494 -0.3438 -0.6245
11325TIP3    H255391   2.813   4.960   0.319  0.1685  0.1462  1.7690
11326TIP3   OH255392   0.155   4.418  14.175 -1.1528 -0.7872  0.2462
11326TIP3    H155393   0.216   4.348  14.150  1.2021  1.6338 -1.1185
11326TIP3    H255394   0.177   4.439  14.266 -1.7773 -1.7253  0.6140
11327TIP3   OH255395   1.044   4.829  11.548 -0.5122  0.1073 -0.8641
11327TIP3    H155396   1.038   4.845  11.454  1.5860 -3.5992 -1.7102
11327TIP3    H255397   1.123   4.875  11.576 -0.2967 -0.0516 -1.2159
11328TIP3   OH255398   2.717   0.235   3.044  0.0675  0.1255  0.0273
11328TIP3    H155399   2.716   0.296   3.118  0.2019 -1.0628  1.0231
11328TIP3    H255400   2.741   0.289   2.968 -1.3862  1.6253  0.5908
11329TIP3   OH255401   4.744   3.833  16.508 -0.2621  0.3527 -0.2540
11329TIP3    H155402   4.817   3.891  16.486 -0.0695  0.9299  1.7467
11329TIP3    H255403   4.742   3.768  16.438  2.0126  0.4923 -0.4777
11330TIP3   OH255404   2.929   1.625  12.713 -0.1848 -0.4544  0.4408
11330TIP3    H155405   2.994   1.639  12.781  0.2517  0.9785 -0.2586
11330TIP3    H255406   2.979   1.600  12.635 -0.5303 -0.0808  0.0969
11331TIP3   OH255407   3.173   4.856  11.404 -0.3537  0.2497  0.0213
11331TIP3    H155408   3.136   4.768  11.396 -0.6421  0.2858  0.9063
11331TIP3    H255409   3.108   4.913  11.364  0.9569 -0.1807 -2.8350
11332TIP3   OH255410   1.452   2.161   2.284  0.0917 -0.2635  0.2621
11332TIP3    H155411   1.407   2.113   2.214  1.4687 -1.7804  0.3811
11332TIP3    H255412   1.537   2.182   2.247 -0.0695  1.0728  0.6420
11333TIP3   OH255413   4.890   1.478  16.718  0.4741  0.4353  0.9157
11333TIP3    H155414   4.906   1.563  16.760  2.1244  0.3490  0.4919
11333TIP3    H255415   4.908   1.414  16.786  1.0157  0.3663  0.7070
11334TIP3   OH255416   5.714   4.436   2.075 -0.2627  1.0903 -0.2072
11334TIP3    H155417   5.783   4.413   2.012 -0.0536 -1.5784  0.9365
11334TIP3    H255418   5.746   4.515   2.117  1.4528  0.6885 -0.6988
11335TIP3   OH255419   5.830   6.757  14.974  0.0386  0.1109 -0.2265
11335TIP3    H155420   5.924   6.778  14.977  0.1091 -0.2959  3.0615
11335TIP3    H255421   5.826   6.664  14.953  0.3680  0.1581 -0.4932
11336TIP3   OH255422   4.483   4.053   3.938  0.6358 -0.0323 -0.2459
11336TIP3    H155423   4.432   3.983   3.899  1.4393 -0.2868 -0.8486
11336TIP3    H255424   4.564   4.056   3.887  1.1164  0.5384  0.5251
11337TIP3   OH255425   1.750   4.436  12.019  0.3359  0.6690 -0.8902
11337TIP3    H155426   1.714   4.438  12.107 -1.1131  2.0503 -1.4896
11337TIP3    H255427   1.677   4.409  11.964  1.5484 -1.4145 -1.5486
11338TIP3   OH255428   2.833   2.543  14.945 -0.0609 -0.0471  0.0574
11338TIP3    H155429   2.883   2.513  15.021  0.9204 -0.8545 -0.8797
11338TIP3    H255430   2.821   2.637  14.959  0.0414 -0.2123  1.2413
11339TIP3   OH255431   1.585   5.233   4.300 -0.0608  0.1654  0.6189
11339TIP3    H155432   1.507   5.246   4.246 -0.2465 -2.4960  0.1648
11339TIP3    H255433   1.658   5.248   4.241 -0.2622 -0.6339  0.1566
11340TIP3   OH255434   4.925   1.231  14.212 -0.0613 -0.4457 -0.3812
11340TIP3    H155435   4.840   1.265  14.185 -0.2731  0.4217  1.3172
11340TIP3    H255436   4.905   1.160  14.273  0.4350 -0.7427 -0.5534
11341TIP3   OH255437   1.762   1.014   5.386  0.3830  0.2188  0.1516
11341TIP3    H155438   1.778   1.054   5.300  1.9438  1.4739  1.0142
11341TIP3    H255439   1.759   1.087   5.447 -0.0787 -0.7222  1.2826
11342TIP3   OH255440   4.277   2.253   4.098 -0.1395  0.4413 -0.0067
11342TIP3    H155441   4.351   2.311   4.082  0.3623 -0.1504  0.1368
11342TIP3    H255442   4.268   2.252   4.194  1.2869 -1.4620  0.1390
11343TIP3   OH255443   1.064   4.046  14.372  0.4265  0.4002  0.2795
11343TIP3    H155444   0.985   4.072  14.324  1.1610  0.0041 -1.1709
11343TIP3    H255445   1.061   4.099  14.451 -0.5603  1.4420 -0.4204
11344TIP3   OH255446   0.191   4.058  15.212 -0.3675  0.1749 -0.0676
11344TIP3    H155447   0.219   4.133  15.264 -0.1538  0.0108  0.0514
11344TIP3    H255448   0.270   4.006  15.200 -0.6025 -0.2391  0.1909
11345TIP3   OH255449   5.148   3.014  17.033 -0.2195 -0.8261  0.3353
11345TIP3    H155450   5.217   3.002  17.097 -0.4320 -0.7723  0.5717
11345TIP3    H255451   5.138   2.928  16.992  0.9767 -0.4787 -0.6996
11346TIP3   OH255452   1.316   3.863   3.665 -0.2807  0.2094  0.1698
11346TIP3    H155453   1.283   3.938   3.616 -0.8669 -0.5075 -0.5342
11346TIP3    H255454   1.311   3.789   3.604  2.3948  0.0127  0.1115
11347TIP3   OH255455   1.488   3.479  14.779  0.3495  0.5183  0.1540
11347TIP3    H155456   1.453   3.566  14.799 -1.0646  0.1595 -0.6887
11347TIP3    H255457   1.422   3.418  14.812  1.2534 -0.2414  0.5844
11348TIP3   OH255458   2.911   5.428   4.752  0.2536  0.0414  0.0113
11348TIP3    H155459   2.965   5.481   4.693 -0.6254  1.0922  0.1225
11348TIP3    H255460   2.929   5.337   4.727  0.5271  0.4480 -1.3131
11349TIP3   OH255461   0.380   0.374  12.929  0.0612 -0.3926  0.2201
11349TIP3    H155462   0.374   0.458  12.974 -0.3555  0.6551 -1.7441
11349TIP3    H255463   0.390   0.310  13.000 -0.2835  1.2212  1.7737
11350TIP3   OH255464   6.067   0.607  11.185 -0.3389 -0.0833 -0.5183
11350TIP3    H155465   6.118   0.549  11.129 -1.2645  0.5399 -2.0350
11350TIP3    H255466   6.078   0.694  11.146 -0.5719  0.4493  0.5678
11351TIP3   OH255467   0.703   2.249   5.200 -0.4119 -0.5243  0.5183
11351TIP3    H155468   0.741   2.211   5.279 -1.1206  0.4988  1.3703
11351TIP3    H255469   0.776   2.294   5.157  0.0880 -1.5310  0.3053
11352TIP3   OH255470   1.385   3.704  13.596  0.2513  0.1274 -0.2138
11352TIP3    H155471   1.360   3.612  13.591 -1.7008  0.6515 -0.6141
11352TIP3    H255472   1.334   3.739  13.669  0.2592  1.0821 -0.6515
11353TIP3   OH255473   2.291   3.144  16.202 -0.2665 -0.3001 -0.0424
11353TIP3    H155474   2.290   3.129  16.297  0.8619  1.0141  0.1861
11353TIP3    H255475   2.289   3.239  16.193 -1.5865 -0.4430 -1.3645
11354TIP3   OH255476   5.124   1.696  16.458 -0.5575 -0.3462 -0.3234
11354TIP3    H155477   5.134   1.604  16.482 -0.8529 -1.0447 -2.8158
11354TIP3    H255478   5.201   1.739  16.495 -1.1100 -1.3145  2.0672
11355TIP3   OH255479   3.720   6.428   6.568  0.1482 -0.0802  0.6732
11355TIP3    H155480   3.759   6.358   6.515 -0.2851  0.2165 -0.0454
11355TIP3    H255481   3.696   6.384   6.650 -0.2179 -0.8105  0.1886
11356TIP3   OH255482   6.258   1.802  13.616 -0.2886  0.4683  0.0782
11356TIP3    H155483   6.344   1.789  13.654 -0.3154 -0.1215 -0.0591
11356TIP3    H255484   6.206   1.728  13.648 -0.1453 -0.3674 -1.5755
11357TIP3   OH255485   3.661   1.450  13.447 -0.4080 -0.3337  0.4237
11357TIP3    H155486   3.600   1.520  13.471 -0.5034 -0.0010 -0.7685
11357TIP3    H255487   3.746   1.493  13.443 -0.4654 -0.2861 -0.2981
11358TIP3   OH255488   5.634   1.875   4.704  0.1138 -0.9791 -0.0845
11358TIP3    H155489   5.671   1.786   4.701  0.4653 -0.8448  0.2297
11358TIP3    H255490   5.541   1.863   4.686 -0.1022 -1.5669  1.3834
11359TIP3   OH255491   2.531   6.399   5.824 -0.2858 -0.4233 -0.2574
11359TIP3    H155492   2.514   6.305   5.826 -1.4674 -0.2931 -2.5144
11359TIP3    H255493   2.624   6.405   5.803 -0.7467 -1.1194 -2.6759
11360TIP3   OH255494   1.611   0.265  12.419 -0.2946 -0.1095 -0.3618
11360TIP3    H155495   1.560   0.340  12.389 -0.4186 -0.5483 -1.2606
11360TIP3    H255496   1.611   0.204  12.344  0.4401 -0.6734  0.0924
11361TIP3   OH255497   5.637   4.742   3.430  0.2194  0.7455 -0.1295
11361TIP3    H155498   5.691   4.674   3.470  0.4432  1.2309  0.3971
11361TIP3    H255499   5.656   4.821   3.480  0.7169  1.4275 -1.3705
11362TIP3   OH255500   4.471   4.242   1.401  0.0213  0.6676  0.1906
11362TIP3    H155501   4.388   4.276   1.433 -0.6050 -0.7849  0.1503
11362TIP3    H255502   4.537   4.304   1.433 -0.8582  0.6626  2.0488
11363TIP3   OH255503   5.126   3.329   1.361  0.1756 -0.2914  0.0405
11363TIP3    H155504   5.110   3.238   1.339 -0.8241  0.1090 -0.9312
11363TIP3    H255505   5.058   3.351   1.425  0.1733 -0.1104 -0.0241
11364TIP3   OH255506   5.142   6.669  13.291  0.0891  0.6245  0.4434
11364TIP3    H155507   5.220   6.640  13.242 -2.4353  0.1689 -3.5253
11364TIP3    H255508   5.084   6.594  13.290 -1.8071  2.0680  0.2507
11365TIP3   OH255509   4.167   6.362  14.617 -0.1726 -0.1056 -0.5263
11365TIP3    H155510   4.160   6.434  14.679 -0.6835 -1.2284  0.7526
11365TIP3    H255511   4.077   6.328  14.610 -0.0974 -0.0555 -1.7975
11366TIP3   OH255512   1.449   3.987   0.859  0.1540 -0.6097  0.0781
11366TIP3    H155513   1.380   3.927   0.884 -0.0457 -0.4871 -0.1761
11366TIP3    H255514   1.530   3.945   0.888  0.0822 -1.4045 -0.8775
11367TIP3   OH255515   5.901   2.096  16.902  0.0539 -0.6484  0.1950
11367TIP3    H155516   5.912   2.172  16.960 -1.5550  0.7947 -1.3513
11367TIP3    H255517   5.962   2.030  16.937 -0.1737  0.5343  2.9251
11368TIP3   OH255518   4.525   4.148   4.187 -0.2648 -0.4927 -0.2827
11368TIP3    H155519   4.584   4.097   4.242 -0.4280 -0.0924  0.2667
11368TIP3    H255520   4.521   4.099   4.105  0.1303 -0.9911 -0.0097
11369TIP3   OH255521   4.627   0.153   5.304  0.8615 -0.2477 -0.2407
11369TIP3    H155522   4.618   0.202   5.222  1.3774 -0.7848 -0.6213
11369TIP3    H255523   4.557   0.188   5.360  0.8350  0.4908 -0.7180
11370TIP3   OH255524   4.060   3.193  12.439  0.0529  0.4689 -0.3248
11370TIP3    H155525   4.128   3.257  12.462 -0.2973  0.8429 -0.3218
11370TIP3    H255526   4.000   3.196  12.514  0.9571 -1.1481  0.4983
11371TIP3   OH255527   3.225   0.327  12.430 -0.3161  0.7394 -0.2543
11371TIP3    H155528   3.233   0.232  12.442 -2.0634  0.5833 -0.1953
11371TIP3    H255529   3.268   0.364  12.506  2.8481  0.0664 -1.6541
11372TIP3   OH255530   3.258   2.121   1.249  0.1266  0.6346  0.1085
11372TIP3    H155531   3.289   2.167   1.171  0.5780  1.3873  0.7218
11372TIP3    H255532   3.195   2.057   1.216 -0.1007  1.3260 -0.8080
11373TIP3   OH255533   3.298   0.791   4.969  0.1481  0.3011  0.2815
11373TIP3    H155534   3.220   0.809   4.917  0.9184 -1.1957 -1.4484
11373TIP3    H255535   3.371   0.826   4.917  0.8719 -0.7209  0.5802
11374TIP3   OH255536   4.751   2.205   3.871 -0.0417  0.1309 -0.3856
11374TIP3    H155537   4.731   2.295   3.843  1.4063  0.8551  0.8556
11374TIP3    H255538   4.831   2.182   3.824 -0.5533 -0.6379 -0.9068
11375TIP3   OH255539   2.459   0.511   6.337  0.2353 -0.1725 -0.4638
11375TIP3    H155540   2.365   0.494   6.343  0.1309  0.5433 -0.1148
11375TIP3    H255541   2.495   0.429   6.303 -0.4160 -0.7141  0.1376
11376TIP3   OH255542   3.278   6.095  12.992 -0.5492 -0.1109 -0.0088
11376TIP3    H155543   3.364   6.129  12.965 -0.3307  1.5185  2.6365
11376TIP3    H255544   3.298   6.028  13.057 -1.2531 -0.9610 -0.6469
11377TIP3   OH255545   3.683   5.651  13.503  0.0312  0.4738  0.4325
11377TIP3    H155546   3.669   5.705  13.581  0.3880 -1.4717  1.8654
11377TIP3    H255547   3.653   5.564  13.528 -0.2457 -0.0952 -1.7620
11378TIP3   OH255548   6.700   2.135  12.023 -0.1580  0.2017 -0.5048
11378TIP3    H155549   6.762   2.195  12.063 -0.3862  0.6981 -0.9005
11378TIP3    H255550   6.634   2.191  11.983 -0.1700 -0.3031 -1.1967
11379TIP3   OH255551   1.943   2.751  16.499  0.0461 -0.0266 -0.1031
11379TIP3    H155552   1.948   2.799  16.416 -0.1840 -1.3740 -0.9121
11379TIP3    H255553   2.026   2.770  16.542  0.5934 -0.1129 -1.0963
11380TIP3   OH255554   3.474   3.660   2.401  0.0659  0.3871  0.1994
11380TIP3    H155555   3.411   3.708   2.348 -1.3999 -1.1186  0.5626
11380TIP3    H255556   3.443   3.671   2.491  0.8476  0.4225  0.4679
11381TIP3   OH255557   1.618   1.810   2.476 -0.1216  0.1112 -0.0690
11381TIP3    H155558   1.614   1.862   2.557  0.1676  0.9138 -0.5654
11381TIP3    H255559   1.645   1.723   2.505 -0.4684  0.2716  0.7578
11382TIP3   OH255560   6.047   1.294   0.652 -1.1567  0.1219  0.2134
11382TIP3    H155561   6.065   1.308   0.559 -1.8115 -1.2451 -0.1277
11382TIP3    H255562   6.081   1.207   0.670  1.3640  1.3765  1.9078
11383TIP3   OH255563   2.665   1.990   3.168  0.6516  0.0672 -0.0330
11383TIP3    H155564   2.682   1.901   3.137  0.7845 -0.2855  1.0402
11383TIP3    H255565   2.683   1.987   3.262  0.1922  1.1117  0.0988
11384TIP3   OH255566   6.706   6.071   2.999  0.0707  0.0337 -0.3243
11384TIP3    H155567   6.766   6.062   3.073 -0.7640 -0.7043  0.2545
11384TIP3    H255568   6.620   6.085   3.038 -0.5704 -1.5268 -1.1298
11385TIP3   OH255569   1.967   2.268  11.259 -0.6954 -0.0243 -0.4259
11385TIP3    H155570   1.907   2.295  11.329  0.0225 -0.9223  0.5564
11385TIP3    H255571   2.049   2.314  11.278 -0.4514 -0.3907 -0.5872
11386TIP3   OH255572   5.380   4.798   1.085  0.9904  0.1288 -0.4574
11386TIP3    H155573   5.342   4.711   1.083  1.6631 -0.1878  0.3025
11386TIP3    H255574   5.319   4.853   1.035 -1.0856 -0.0944  1.7878
11387TIP3   OH255575   1.630   4.545  16.703  0.5592 -0.0936 -0.3728
11387TIP3    H155576   1.725   4.543  16.710  0.4092 -0.4790  1.9829
11387TIP3    H255577   1.602   4.458  16.732 -0.6537  1.0746  2.0946
11388TIP3   OH255578   6.660   5.553   1.372  0.1427  0.2582 -0.4103
11388TIP3    H155579   6.684   5.550   1.279 -1.1466 -1.5994 -0.7223
11388TIP3    H255580   6.733   5.509   1.416  0.6217  0.8866 -0.5699
11389TIP3   OH255581   2.205   6.075   4.276 -0.2356  0.2208 -0.5330
11389TIP3    H155582   2.269   6.047   4.341  0.1325  2.3099  0.0356
11389TIP3    H255583   2.258   6.100   4.200 -0.6239 -1.5414 -1.4157
11390TIP3   OH255584   3.472   3.615   0.660 -0.1716 -0.0362  0.1457
11390TIP3    H155585   3.393   3.668   0.672 -0.0972  0.2052 -0.4011
11390TIP3    H255586   3.482   3.607   0.565  0.2696 -0.3530  0.2141
11391TIP3   OH255587   1.909   5.803  13.261  0.0707 -0.2533  0.0513
11391TIP3    H155588   1.820   5.815  13.226 -0.0180  0.5035  0.5414
11391TIP3    H255589   1.966   5.840  13.194 -0.1768  2.5690  1.3659
11392TIP3   OH255590   5.592   1.303  14.756  0.4616 -0.5483 -1.0231
11392TIP3    H155591   5.499   1.296  14.736  0.4183  1.9157 -1.8767
11392TIP3    H255592   5.634   1.239  14.697 -0.5701 -0.6902 -1.6192
11393TIP3   OH255593   1.947   1.251  10.837  0.4840  0.1211  0.0274
11393TIP3    H155594   1.861   1.222  10.807  1.0095 -0.1157 -1.2931
11393TIP3    H255595   1.980   1.178  10.890  0.9350 -0.8690 -1.5871
11394TIP3   OH255596   3.386   6.478  12.104  0.8038  0.1248 -0.0986
11394TIP3    H155597   3.328   6.407  12.129  0.3677  0.0601 -1.2995
11394TIP3    H255598   3.474   6.442  12.116  0.5988 -0.2521  0.3096
11395TIP3   OH255599   3.758   0.456  12.645  0.0050 -0.1190  0.2523
11395TIP3    H155600   3.686   0.394  12.646  1.7836 -2.2212  1.7247
11395TIP3    H255601   3.737   0.518  12.715 -1.3552  0.4941 -0.6727
11396TIP3   OH255602   3.824   1.917  11.057  0.1955  0.0685  0.0190
11396TIP3    H155603   3.837   1.835  11.008 -1.5250 -0.2570  0.0491
11396TIP3    H255604   3.779   1.890  11.137 -1.1403  1.1296 -0.3563
11397TIP3   OH255605   5.404   5.211   1.592 -0.1688 -0.1989  0.1568
11397TIP3    H155606   5.385   5.299   1.625  0.5339  0.9630 -2.4124
11397TIP3    H255607   5.360   5.207   1.507  0.3855 -2.0868 -0.0708
11398TIP3   OH255608   2.651   2.554  11.842  0.4619  0.7968 -0.5252
11398TIP3    H155609   2.647   2.589  11.752  0.5117  2.0131 -0.0649
11398TIP3    H255610   2.653   2.459  11.830 -1.9389  0.8534 -1.7385
11399TIP3   OH255611   6.614   5.035   2.755  0.2613 -0.0519  0.5864
11399TIP3    H155612   6.706   5.057   2.744  0.0590  0.0264 -1.2250
11399TIP3    H255613   6.567   5.112   2.721 -0.4547 -0.5338  0.4730
11400TIP3   OH255614   6.510   3.932  11.703 -0.2269 -0.2284 -0.6844
11400TIP3    H155615   6.421   3.934  11.669  0.1161  2.3124 -1.5062
11400TIP3    H255616   6.564   3.962  11.630  1.0430  0.5336  0.5593
11401TIP3   OH255617   6.456   1.362  14.344 -0.0458  0.0341  0.0995
11401TIP3    H155618   6.469   1.381  14.251  0.6503  0.9924  0.3796
11401TIP3    H255619   6.544   1.339  14.376 -0.5734 -2.0047  0.1550
11402TIP3   OH255620   1.137   3.996  11.632  0.3885 -0.5195  0.2952
11402TIP3    H155621   1.102   4.019  11.719  1.7353  1.4893  0.3392
11402TIP3    H255622   1.121   4.074  11.579  2.4838 -0.5160 -0.3650
11403TIP3   OH255623   6.039   3.047   0.044  0.0315 -0.0633 -0.3730
11403TIP3    H155624   6.093   3.111  -0.002  1.0407 -0.1941  0.6235
11403TIP3    H255625   5.963   3.035  -0.013 -0.3367  2.2727 -0.4158
11404TIP3   OH255626   6.673   0.486  14.840  0.0908  0.4586 -0.0701
11404TIP3    H155627   6.665   0.392  14.823  2.8038  0.5013 -1.8008
11404TIP3    H255628   6.711   0.490  14.928 -0.4589 -0.0281  0.2004
11405TIP3   OH255629   2.374   0.230   5.194 -0.0653  0.0832 -0.3320
11405TIP3    H155630   2.412   0.146   5.220 -0.3268  0.3850  1.1019
11405TIP3    H255631   2.429   0.296   5.237 -1.7570  0.5403  1.2214
11406TIP3   OH255632   2.308   1.036   4.403 -0.0264 -0.8325 -0.0874
11406TIP3    H155633   2.215   1.058   4.412  0.0313 -0.8434  0.6320
11406TIP3    H255634   2.335   1.075   4.321 -0.5126 -0.2765  0.0160
11407TIP3   OH255635   4.592   1.350  13.050 -0.9020 -0.0654 -0.3088
11407TIP3    H155636   4.607   1.437  13.087  0.0644  0.6097 -2.2505
11407TIP3    H255637   4.592   1.291  13.126  0.5336  1.3566  0.8192
11408TIP3   OH255638   1.695   1.087   0.546  0.0957 -0.0338 -0.2358
11408TIP3    H155639   1.753   1.014   0.522 -0.7228 -1.3417  1.6449
11408TIP3    H255640   1.610   1.062   0.510  0.5040  1.5454 -2.3725
11409TIP3   OH255641   3.873   4.438   3.351 -0.2377 -0.4015 -0.4323
11409TIP3    H155642   3.793   4.451   3.300 -0.9970 -0.1025  0.8066
11409TIP3    H255643   3.939   4.488   3.304 -0.7906 -0.5911 -1.4348
11410TIP3   OH255644   1.090   3.298  14.213  0.0447 -0.5415 -0.1812
11410TIP3    H155645   1.162   3.338  14.164  0.5510 -0.8458  0.3025
11410TIP3    H255646   1.058   3.228  14.156  1.7999 -2.0634  0.6388
11411TIP3   OH255647   4.804   2.680  13.361  0.0219  0.3324  0.4015
11411TIP3    H155648   4.863   2.745  13.399 -0.2646  0.4449  0.6503
11411TIP3    H255649   4.808   2.605  13.421 -1.4624  1.0168  1.3857
11412TIP3   OH255650   6.092   4.523  16.176 -0.3281 -0.1151  0.1124
11412TIP3    H155651   6.167   4.479  16.138 -0.4257 -1.2646  1.1926
11412TIP3    H255652   6.125   4.562  16.257 -0.7518 -0.1006  0.2798
11413TIP3   OH255653   0.545   1.279  15.841 -0.6864 -0.1917  0.0833
11413TIP3    H155654   0.591   1.362  15.827 -1.9562  0.5661  0.2994
11413TIP3    H255655   0.569   1.253  15.930  0.2712 -0.4246 -0.2370
11414TIP3   OH255656   0.133   5.772  16.905  0.5413  0.2683  0.3305
11414TIP3    H155657   0.137   5.695  16.962  0.3498  0.6372  0.8515
11414TIP3    H255658   0.044   5.805  16.917  0.9369  1.1603  0.9064
11415TIP3   OH255659   2.876   1.669  13.072 -0.2283 -0.4123  0.0533
11415TIP3    H155660   2.909   1.717  12.997  0.8112 -0.4022  0.5055
11415TIP3    H255661   2.788   1.703  13.087 -0.3854 -0.3320 -1.0804
11416TIP3   OH255662   5.224   5.470  11.945 -0.0928  0.6309  0.1885
11416TIP3    H155663   5.176   5.413  12.006 -1.2557  0.9376 -0.4247
11416TIP3    H255664   5.242   5.414  11.870 -1.1722  1.0314 -0.3834
11417TIP3   OH255665   2.808   6.121  15.620  0.1286  0.1698 -0.0106
11417TIP3    H155666   2.774   6.130  15.532 -0.3705 -0.2701  0.1309
11417TIP3    H255667   2.741   6.160  15.676 -0.1176 -0.6419  0.2656
11418TIP3   OH255668   5.068   2.684  10.548 -0.5105  0.0861 -0.1068
11418TIP3    H155669   5.042   2.593  10.562 -1.0648  0.5535  2.0425
11418TIP3    H255670   4.985   2.730  10.531 -0.4285  0.4833  0.5452
11419TIP3   OH255671   1.277   5.473  12.438  0.5662 -0.2756  0.4457
11419TIP3    H155672   1.228   5.528  12.500 -0.5102 -1.9354  1.0969
11419TIP3    H255673   1.365   5.512  12.437 -0.3987  1.9854  0.2061
11420TIP3   OH255674   6.081   1.554   2.144 -0.1929  0.2045  0.5293
11420TIP3    H155675   6.005   1.601   2.178 -0.0059 -0.1666  1.4733
11420TIP3    H255676   6.060   1.538   2.052 -0.1303  2.4222  0.0894
11421TIP3   OH255677   6.479   4.780   5.988  0.4862  0.0422  0.4235
11421TIP3    H155678   6.467   4.875   5.995  0.8034  0.1691 -0.6054
11421TIP3    H255679   6.431   4.756   5.909  2.6063 -0.2379 -0.8121
11422TIP3   OH255680   2.637   3.615   3.025  0.1505 -0.1264 -0.1069
11422TIP3    H155681   2.592   3.536   3.056 -0.6550  1.1297  2.0472
11422TIP3    H255682   2.655   3.597   2.932 -0.1509 -2.7552  0.2895
11423TIP3   OH255683   3.731   5.248   3.992 -0.3232 -0.2897 -0.0208
11423TIP3    H155684   3.677   5.292   4.058 -2.1173 -0.0755 -1.5802
11423TIP3    H255685   3.731   5.308   3.918 -0.2292 -1.5447 -1.0471
11424TIP3   OH255686   0.177   4.997  15.789  0.0728 -0.6361  0.4845
11424TIP3    H155687   0.177   5.090  15.811 -0.9226 -0.3802 -0.4998
11424TIP3    H255688   0.129   4.955  15.861 -3.3564  0.2145 -1.2209
11425TIP3   OH255689   0.583   3.346   0.678  0.7728 -0.2155  0.1328
11425TIP3    H155690   0.535   3.316   0.601  0.7461 -1.7971  0.7477
11425TIP3    H255691   0.669   3.306   0.669  0.5840 -0.8829  1.2128
11426TIP3   OH255692   6.578   0.500   3.814 -0.2607  0.6704  0.4563
11426TIP3    H155693   6.537   0.421   3.850 -1.1765  0.4186 -1.0791
11426TIP3    H255694   6.621   0.541   3.889 -1.2807 -0.3469  1.6282
11427TIP3   OH255695   0.943   6.550   3.871  0.2733  0.0049 -0.5716
11427TIP3    H155696   0.852   6.521   3.872 -0.6190  2.6173  0.1825
11427TIP3    H255697   0.993   6.475   3.840 -2.1471 -1.4625 -1.0015
11428TIP3   OH255698   2.293   0.356  11.584  0.4198  0.1437 -0.3192
11428TIP3    H155699   2.291   0.368  11.489  2.4256  0.1115 -0.3954
11428TIP3    H255700   2.279   0.262  11.596  0.9143  0.0249 -0.6381
11429TIP3   OH255701   3.064   6.637   2.005  0.1401  0.2485  0.1600
11429TIP3    H155702   3.030   6.676   1.924 -0.7036 -1.6193 -0.4378
11429TIP3    H255703   3.099   6.552   1.977 -0.2249 -0.4519  1.7654
11430TIP3   OH255704   3.838   6.263  15.954  0.0876 -0.3279 -0.3081
11430TIP3    H155705   3.746   6.286  15.944  0.1176  1.3029  2.6125
11430TIP3    H255706   3.880   6.345  15.981  2.1055 -1.4297 -0.0136
11431TIP3   OH255707   1.299   5.349   2.782 -0.0900  0.4623  0.3929
11431TIP3    H155708   1.305   5.425   2.725  0.3816 -0.0627 -0.2593
11431TIP3    H255709   1.208   5.319   2.773  0.5264 -0.8905 -1.7508
11432TIP3   OH255710   3.572   5.289   2.458 -0.5061 -0.2826 -0.2013
11432TIP3    H155711   3.524   5.303   2.376  0.3682  2.3156 -0.2983
11432TIP3    H255712   3.661   5.266   2.430 -0.8862 -2.1435  0.0230
11433TIP3   OH255713   0.397   0.380  11.566 -0.1397  0.2146  0.1088
11433TIP3    H155714   0.470   0.433  11.534  0.7111 -0.6536  0.5816
11433TIP3    H255715   0.381   0.413  11.654 -0.1431  0.2314  0.1021
11434TIP3   OH255716   2.497   1.282   2.193  0.5213  0.1416  0.1679
11434TIP3    H155717   2.558   1.327   2.251  2.1750 -0.7053 -0.8674
11434TIP3    H255718   2.444   1.353   2.155  0.2708  0.8031  1.7228
11435TIP3   OH255719   1.015   1.647   0.209  0.3071  0.1747 -0.0967
11435TIP3    H155720   1.075   1.648   0.134  1.1029  1.4680  0.5259
11435TIP3    H255721   1.072   1.662   0.285 -0.6127 -0.1564  0.6626
11436TIP3   OH255722   4.239   3.808  12.768  0.0341 -0.0924  0.5105
11436TIP3    H155723   4.187   3.863  12.827 -0.0133 -0.3748  0.7369
11436TIP3    H255724   4.254   3.863  12.691  0.6200  0.4969  1.0400
11437TIP3   OH255725   4.049   4.441  14.958  0.1319  0.2761 -0.5983
11437TIP3    H155726   4.136   4.475  14.980 -0.1505  0.8638 -0.3717
11437TIP3    H255727   4.015   4.502  14.893 -0.5114  0.6138  0.0513
11438TIP3   OH255728   0.445   4.156   3.401  0.4531  0.9263  0.5563
11438TIP3    H155729   0.506   4.184   3.333  0.4327  0.5086  0.3658
11438TIP3    H255730   0.472   4.205   3.479  1.6372  0.0402  0.7295
11439TIP3   OH255731   0.099   1.017  12.331 -0.0537 -0.4036 -0.5379
11439TIP3    H155732   0.068   1.103  12.359  1.0604 -0.0431 -0.3884
11439TIP3    H255733   0.020   0.964  12.325 -0.5461  0.0892  1.2836
11440TIP3   OH255734   2.831   6.160  16.635  0.0739 -0.7823 -0.2798
11440TIP3    H155735   2.909   6.104  16.640 -2.3084 -4.3159 -0.3299
11440TIP3    H255736   2.822   6.198  16.722  0.6229 -2.1753  0.4033
11441TIP3   OH255737   0.083   1.763  12.160  0.0206  0.3606 -0.0804
11441TIP3    H155738   0.173   1.788  12.183 -1.0728  4.5271  0.0024
11441TIP3    H255739   0.043   1.736  12.242  0.3692  1.2857  0.4005
11442TIP3   OH255740   4.196   3.899  16.910 -0.1949 -0.2292  0.4270
11442TIP3    H155741   4.144   3.911  16.830  1.8656  1.1094 -0.7633
11442TIP3    H255742   4.170   3.813  16.942 -1.4153 -0.6044 -1.4363
11443TIP3   OH255743   4.934   5.785  13.053 -0.0783  0.6972 -0.0554
11443TIP3    H155744   4.969   5.796  12.965 -0.1061 -1.8097 -0.4277
11443TIP3    H255745   4.841   5.766  13.040 -0.5546  2.4303  0.6602
11444TIP3   OH255746   0.736   0.352  12.151 -0.0487  0.2066 -0.2302
11444TIP3    H155747   0.795   0.277  12.146  1.5403  1.3444  0.8888
11444TIP3    H255748   0.794   0.428  12.145 -1.3687  1.3431  1.1271
11445TIP3   OH255749   3.694   0.259  15.237  0.1835  0.2046 -0.2185
11445TIP3    H155750   3.747   0.187  15.204  1.5454  0.5253  1.2124
11445TIP3    H255751   3.744   0.338  15.215  0.5353  0.4860  1.5056
11446TIP3   OH255752   2.526   4.126   6.485  0.1375  0.3124  0.5633
11446TIP3    H155753   2.451   4.169   6.526 -0.3365 -0.4814  0.5419
11446TIP3    H255754   2.603   4.169   6.524 -0.3155  0.4542  1.3096
11447TIP3   OH255755   5.941   0.494  13.536  0.3050 -0.4272  0.0554
11447TIP3    H155756   5.859   0.520  13.578  0.3978 -1.2921  0.7886
11447TIP3    H255757   5.928   0.514  13.443 -0.0326  1.1706  0.4299
11448TIP3   OH255758   6.296   0.660  16.972  0.2645  0.2074  0.4810
11448TIP3    H155759   6.220   0.650  16.915  1.5740  0.7925 -1.4349
11448TIP3    H255760   6.332   0.571  16.979  0.2444  0.1769  0.1977
11449TIP3   OH255761   0.439   5.124   1.344 -0.5232 -0.0432  0.1050
11449TIP3    H155762   0.528   5.123   1.379  0.1434  0.3606 -1.5684
11449TIP3    H255763   0.410   5.033   1.349 -0.3498 -0.0427  1.4271
11450TIP3   OH255764   0.926   3.258  16.892 -0.1003 -0.3755  0.7698
11450TIP3    H155765   0.853   3.240  16.833  1.0592 -1.1485 -0.4621
11450TIP3    H255766   0.905   3.210  16.972 -1.5380  0.4313  0.9017
11451TIP3   OH255767   0.766   1.949  13.589 -0.2117 -0.6743 -0.3743
11451TIP3    H155768   0.717   1.871  13.563  0.8973 -1.3439 -0.4981
11451TIP3    H255769   0.825   1.965  13.515 -0.6632  0.4738 -0.4851
11452TIP3   OH255770   2.019   4.349   4.982 -0.5798 -0.0894  0.2153
11452TIP3    H155771   2.105   4.335   5.021 -0.5844 -0.2353  0.1736
11452TIP3    H255772   1.998   4.439   5.003 -0.5062 -0.1145  0.4025
11453TIP3   OH255773   6.080   6.465  13.985  0.0451 -0.6594  0.1844
11453TIP3    H155774   6.167   6.459  14.024 -0.0988  0.0060  0.6182
11453TIP3    H255775   6.080   6.399  13.916  0.6549 -1.1493  0.6429
11454TIP3   OH255776   3.093   2.110  12.789  0.3592 -0.0119 -0.1067
11454TIP3    H155777   3.172   2.165  12.792  0.4199 -0.1306  0.4098
11454TIP3    H255778   3.045   2.142  12.712  1.4090 -0.6195 -1.0357
11455TIP3   OH255779   5.185   0.436  12.518  0.3901  0.0996 -0.5484
11455TIP3    H155780   5.268   0.424  12.565  0.7125 -0.0048 -1.1474
11455TIP3    H255781   5.210   0.471  12.433 -0.3496  2.4031  0.1404
11456TIP3   OH255782   1.482   1.335   5.900 -0.3377  0.3655 -0.8034
11456TIP3    H155783   1.550   1.394   5.930 -1.0705  0.7649  0.1044
11456TIP3    H255784   1.434   1.311   5.979 -1.5485  0.4805 -1.4866
11457TIP3   OH255785   4.650   6.253   1.319  0.1128 -0.1160  0.4130
11457TIP3    H155786   4.689   6.326   1.367  1.2754  0.9142 -1.9770
11457TIP3    H255787   4.583   6.293   1.264  0.3840 -0.9016 -0.5167
11458TIP3   OH255788   3.914   6.169  14.361  0.1150 -0.8383  0.5678
11458TIP3    H155789   3.913   6.080  14.326  1.9177 -0.9038  0.6422
11458TIP3    H255790   3.934   6.158  14.454 -0.4570 -0.3942  0.7467
11459TIP3   OH255791   4.746   5.268   2.819  0.5915  0.0972 -0.5026
11459TIP3    H155792   4.725   5.191   2.873  1.3508  1.0681  1.2222
11459TIP3    H255793   4.667   5.282   2.767  0.5936 -2.0975 -1.1855
11460TIP3   OH255794   1.159   3.538   1.309 -0.1383  0.3931 -0.5156
11460TIP3    H155795   1.227   3.561   1.372  0.3083 -3.4238  0.5179
11460TIP3    H255796   1.088   3.502   1.362 -0.7097 -0.6935 -1.9805
11461TIP3   OH255797   2.851   0.168  10.379  0.1913 -0.1109 -0.7625
11461TIP3    H155798   2.839   0.246  10.432  0.2928 -0.8369  0.3458
11461TIP3    H255799   2.770   0.158  10.330  0.2169  0.7382 -0.9781
11462TIP3   OH255800   6.104   3.350   2.303  0.2874 -0.3606 -0.6135
11462TIP3    H155801   6.037   3.304   2.355  1.6625 -1.2134  0.4374
11462TIP3    H255802   6.168   3.379   2.368  0.9278  0.4691 -1.6156
11463TIP3   OH255803   2.498   1.555   1.594  0.1082  0.3170  0.0904
11463TIP3    H155804   2.503   1.510   1.678  0.4120  2.2830  1.1483
11463TIP3    H255805   2.411   1.595   1.592 -0.3519 -0.6948 -1.0604
11464TIP3   OH255806   2.890   2.626   3.768 -0.5697  0.8904 -0.1461
11464TIP3    H155807   2.968   2.643   3.821 -0.0456 -2.0787  0.1405
11464TIP3    H255808   2.916   2.649   3.679  0.6276  0.0547 -0.0339
11465TIP3   OH255809   2.984   5.347   5.722 -0.4071  0.2285 -0.3181
11465TIP3    H155810   3.007   5.440   5.727  2.1717 -0.3463 -0.6997
11465TIP3    H255811   2.975   5.330   5.628 -0.0290 -0.0937 -0.2946
11466TIP3   OH255812   1.106   5.433  12.230 -0.0134 -0.8242  0.2439
11466TIP3    H155813   1.167   5.403  12.297  0.3290 -1.1074 -0.1946
11466TIP3    H255814   1.060   5.353  12.202 -1.0406 -0.5222  1.0256
11467TIP3   OH255815   4.569   3.425   1.014 -0.2586 -0.1501  0.5169
11467TIP3    H155816   4.644   3.372   1.042 -0.4827  0.6531  2.7504
11467TIP3    H255817   4.498   3.362   1.003  0.3207 -0.7164 -0.0848
11468TIP3   OH255818   5.671   5.319   2.604  0.5083 -0.1208 -0.4070
11468TIP3    H155819   5.687   5.227   2.624  0.6633  0.5593  2.9073
11468TIP3    H255820   5.758   5.358   2.598  0.4326 -0.0756 -1.2314
11469TIP3   OH255821   0.260   2.403   0.059  0.0724 -0.7176 -0.0225
11469TIP3    H155822   0.207   2.481   0.043  0.3430 -0.9113 -1.9262
11469TIP3    H255823   0.215   2.358   0.130 -2.3852 -0.9203 -1.6440
11470TIP3   OH255824   3.632   4.505   3.227  1.0684  0.1327 -0.1015
11470TIP3    H155825   3.640   4.570   3.158  2.2274 -2.0082 -2.0357
11470TIP3    H255826   3.610   4.424   3.182 -1.3065 -0.6710  2.3483
11471TIP3   OH255827   2.660   2.129  13.169  0.0237  0.3745 -0.0888
11471TIP3    H155828   2.751   2.101  13.179 -0.2096 -1.4174 -2.4092
11471TIP3    H255829   2.649   2.139  13.074 -1.9514  1.4209  0.2307
11472TIP3   OH255830   1.655   3.016  16.928  0.0305  0.3787 -0.5111
11472TIP3    H155831   1.702   3.012  16.845 -0.2686  0.4469 -0.6840
11472TIP3    H255832   1.594   3.089  16.918 -1.2154 -0.6983 -0.8717
11473TIP3   OH255833   4.295   1.769   4.338 -0.0936 -0.5532 -0.2792
11473TIP3    H155834   4.258   1.780   4.251 -0.6889  1.3724  0.1950
11473TIP3    H255835   4.380   1.812   4.334  0.1929 -1.0955 -0.1086
11474TIP3   OH255836   0.860   1.693  14.567  0.6938  0.0900 -0.0244
11474TIP3    H155837   0.884   1.784  14.551  0.3409 -0.2342 -2.6658
11474TIP3    H255838   0.765   1.690  14.554  0.8198 -0.7996 -0.8585
11475TIP3   OH255839   4.706   1.027  12.983 -0.2369 -0.1312  0.1458
11475TIP3    H155840   4.667   1.097  12.931  1.0233  1.3027  1.0771
11475TIP3    H255841   4.648   1.019  13.059  1.7724  2.7476  2.0789
11476TIP3   OH255842   0.696   3.572  15.952  0.0285 -0.3374  0.2400
11476TIP3    H155843   0.722   3.634  16.020 -2.3966 -0.6920  1.5440
11476TIP3    H255844   0.744   3.601  15.874  1.0995  1.4493  1.5083
11477TIP3   OH255845   2.850   1.859   4.708  0.4289  0.4125 -0.2805
11477TIP3    H155846   2.831   1.796   4.638 -0.3826  1.1445 -0.7274
11477TIP3    H255847   2.886   1.935   4.662  2.4634 -0.1303  0.3592
11478TIP3   OH255848   1.830   1.562   1.658 -0.9245 -0.0368  0.4372
11478TIP3    H155849   1.924   1.579   1.655 -0.7643 -0.9007  0.4622
11478TIP3    H255850   1.793   1.639   1.701 -0.2476  0.3619  0.3195
11479TIP3   OH255851   5.396   0.722   4.419  0.0147 -0.3064  0.0775
11479TIP3    H155852   5.432   0.803   4.381 -0.9302  0.3477  0.5575
11479TIP3    H255853   5.320   0.751   4.469 -0.4151 -1.5201  0.1385
11480TIP3   OH255854   2.750   3.208  16.436  0.4202  0.0503  0.3091
11480TIP3    H155855   2.678   3.152  16.408  1.0454 -0.9362  0.6689
11480TIP3    H255856   2.739   3.216  16.531  0.1363  0.8261  0.2175
11481TIP3   OH255857   0.046   5.025   4.651 -0.0066 -0.8299 -0.0787
11481TIP3    H155858   0.081   5.105   4.691  0.8843 -1.6781  0.8722
11481TIP3    H255859   0.044   4.961   4.723  1.1324 -2.2296 -1.2579
11482TIP3   OH255860   2.368   1.629   6.199  0.1239  0.4195  0.0369
11482TIP3    H155861   2.366   1.533   6.196  0.5744  0.3216  2.0096
11482TIP3    H255862   2.303   1.651   6.267  0.6188  1.4707  0.1695
11483TIP3   OH255863   0.992   1.561   6.063 -0.4852 -0.7777  0.6154
11483TIP3    H155864   0.970   1.599   5.978  0.3429  1.8065  1.5029
11483TIP3    H255865   1.054   1.492   6.043  1.9035  1.6721 -0.7100
11484TIP3   OH255866   6.658   0.857  17.012  0.3032 -0.4448  0.4523
11484TIP3    H155867   6.576   0.849  16.963 -0.7790 -0.3008  2.2089
11484TIP3    H255868   6.680   0.950  17.008 -0.9218 -0.0719  2.0193
11485TIP3   OH255869   0.773   6.018  17.102 -0.0160 -0.0757 -0.1171
11485TIP3    H155870   0.823   5.938  17.087  1.4226  1.1630 -2.1749
11485TIP3    H255871   0.741   6.043  17.016  0.5498  2.2126  0.3008
11486TIP3   OH255872   2.320   5.992  14.663  0.2885  0.3677 -0.0311
11486TIP3    H155873   2.291   6.073  14.707 -0.4123  1.2401 -2.0552
11486TIP3    H255874   2.411   6.009  14.641  0.2830  0.4104 -0.0227
11487TIP3   OH255875   0.014   6.388  15.158  0.0896 -0.4311  0.3150
11487TIP3    H155876   0.054   6.330  15.094 -0.3778 -0.3113 -0.0903
11487TIP3    H255877   0.073   6.464  15.162 -1.3982  0.9081 -2.1804
11488TIP3   OH255878   3.877   1.898  12.738  0.7084  0.3211  0.1580
11488TIP3    H155879   3.923   1.891  12.821  0.5327  1.3419  0.3516
11488TIP3    H255880   3.871   1.993  12.722 -0.4160  0.1725 -0.3601
11489TIP3   OH255881   1.017   3.574   3.066 -0.2384 -0.3248  0.4272
11489TIP3    H155882   0.950   3.536   3.123  0.6260 -1.1612  0.8937
11489TIP3    H255883   1.043   3.655   3.111 -1.9053  0.7125 -0.4465
11490TIP3   OH255884   6.445   4.905   2.001  0.3990 -0.0208 -0.0287
11490TIP3    H155885   6.499   4.913   2.079  0.3848  1.6652 -0.1756
11490TIP3    H255886   6.505   4.874   1.933  1.1725  1.7406 -0.1648
11491TIP3   OH255887   5.986   2.567  16.692 -0.0253  0.3199 -0.2879
11491TIP3    H155888   5.914   2.522  16.648  0.1022  0.4087 -0.5883
11491TIP3    H255889   6.030   2.498  16.742 -0.6953  0.3782  0.4033
11492TIP3   OH255890   5.841   3.022   3.293  0.0202  0.6089  0.0170
11492TIP3    H155891   5.775   2.955   3.275  0.0774  1.4892 -4.0407
11492TIP3    H255892   5.791   3.097   3.325 -0.2755 -0.5698  2.4279
11493TIP3   OH255893   5.230   1.076  12.818  0.9293  0.4082 -0.4675
11493TIP3    H155894   5.204   1.016  12.748 -0.0037 -0.4665  0.6012
11493TIP3    H255895   5.191   1.038  12.897 -0.5843  2.9795  0.0877
11494TIP3   OH255896   4.775   2.177  17.234 -0.6030 -0.2576 -0.6415
11494TIP3    H155897   4.804   2.161  17.324  0.1785  1.7606 -0.5049
11494TIP3    H255898   4.720   2.255  17.240  0.0209  0.2999 -2.0036
11495TIP3   OH255899   4.289   1.016  16.953  0.3193 -0.4602  0.2127
11495TIP3    H155900   4.227   1.084  16.979  0.2205 -0.0894 -0.9930
11495TIP3    H255901   4.250   0.935  16.987 -0.0042 -0.0334  0.8767
11496TIP3   OH255902   1.064   2.822   3.372  0.3368  0.2671  0.1853
11496TIP3    H155903   1.106   2.889   3.319  1.2981  0.7631  1.5239
11496TIP3    H255904   1.046   2.865   3.456 -1.6727 -0.3228  0.0895
11497TIP3   OH255905   1.326   2.835   2.123 -0.6732 -0.1689 -0.8762
11497TIP3    H155906   1.339   2.877   2.208  5.1698  1.3310 -2.2546
11497TIP3    H255907   1.293   2.748   2.144 -0.6196  0.6277  2.8684
11498TIP3   OH255908   4.628   4.823   1.464 -0.7030 -0.0621  0.3468
11498TIP3    H155909   4.601   4.816   1.372 -0.2066 -0.1703  0.2073
11498TIP3    H255910   4.631   4.732   1.494 -1.5803  0.0155  0.6816
11499TIP3   OH255911   5.375   1.422  13.210  0.3819  0.3086 -0.2801
11499TIP3    H155912   5.448   1.396  13.266  1.8409  0.9670 -1.8594
11499TIP3    H255913   5.313   1.349  13.216  2.2501 -1.3681 -0.8524
11500TIP3   OH255914   3.191   6.340  15.352  0.5677 -0.1901  0.2034
11500TIP3    H155915   3.127   6.389  15.405  0.5786  0.9114 -0.7808
11500TIP3    H255916   3.272   6.391  15.360  0.8272 -0.5594 -0.0679
11501TIP3   OH255917   4.578   3.360   0.261  0.0571 -0.0660  0.4006
11501TIP3    H155918   4.618   3.284   0.303  1.4890  1.8239  2.5866
11501TIP3    H255919   4.623   3.435   0.300 -2.5641  1.9764 -0.3876
11502TIP3   OH255920   6.605   2.007  13.877  0.6751 -0.2964  0.1843
11502TIP3    H155921   6.525   2.051  13.847  0.0388 -1.0797  0.6972
11502TIP3    H255922   6.673   2.074  13.870  0.0656  0.2465 -0.6904
11503TIP3   OH255923   2.737   0.414   5.092 -0.1805 -0.2167  0.7137
11503TIP3    H155924   2.794   0.478   5.136 -0.4165  0.3087  0.2533
11503TIP3    H255925   2.797   0.346   5.061  0.1065 -0.0601  0.9217
11504TIP3   OH255926   3.849   2.324  15.880  0.4219 -0.2778 -0.0654
11504TIP3    H155927   3.761   2.358  15.864  1.0567  1.5597  0.1665
11504TIP3    H255928   3.839   2.261  15.951 -1.1273 -2.1976 -1.9541
11505TIP3   OH255929   6.283   5.754   0.282 -0.2292  0.4620 -0.0392
11505TIP3    H155930   6.241   5.670   0.262 -0.5322  0.7976 -0.8535
11505TIP3    H255931   6.376   5.734   0.289 -0.0482  0.3899 -2.2795
11506TIP3   OH255932   1.432   2.601   0.466 -0.3431  0.4604 -0.4815
11506TIP3    H155933   1.412   2.623   0.375  0.5742 -2.1183 -1.3511
11506TIP3    H255934   1.515   2.644   0.484  0.1256 -0.0870 -1.3051
11507TIP3   OH255935   3.014   2.882  15.627 -0.1552 -0.4348 -0.1246
11507TIP3    H155936   2.930   2.927  15.621  0.6354  1.2847  1.4194
11507TIP3    H255937   3.059   2.904  15.545 -0.9527 -0.8638 -0.6823
11508TIP3   OH255938   1.728   6.739  13.197  0.3014  0.2424 -0.1444
11508TIP3    H155939   1.658   6.766  13.137  0.2585 -0.4618 -0.4062
11508TIP3    H255940   1.697   6.766  13.284 -1.2243 -1.9071  0.0019
11509TIP3   OH255941   6.493   1.524   2.188  0.0100  0.2791  0.0510
11509TIP3    H155942   6.405   1.497   2.214 -0.7787  1.6751 -1.0611
11509TIP3    H255943   6.491   1.620   2.193  1.7732  0.2895  0.9427
11510TIP3   OH255944   5.310   5.736   4.473  0.0050 -0.1887  0.2326
11510TIP3    H155945   5.244   5.748   4.542  0.2482 -0.8216  0.5756
11510TIP3    H255946   5.273   5.781   4.397 -0.9166 -0.7305  0.3596
11511TIP3   OH255947   5.807   3.387  13.015 -0.1471  0.0579 -0.1223
11511TIP3    H155948   5.767   3.472  13.034  1.1758  0.5549  0.4461
11511TIP3    H255949   5.773   3.329  13.083  0.3018  0.5399  0.5165
11512TIP3   OH255950   4.642   3.607  16.887 -0.6662 -0.0354 -0.2834
11512TIP3    H155951   4.635   3.514  16.909 -2.5858 -0.0330 -0.7321
11512TIP3    H255952   4.563   3.624  16.836 -0.0013  1.6991 -0.7354
11513TIP3   OH255953   1.071   4.046   0.138 -0.1694  0.0545  0.3948
11513TIP3    H155954   1.164   4.026   0.146  0.8653  3.8582 -0.8622
11513TIP3    H255955   1.047   4.084   0.222 -0.0874  0.8543  0.0600
11514TIP3   OH255956   3.546   4.761  13.086 -0.0208 -0.3695 -1.1013
11514TIP3    H155957   3.633   4.794  13.110 -0.1898  0.8742 -2.1483
11514TIP3    H255958   3.514   4.717  13.165  1.4041 -0.5117 -0.5910
11515TIP3   OH255959   4.900   4.226   5.453  0.0756  0.1509  0.2304
11515TIP3    H155960   4.873   4.228   5.545  1.9936  0.5424  0.7974
11515TIP3    H255961   4.961   4.152   5.447  0.0388  0.1923 -0.7069
11516TIP3   OH255962   3.620   3.449   2.224 -0.0830 -0.2666 -0.7344
11516TIP3    H155963   3.619   3.489   2.137 -1.1545  1.1390 -0.0976
11516TIP3    H255964   3.553   3.496   2.272  0.3759 -1.1670  0.8084
11517TIP3   OH255965   3.062   0.294  16.681  0.4402  0.2828  0.2137
11517TIP3    H155966   3.156   0.294  16.700  0.3495  0.5462  0.6601
11517TIP3    H255967   3.040   0.202  16.667  0.8001  0.2374 -0.0561
11518TIP3   OH255968   1.456   6.366   1.328 -0.7120  0.0505 -0.3174
11518TIP3    H155969   1.545   6.349   1.357 -0.5918 -1.3342 -1.4361
11518TIP3    H255970   1.402   6.353   1.406 -0.0641 -0.3712  0.0598
11519TIP3   OH255971   4.516   5.500   3.864 -0.3986 -0.3508  0.9438
11519TIP3    H155972   4.446   5.435   3.876 -0.6241 -0.2811  0.0154
11519TIP3    H255973   4.558   5.475   3.782 -0.1418  0.3575  0.8602
11520TIP3   OH255974   3.386   2.440  13.747  0.3916 -0.0005  0.3083
11520TIP3    H155975   3.473   2.452  13.709  0.0689  0.4929 -0.2748
11520TIP3    H255976   3.386   2.349  13.777  1.1700  0.0503  0.4703
11521TIP3   OH255977   6.534   3.634   0.235  0.2724 -0.7379  0.1561
11521TIP3    H155978   6.550   3.557   0.289  1.0700 -0.4236  0.3885
11521TIP3    H255979   6.505   3.701   0.297  0.4690 -0.5925  0.0935
11522TIP3   OH255980   0.876   6.130   1.575 -0.3669  0.5676  0.0925
11522TIP3    H155981   0.880   6.135   1.480 -0.6538 -1.8431 -0.0754
11522TIP3    H255982   0.801   6.186   1.598 -1.4392 -0.2826 -1.2512
11523TIP3   OH255983   0.042   0.736  15.428 -0.2569  0.2402 -0.0909
11523TIP3    H155984   0.069   0.648  15.456 -0.5797 -0.2224 -1.2191
11523TIP3    H255985  -0.049   0.726  15.401 -0.0991  0.7911 -0.8376
11524TIP3   OH255986   2.407   0.192  11.953  0.1354 -0.1441  0.1142
11524TIP3    H155987   2.496   0.161  11.970 -0.3992 -1.3553  0.7553
11524TIP3    H255988   2.415   0.247  11.875  1.6077  0.5209  0.7121
11525TIP3   OH255989   2.891   2.502  15.232  0.2208 -0.5991 -0.1889
11525TIP3    H155990   2.798   2.494  15.212  0.0626 -1.6138  0.8875
11525TIP3    H255991   2.933   2.430  15.186  0.5285  0.0783 -0.9751
11526TIP3   OH255992   6.105   3.185  13.102 -0.6213  0.0242 -0.1386
11526TIP3    H155993   6.139   3.274  13.108  0.5213 -0.4867  1.2614
11526TIP3    H255994   6.147   3.149  13.023  0.9714 -0.1132  0.7544
11527TIP3   OH255995   3.265   1.102  16.314  0.0535 -0.1576  0.5650
11527TIP3    H155996   3.225   1.183  16.346  1.8512  0.6011  0.9779
11527TIP3    H255997   3.208   1.032  16.347 -1.5422  0.9212  0.1860
11528TIP3   OH255998   1.454   3.013   1.768 -0.2744  0.1001  0.0300
11528TIP3    H155999   1.481   3.011   1.677 -1.4265 -0.8527 -0.3070
11528TIP3    H256000   1.514   2.952   1.812 -0.0055  0.2217 -0.1695
11529TIP3   OH256001   2.134   3.331  14.561  0.1322  0.0699 -0.1924
11529TIP3    H156002   2.056   3.319  14.615  0.9675 -1.9679  0.5922
11529TIP3    H256003   2.146   3.426  14.557 -2.2170  0.4149 -0.1094
11530TIP3   OH256004   5.315   2.038  13.440  0.4647 -0.0713  0.3771
11530TIP3    H156005   5.247   2.094  13.404  1.3012 -0.7048 -2.2427
11530TIP3    H256006   5.271   1.955  13.459  0.1051  0.1412  0.4649
11531TIP3   OH256007   1.485   1.158  13.426  0.1971 -0.0304 -0.5381
11531TIP3    H156008   1.521   1.085  13.475 -0.3072  0.5885  0.7760
11531TIP3    H256009   1.428   1.203  13.488  0.4906  1.4681 -1.3220
11532TIP3   OH256010   6.715   0.915   0.129 -0.1905  0.0269  0.5574
11532TIP3    H156011   6.642   0.856   0.151 -1.3570  0.8528 -0.9902
11532TIP3    H256012   6.672   0.992   0.091  1.4606  0.8634  0.3675
11533TIP3   OH256013   1.166   4.909  13.193 -0.2043  0.9446  0.2037
11533TIP3    H156014   1.135   4.987  13.147 -2.8581 -0.3407 -0.2951
11533TIP3    H256015   1.154   4.929  13.285 -1.4820  0.9339  0.0546
11534TIP3   OH256016   6.010   2.450  15.162 -0.4832 -0.6504 -0.1815
11534TIP3    H156017   5.941   2.514  15.180 -0.7475 -0.6759 -1.0643
11534TIP3    H256018   6.088   2.486  15.204 -0.2839  0.9716 -1.8882
11535TIP3   OH256019   5.453   4.909  11.785 -0.2088  0.1704  0.0716
11535TIP3    H156020   5.477   4.943  11.700 -0.1651  0.1421  0.0715
11535TIP3    H256021   5.535   4.877  11.823 -0.2734 -0.0702  0.0085
11536TIP3   OH256022   1.251   0.883   0.764  0.4136 -0.3962 -0.3083
11536TIP3    H156023   1.279   0.935   0.839  0.3316 -1.4011  0.4304
11536TIP3    H256024   1.156   0.876   0.774  0.5535 -1.6589  0.2422
11537TIP3   OH256025   5.951   0.542  10.768 -0.5871 -0.4631  0.0125
11537TIP3    H156026   6.019   0.610  10.774  0.5368 -1.5211 -0.5206
11537TIP3    H256027   5.880   0.583  10.720  0.0055  0.4118 -0.1308
11538TIP3   OH256028   3.446   4.517   2.544  0.0741 -0.1973 -0.4761
11538TIP3    H156029   3.409   4.559   2.466  0.2145 -0.5450 -0.7290
11538TIP3    H256030   3.537   4.498   2.520 -0.1418 -1.1382 -0.5582
11539TIP3   OH256031   3.142   0.634   5.482  0.1915  0.1763 -0.4210
11539TIP3    H156032   3.053   0.664   5.465 -0.3244 -0.2276  1.4657
11539TIP3    H256033   3.159   0.568   5.415 -1.2988 -0.4686 -0.1690
11540TIP3   OH256034   6.304   1.442  16.344 -0.3021  0.2579  0.1720
11540TIP3    H156035   6.226   1.453  16.398 -0.9744 -0.2643 -0.6718
11540TIP3    H256036   6.270   1.433  16.255  0.8369  2.2105 -0.5058
11541TIP3   OH256037   4.898   6.451   2.273  0.1850 -0.6774 -0.2606
11541TIP3    H156038   4.805   6.467   2.257 -0.0083 -1.7416 -0.2848
11541TIP3    H256039   4.899   6.382   2.340  0.9421 -1.3495 -0.9446
11542TIP3   OH256040   0.332   0.864   5.059 -0.3197  0.1764 -0.6764
11542TIP3    H156041   0.327   0.769   5.055  1.1449  0.0144  0.8029
11542TIP3    H256042   0.285   0.888   5.139 -3.1133  0.9509 -2.4773
11543TIP3   OH256043   0.230   0.717   2.631  0.5320 -0.4351 -0.1966
11543TIP3    H156044   0.205   0.645   2.689  1.0674 -0.5374 -0.0915
11543TIP3    H256045   0.284   0.676   2.564 -0.2817 -0.3597 -0.9107
11544TIP3   OH256046   1.468   3.469   0.051 -0.3448  0.2662 -0.3002
11544TIP3    H156047   1.480   3.544  -0.007  1.5993  0.6495  0.5358
11544TIP3    H256048   1.388   3.488   0.100 -0.9932  0.8004 -1.5428
11545TIP3   OH256049   1.301   0.028   4.666  0.2280 -0.0204 -0.0511
11545TIP3    H156050   1.225   0.043   4.610  0.0104  0.2072  0.3063
11545TIP3    H256051   1.335  -0.057   4.638 -1.2014 -0.9506  0.9864
11546TIP3   OH256052   1.191   5.292   2.445  0.2679  0.1641  0.5931
11546TIP3    H156053   1.213   5.280   2.352  1.2820 -1.5473  1.0458
11546TIP3    H256054   1.116   5.234   2.459  0.5745 -0.1179  1.0336
11547TIP3   OH256055   2.753   1.295  13.912 -0.2270  0.0440 -0.2417
11547TIP3    H156056   2.666   1.336  13.907  0.3901  1.6529  1.6222
11547TIP3    H256057   2.747   1.234  13.985  0.1280 -0.0470 -0.2893
11548TIP3   OH256058   2.004   4.154  15.305 -0.7236  0.7796  0.0612
11548TIP3    H156059   2.019   4.197  15.220 -0.9337  0.7588  0.0116
11548TIP3    H256060   2.061   4.078  15.303 -0.8760  0.6695 -0.1464
11549TIP3   OH256061   6.631   4.279  11.671 -0.3463 -0.1577  0.2099
11549TIP3    H156062   6.536   4.282  11.682 -0.5254  0.8908 -1.4317
11549TIP3    H256063   6.643   4.267  11.576  1.1582 -0.1427  0.3920
11550TIP3   OH256064   5.045   3.172   3.802  0.7123  0.4475  0.2785
11550TIP3    H156065   5.123   3.201   3.755  0.6776  1.3007  0.7321
11550TIP3    H256066   5.038   3.233   3.875  0.9930 -1.1119  1.6210
11551TIP3   OH256067   4.177   4.224   0.245 -0.1928 -0.6176  0.2582
11551TIP3    H156068   4.235   4.214   0.321 -1.4700 -1.6269  1.1214
11551TIP3    H256069   4.188   4.143   0.196 -0.1544 -0.4054 -0.0792
11552TIP3   OH256070   2.485   0.467   3.005  0.1845 -1.2903 -0.2441
11552TIP3    H156071   2.505   0.542   2.949 -1.8072  0.1316  0.8974
11552TIP3    H256072   2.555   0.467   3.071 -0.7509  0.6610  0.7881
11553TIP3   OH256073   6.483   3.892   5.024  0.2747  0.1946  0.2582
11553TIP3    H156074   6.554   3.928   5.078  0.0869  1.4295 -0.3008
11553TIP3    H256075   6.527   3.859   4.946 -0.0066  3.2210 -1.2212
11554TIP3   OH256076   6.567   3.780   2.077 -0.5566 -0.4035  0.4589
11554TIP3    H156077   6.549   3.803   1.985  0.5816 -0.9626  0.0866
11554TIP3    H256078   6.488   3.735   2.106 -0.0734 -2.2578 -0.9603
11555TIP3   OH256079   5.063   3.935  16.294 -0.1003 -0.8444  0.1991
11555TIP3    H156080   4.990   3.961  16.238  0.1954  0.5678  0.4581
11555TIP3    H256081   5.041   3.970  16.380  0.2703 -1.5226  0.5756
11556TIP3   OH256082   1.124   5.390  16.388 -0.5420  0.1013  0.1642
11556TIP3    H156083   1.139   5.467  16.332  1.1870 -0.3562 -0.0295
11556TIP3    H256084   1.140   5.315  16.330 -1.5972 -0.4107  0.5233
11557TIP3   OH256085   4.826   1.327   0.753  0.5056 -0.4630  0.2399
11557TIP3    H156086   4.914   1.316   0.787  1.1584  3.2035 -0.0098
11557TIP3    H256087   4.769   1.297   0.824  1.9374  1.0232  2.0789
11558TIP3   OH256088   3.409   0.615   2.575 -0.0061 -0.2168 -0.3027
11558TIP3    H156089   3.468   0.688   2.557 -0.2332  0.0320 -0.0483
11558TIP3    H256090   3.456   0.562   2.640  1.1066 -1.4826 -2.0801
11559TIP3   OH256091   0.729   2.064  14.787  0.3871 -0.8528 -0.0679
11559TIP3    H156092   0.667   2.128  14.751  1.0420 -0.0449  0.2359
11559TIP3    H256093   0.684   2.028  14.863  0.5321  0.2193  0.5487
11560TIP3   OH256094   2.327   2.243   1.572 -0.8601 -0.2019 -0.5482
11560TIP3    H156095   2.351   2.286   1.491 -2.0927  3.2691  0.8076
11560TIP3    H256096   2.402   2.254   1.630 -0.9393 -0.4676 -0.3880
11561TIP3   OH256097   2.017   3.816  14.458  0.2986 -1.1134 -0.0032
11561TIP3    H156098   2.044   3.905  14.480 -2.8490 -1.0540  4.1846
11561TIP3    H256099   2.094   3.763  14.473  1.8344  0.7050 -1.2347
11562TIP3   OH256100   4.669   3.722   3.318  0.1811  0.3311  0.5298
11562TIP3    H156101   4.679   3.755   3.408  1.6509 -1.1109  0.9229
11562TIP3    H256102   4.690   3.629   3.325 -1.2672 -0.1228 -1.0357
11563TIP3   OH256103   3.572   5.943  12.036  0.0573 -0.1534  0.0589
11563TIP3    H156104   3.521   5.887  11.978 -1.2886  1.3607 -0.2627
11563TIP3    H256105   3.571   5.898  12.121 -1.5271 -0.3061 -0.0391
11564TIP3   OH256106   6.292   0.968  11.626 -0.9191  0.0179 -0.0633
11564TIP3    H156107   6.266   1.023  11.552  1.6778 -0.3688 -1.3330
11564TIP3    H256108   6.209   0.938  11.664 -2.3213  0.5404 -2.5718
11565TIP3   OH256109   1.669   4.730   2.284  0.2201 -0.8239  0.1750
11565TIP3    H156110   1.711   4.801   2.236 -0.5270 -1.6932 -1.8386
11565TIP3    H256111   1.577   4.756   2.291 -0.0481 -1.5378 -0.5298
11566TIP3   OH256112   2.200   4.169   4.105 -0.0894  0.0305  0.4989
11566TIP3    H156113   2.257   4.124   4.168 -0.7877  0.5145  1.5021
11566TIP3    H256114   2.244   4.159   4.021  0.9327 -0.5188  1.0863
11567TIP3   OH256115   2.001   0.498  17.078  0.2914 -0.0872  0.1334
11567TIP3    H156116   2.072   0.504  17.013 -0.4036 -4.0664 -1.1451
11567TIP3    H256117   2.043   0.519  17.161  3.0831 -2.6056 -0.5728
11568TIP3   OH256118   0.607   2.630   2.738 -0.1175 -0.2644  0.1663
11568TIP3    H156119   0.601   2.535   2.725  0.3715 -0.1692 -0.7632
11568TIP3    H256120   0.701   2.648   2.736 -0.0446 -0.0917  2.8233
11569TIP3   OH256121   1.220   5.921   2.980  0.5280 -0.3939 -0.5362
11569TIP3    H156122   1.271   5.994   3.016  0.4932 -0.6890  0.1191
11569TIP3    H256123   1.161   5.963   2.917  0.9902  0.0550 -0.6753
11570TIP3   OH256124   5.732   5.705   4.867 -0.0335  0.2012  0.4057
11570TIP3    H156125   5.682   5.787   4.857  0.0929  0.3280  0.8133
11570TIP3    H256126   5.792   5.705   4.792 -1.7934 -0.7771 -1.0388
11571TIP3   OH256127   1.042   3.890   4.665 -0.2367  0.1012 -0.5393
11571TIP3    H156128   0.971   3.841   4.705  0.6812 -0.4839  0.3855
11571TIP3    H256129   1.109   3.897   4.733  0.7226  0.3691 -1.4810
11572TIP3   OH256130   6.567   6.049  12.058  0.0376  0.1726 -0.5219
11572TIP3    H156131   6.508   6.011  12.123 -1.0913  0.6667 -1.2437
11572TIP3    H256132   6.636   5.983  12.046  0.3687  0.1719  1.3197
11573TIP3   OH256133   5.771   4.490   3.189  0.6963 -0.1511 -0.2057
11573TIP3    H156134   5.718   4.570   3.181 -0.2960 -0.6510  1.1847
11573TIP3    H256135   5.735   4.431   3.122  0.0380 -0.1860  0.1715
11574TIP3   OH256136   1.776   1.189  15.267 -0.0738  0.8946 -0.1720
11574TIP3    H156137   1.801   1.114  15.322 -0.8644  0.9180  0.2303
11574TIP3    H256138   1.694   1.163  15.227  0.4073  0.9592 -1.2069
11575TIP3   OH256139   6.181   0.201   4.682  0.0569 -0.2130 -0.0149
11575TIP3    H156140   6.174   0.110   4.711 -1.2878 -0.9003 -2.3320
11575TIP3    H256141   6.107   0.245   4.723  1.4709  0.2122  2.2081
11576TIP3   OH256142   5.095   3.068   2.207  0.3356  0.1022 -0.6041
11576TIP3    H156143   5.020   3.107   2.161 -1.2101  0.9600  2.5109
11576TIP3    H256144   5.079   2.973   2.201 -3.0096  0.3080  3.0241
11577TIP3   OH256145   2.445   0.872   5.364  0.0959 -0.5199 -0.1655
11577TIP3    H156146   2.498   0.951   5.353  1.5843 -1.4750  0.0341
11577TIP3    H256147   2.474   0.813   5.294 -0.0745 -1.3880  0.4808
11578TIP3   OH256148   4.581   1.139  13.232 -0.8537 -0.6079  0.2331
11578TIP3    H156149   4.606   1.069  13.291 -1.3748  0.0337  1.2327
11578TIP3    H256150   4.526   1.196  13.285 -0.7281  0.3651 -0.6704
11579TIP3   OH256151   5.773   6.218   3.951  0.5298  0.3574  0.0160
11579TIP3    H156152   5.759   6.128   3.981 -2.0825  0.1769 -1.5887
11579TIP3    H256153   5.703   6.268   3.993  0.3265  1.1229 -1.2308
11580TIP3   OH256154   2.778   4.138   4.625  0.7991  0.3056 -0.1656
11580TIP3    H156155   2.733   4.218   4.651 -1.9786 -1.9321  2.2724
11580TIP3    H256156   2.770   4.136   4.530 -1.8916  1.4101 -0.0210
11581TIP3   OH256157   1.857   3.014   1.462  0.0805 -0.0085  0.1853
11581TIP3    H156158   1.923   3.046   1.400 -0.8454  0.4185 -0.5956
11581TIP3    H256159   1.868   2.919   1.462 -0.3213 -0.0645 -1.1049
11582TIP3   OH256160   2.182   0.509  14.439 -0.1364 -0.0811 -0.2311
11582TIP3    H156161   2.200   0.602  14.456 -0.7587 -0.2192  1.3101
11582TIP3    H256162   2.196   0.499  14.345  1.2384  1.2855 -0.2103
11583TIP3   OH256163   6.296   3.211  13.324 -0.0180 -0.1061  0.1816
11583TIP3    H156164   6.258   3.286  13.278 -1.1080 -0.2252  0.8626
11583TIP3    H256165   6.363   3.249  13.380 -0.6988  0.3888  0.6683
11584TIP3   OH256166   1.248   3.226   1.738  0.4046  0.0955  0.1711
11584TIP3    H156167   1.319   3.164   1.753 -0.9999 -1.1689  1.7484
11584TIP3    H256168   1.277   3.306   1.781  1.3031 -0.0993 -0.0509
11585TIP3   OH256169   0.185   0.035  16.174  0.4944 -0.1816  0.3253
11585TIP3    H156170   0.115  -0.011  16.219  0.0295  1.2435  1.1020
11585TIP3    H256171   0.252   0.050  16.241  0.0631  1.4094  0.4363
11586TIP3   OH256172   1.842   1.867  14.229  0.4586 -0.2603 -0.0850
11586TIP3    H156173   1.822   1.961  14.227  0.6334 -0.2260 -0.3020
11586TIP3    H256174   1.931   1.862  14.264 -0.2395 -0.4695  1.7265
11587TIP3   OH256175   6.731   1.731   5.194  0.4087 -0.3608  0.4497
11587TIP3    H156176   6.694   1.812   5.228  3.0314  0.7772  0.7180
11587TIP3    H256177   6.773   1.757   5.111 -0.9777 -1.9709 -0.7885
11588TIP3   OH256178   1.858   1.219   2.460  0.1367 -0.4869  0.3752
11588TIP3    H156179   1.809   1.205   2.541  1.5974 -0.3159  1.2833
11588TIP3    H256180   1.792   1.254   2.399 -0.9096 -0.3726  1.5438
11589TIP3   OH256181   4.599   6.030   5.070  0.0587  0.0835 -0.7164
11589TIP3    H156182   4.576   5.999   4.983 -1.5644 -1.4542  0.2082
11589TIP3    H256183   4.644   5.956   5.111 -1.9162 -0.3402  0.7785
11590TIP3   OH256184   4.449   4.354   0.844 -0.2867  0.2361  0.0285
11590TIP3    H156185   4.442   4.341   0.938  0.6841 -1.0158 -0.0636
11590TIP3    H256186   4.373   4.308   0.808 -1.9710  2.6901  0.3394
11591TIP3   OH256187   5.977   6.763  11.248  0.3809 -0.0593 -0.1422
11591TIP3    H156188   5.942   6.702  11.182 -2.1875 -0.1128  1.2224
11591TIP3    H256189   6.013   6.706  11.316 -1.6799 -0.0982  0.9529
11592TIP3   OH256190   0.086   5.835  14.304 -0.0142  0.3313  0.4769
11592TIP3    H156191   0.027   5.908  14.326 -2.1356 -0.8031 -1.2224
11592TIP3    H256192   0.088   5.781  14.382  0.3056  1.3764  1.1994
11593TIP3   OH256193   0.528   4.643   4.240 -0.7850 -0.3770 -0.0087
11593TIP3    H156194   0.457   4.688   4.193 -1.9721 -0.1483  1.9622
11593TIP3    H256195   0.487   4.610   4.320  0.9323 -1.8313  0.2994
11594TIP3   OH256196   3.665   0.624   0.284  0.1520 -0.4392 -0.8073
11594TIP3    H156197   3.574   0.641   0.263 -0.0060 -1.4783 -1.0065
11594TIP3    H256198   3.701   0.709   0.310 -1.0097 -0.1467 -0.1745
11595TIP3   OH256199   3.888   2.476  15.168 -0.3830  0.5244  0.5957
11595TIP3    H156200   3.903   2.545  15.233  1.8766  0.5970  0.0624
11595TIP3    H256201   3.921   2.397  15.209 -0.2816  0.3093  0.1057
11596TIP3   OH256202   5.808   5.293  14.747 -0.3428 -0.2110 -0.0302
11596TIP3    H156203   5.809   5.377  14.702  1.3425  0.0079  0.4057
11596TIP3    H256204   5.731   5.297  14.803 -0.2338  1.0660  0.0312
11597TIP3   OH256205   0.710   2.508   4.635 -0.4873  0.6421  0.2569
11597TIP3    H156206   0.754   2.583   4.596 -0.1945  0.9616  1.1686
11597TIP3    H256207   0.621   2.510   4.600  0.2022 -0.0027 -1.6010
11598TIP3   OH256208   2.345   1.786   1.610  0.2455  0.7853 -0.0859
11598TIP3    H156209   2.388   1.845   1.672  0.0795 -0.8924  1.6718
11598TIP3    H256210   2.260   1.768   1.650  0.3259 -0.7121 -0.5586
11599TIP3   OH256211   3.808   4.758  14.205  0.1644 -0.2845 -0.5041
11599TIP3    H156212   3.735   4.818  14.187  0.5409 -0.0402 -1.2347
11599TIP3    H256213   3.793   4.729  14.295 -0.6890 -0.0329 -0.5569
11600TIP3   OH256214   0.157   1.635   3.283 -0.0092  0.1346 -0.0588
11600TIP3    H156215   0.159   1.541   3.269  0.7377  0.1799 -0.3174
11600TIP3    H256216   0.158   1.646   3.378 -1.1034 -0.1301 -0.0205
11601TIP3   OH256217   3.509   2.305   2.735  0.1773 -0.4174 -0.7116
11601TIP3    H156218   3.514   2.401   2.743  0.4669 -0.5847  1.4787
11601TIP3    H256219   3.586   2.281   2.685 -0.3315  0.5587 -2.0005
11602TIP3   OH256220   5.151   6.691  11.797  0.1217 -0.4212 -0.0659
11602TIP3    H156221   5.165   6.749  11.722 -0.9371 -0.6632 -0.4722
11602TIP3    H256222   5.109   6.613  11.760 -2.6910  0.4787  1.0953
11603TIP3   OH256223   4.754   4.156  12.304 -0.3060 -0.0427  0.7641
11603TIP3    H156224   4.783   4.067  12.324 -0.7474 -0.5990 -1.0111
11603TIP3    H256225   4.829   4.196  12.261 -0.8513 -0.2574 -0.3935
11604TIP3   OH256226   0.417   1.091   1.305  0.2218  0.5109  0.1560
11604TIP3    H156227   0.360   1.149   1.356  0.6921  0.6661  0.5093
11604TIP3    H256228   0.372   1.006   1.306 -0.1268  0.6930  0.2225
11605TIP3   OH256229   1.299   4.684   3.608 -0.8321  0.4489  0.3215
11605TIP3    H156230   1.300   4.767   3.562 -3.4985  0.1100 -0.4228
11605TIP3    H256231   1.283   4.707   3.699 -0.5088  0.8103  0.2872
11606TIP3   OH256232   0.703   0.607   3.018  0.4345  0.0956 -0.5474
11606TIP3    H156233   0.666   0.544   3.080  0.5908 -0.1060 -0.6569
11606TIP3    H256234   0.794   0.617   3.046  0.5283 -0.0631 -0.8017
11607TIP3   OH256235   0.289   4.263   1.009 -0.2730 -0.1288 -0.6142
11607TIP3    H156236   0.384   4.262   1.002 -0.2525 -0.7714 -0.3377
11607TIP3    H256237   0.266   4.172   1.029 -0.6616  0.7041  2.9956
11608TIP3   OH256238   5.730   5.175   1.857 -0.4165  0.5474 -0.3206
11608TIP3    H156239   5.795   5.119   1.899 -0.9046  0.2683  0.0634
11608TIP3    H256240   5.660   5.115   1.830 -1.0951  1.0026  0.3847
11609TIP3   OH256241   3.704   1.849  15.717 -0.0404 -0.2912 -0.0819
11609TIP3    H156242   3.673   1.906  15.787  1.1587  0.4982 -0.1818
11609TIP3    H256243   3.670   1.888  15.637  0.2737 -0.0683 -0.1047
11610TIP3   OH256244   1.496   2.936   2.839 -0.3104  0.2463  0.7999
11610TIP3    H156245   1.568   2.983   2.882 -0.3088  0.0599  1.0014
11610TIP3    H256246   1.418   2.986   2.861 -0.0247  1.4662 -0.8965
11611TIP3   OH256247   6.060   2.898  11.062 -0.3443 -0.0874 -0.2151
11611TIP3    H156248   6.059   2.812  11.104 -1.1427  0.1393  0.2432
11611TIP3    H256249   6.146   2.934  11.085  0.1301 -0.8896 -0.6926
11612TIP3   OH256250   5.504   2.631   0.431  0.6372  0.1760 -0.1254
11612TIP3    H156251   5.480   2.558   0.488 -1.0381  2.3842  2.1306
11612TIP3    H256252   5.424   2.650   0.381  0.7129  1.1456  0.1038
11613TIP3   OH256253   1.188   3.463  14.456 -0.0689 -0.4562  0.0115
11613TIP3    H156254   1.102   3.483  14.494 -0.9985 -3.4670 -0.3139
11613TIP3    H256255   1.172   3.385  14.403  2.2312  0.8591 -2.6803
11614TIP3   OH256256   4.067   6.452   1.058  0.5175  0.3093  0.1813
11614TIP3    H156257   4.122   6.454   1.137  0.6945  0.2661  0.0583
11614TIP3    H256258   4.063   6.543   1.030  0.5388  0.3115  0.1822
11615TIP3   OH256259   6.224   1.683   5.169  0.2017  0.1250 -0.2296
11615TIP3    H156260   6.181   1.606   5.132 -1.0328  0.9688 -0.5984
11615TIP3    H256261   6.239   1.741   5.093 -0.4035  0.9485  0.2664
11616TIP3   OH256262   3.796   2.183  14.954  0.0768  0.1736  0.3225
11616TIP3    H156263   3.890   2.200  14.962  0.3865 -1.5394  0.4056
11616TIP3    H256264   3.756   2.270  14.954  1.4758  0.8435  2.5002
11617TIP3   OH256265   5.171   6.301  14.419 -0.4705 -0.2557  0.1346
11617TIP3    H156266   5.161   6.288  14.325  2.9668  1.2156 -0.5522
11617TIP3    H256267   5.253   6.257  14.440 -1.2627 -0.6589  2.4871
11618TIP3   OH256268   4.850   2.264   0.546 -0.7002  0.0491  0.4464
11618TIP3    H156269   4.896   2.346   0.564 -1.1408  0.5496 -0.6992
11618TIP3    H256270   4.758   2.286   0.558 -0.8790 -0.0563 -0.7127
11619TIP3   OH256271   3.455   0.282  15.678 -0.3121  0.2035 -0.3741
11619TIP3    H156272   3.416   0.258  15.594 -2.5127  0.5932  0.4829
11619TIP3    H256273   3.416   0.367  15.699  0.9187  0.5408  0.5994
11620TIP3   OH256274   6.195   3.227  10.966  0.1010 -0.3272 -0.5482
11620TIP3    H156275   6.223   3.272  10.887 -0.6392  0.2385 -0.4977
11620TIP3    H256276   6.247   3.146  10.968 -1.2006 -1.2745 -2.6387
11621TIP3   OH256277   0.196   4.686  16.261 -0.6816 -0.8032 -0.1586
11621TIP3    H156278   0.227   4.765  16.217 -1.2740  0.4567  1.6689
11621TIP3    H256279   0.273   4.652  16.307 -0.0626 -2.1203 -2.0520
11622TIP3   OH256280   3.277   0.754  11.050  0.3389  0.2039 -0.2329
11622TIP3    H156281   3.192   0.738  11.092 -0.0269  0.2001 -0.9671
11622TIP3    H256282   3.315   0.667  11.040  1.8602  0.4487  3.0346
11623TIP3   OH256283   4.142   0.028  13.050  0.1829 -0.0144  0.5916
11623TIP3    H156284   4.130   0.000  13.141  1.4148 -0.5060  0.6183
11623TIP3    H256285   4.115  -0.048  12.998  2.0148 -0.7217  0.6280
11624TIP3   OH256286   6.600   2.700   3.830  0.1205  0.3320 -0.1212
11624TIP3    H156287   6.663   2.628   3.834 -1.2360 -0.8695 -0.2163
11624TIP3    H256288   6.648   2.775   3.867  1.5284 -0.6096  0.0176
11625TIP3   OH256289   0.223   5.554  15.580  0.2609 -0.4542  0.0671
11625TIP3    H156290   0.190   5.464  15.585 -2.3391  0.4238 -0.6239
11625TIP3    H256291   0.202   5.583  15.492 -0.5673  1.4462  0.8685
11626TIP3   OH256292   2.659   3.732   3.979 -0.4804  0.0833  0.6384
11626TIP3    H156293   2.608   3.793   3.926  2.1836  0.1132 -2.0134
11626TIP3    H256294   2.638   3.646   3.944  0.9844  0.0750 -0.2866
11627TIP3   OH256295   1.107   1.393   2.141  0.2068  0.3320  0.1292
11627TIP3    H156296   1.018   1.423   2.158  0.1509 -0.7190  1.8752
11627TIP3    H256297   1.156   1.418   2.219  0.4755 -2.7304  1.0330
11628TIP3   OH256298   4.437   4.577  14.371 -0.3433 -0.2613  0.0060
11628TIP3    H156299   4.505   4.608  14.311  0.4465 -1.6099  0.1652
11628TIP3    H256300   4.380   4.523  14.316  0.3704 -1.4834  0.4332
11629TIP3   OH256301   2.300   3.925  16.920 -0.0610 -0.9675  0.2784
11629TIP3    H156302   2.352   3.978  16.859 -0.7137 -0.1315  0.4456
11629TIP3    H256303   2.301   3.837  16.882 -0.2416 -0.5115 -0.8015
11630TIP3   OH256304   0.027   5.913   6.339 -0.3899  0.9786 -0.3826
11630TIP3    H156305   0.116   5.926   6.307 -0.0759  0.5346  0.3028
11630TIP3    H256306   0.038   5.866   6.422 -1.3204 -0.0747 -0.8481
11631TIP3   OH256307   2.020   1.902   0.685  0.0791 -0.5198 -0.4559
11631TIP3    H156308   2.084   1.845   0.643  1.1419 -0.2478  0.7461
11631TIP3    H256309   2.014   1.979   0.628 -1.9775 -2.1498 -2.5128
11632TIP3   OH256310   6.487   4.713   0.591  0.1632  0.1816 -0.3813
11632TIP3    H156311   6.418   4.654   0.562 -0.3955  1.3920 -1.5813
11632TIP3    H256312   6.503   4.770   0.516 -0.9559  3.0388  1.4494
11633TIP3   OH256313   6.648   6.521  13.379  0.5841  0.7999 -0.3644
11633TIP3    H156314   6.556   6.548  13.387  0.4392 -0.0431  0.9887
11633TIP3    H256315   6.676   6.556  13.295 -1.9567 -1.7380 -2.3677
11634TIP3   OH256316   3.095   5.500   2.225 -0.0078 -0.2189  0.4392
11634TIP3    H156317   3.005   5.491   2.191  0.4463  0.5059 -0.9864
11634TIP3    H256318   3.092   5.578   2.279 -0.1803 -0.0633  0.2082
11635TIP3   OH256319   6.533   0.594   6.246 -0.3287  0.1803  0.2201
11635TIP3    H156320   6.532   0.498   6.240 -3.1002  0.0962  1.4247
11635TIP3    H256321   6.538   0.612   6.340  1.8889  1.2587 -0.0712
11636TIP3   OH256322   2.433   2.324   5.300  0.1618 -0.0115 -0.4228
11636TIP3    H156323   2.487   2.332   5.378  0.4110 -1.6145 -0.4179
11636TIP3    H256324   2.343   2.329   5.332  0.2450 -1.7469  0.1152
11637TIP3   OH256325   0.510   1.129   2.271  0.5636  0.1818  0.0333
11637TIP3    H156326   0.536   1.096   2.185  1.0215  1.0292 -0.1656
11637TIP3    H256327   0.443   1.194   2.253  0.2812 -0.0175  0.3561
11638TIP3   OH256328   0.169   4.601   4.738  0.1228  0.4491 -0.2961
11638TIP3    H156329   0.131   4.595   4.650  1.2299  0.3177 -0.7726
11638TIP3    H256330   0.139   4.687   4.770 -0.9029  0.1797 -0.4914
11639TIP3   OH256331   2.974   5.101  13.436  0.7355 -0.0375 -0.5315
11639TIP3    H156332   3.012   5.182  13.470  2.3243 -0.6322 -0.8273
11639TIP3    H256333   2.938   5.057  13.513  1.8039 -0.0634 -0.0424
11640TIP3   OH256334   0.560   2.125   2.340  0.1177 -0.4569  0.2566
11640TIP3    H156335   0.535   2.111   2.431 -1.1957 -0.3314 -0.0776
11640TIP3    H256336   0.478   2.146   2.295  1.1424  2.3131 -0.4209
11641TIP3   OH256337   5.058   6.725   3.681  0.2831  0.3444  0.2453
11641TIP3    H156338   4.996   6.796   3.698 -0.8948 -0.3358 -1.1107
11641TIP3    H256339   5.049   6.666   3.755  0.0672  0.7731  0.5580
11642TIP3   OH256340   5.923   2.224  15.927 -0.3336  0.1187  0.4936
11642TIP3    H156341   5.895   2.270  16.006  1.3763 -0.6611  1.5882
11642TIP3    H256342   5.972   2.148  15.960  1.2558  0.3276 -1.3203
11643TIP3   OH256343   4.223   5.914  13.047 -0.6418  0.1411  0.0316
11643TIP3    H156344   4.200   5.933  12.956 -1.8348 -0.2282  0.2546
11643TIP3    H256345   4.190   5.989  13.096 -1.0525 -0.2187  0.3066
11644TIP3   OH256346   5.234   1.046   5.502  0.3061 -0.6807 -0.5424
11644TIP3    H156347   5.200   1.065   5.415  2.1911  0.4396 -1.0390
11644TIP3    H256348   5.251   1.131   5.541  2.6828 -1.2137 -0.3574
11645TIP3   OH256349   5.758   1.777  10.714 -0.1410  0.4553  0.2539
11645TIP3    H156350   5.755   1.697  10.661 -1.4931  0.4214  0.3641
11645TIP3    H256351   5.720   1.844  10.659 -2.6237  0.1741  1.5794
11646TIP3   OH256352   2.900   6.016  13.021  0.2607  0.2344  0.3857
11646TIP3    H156353   2.937   5.940  13.067 -0.1450 -0.9924 -1.2807
11646TIP3    H256354   2.814   6.029  13.062 -0.1721 -0.9569 -0.1417
11647TIP3   OH256355   6.474   4.816   6.341  0.5683 -0.2391  0.6043
11647TIP3    H156356   6.439   4.734   6.306  0.3432 -0.1493  0.6196
11647TIP3    H256357   6.421   4.834   6.419 -0.8982  1.0952 -0.6644
11648TIP3   OH256358   1.477   1.764  14.343 -0.0370 -0.0006 -0.1820
11648TIP3    H156359   1.559   1.772  14.295  0.6558 -1.8141  0.6461
11648TIP3    H256360   1.421   1.711  14.286 -0.5523  0.9897 -0.6167
11649TIP3   OH256361   1.681   1.946   5.746  0.2666  0.4850 -0.1299
11649TIP3    H156362   1.679   1.926   5.652 -0.1946  2.6174 -0.6085
11649TIP3    H256363   1.770   1.926   5.773 -0.2190 -2.3273 -0.4965
11650TIP3   OH256364   0.650   0.108   0.182  0.1271  0.0632  0.1390
11650TIP3    H156365   0.607   0.123   0.098  1.6288  0.2596 -0.6139
11650TIP3    H256366   0.743   0.106   0.161  0.4642 -0.8981  1.6497
11651TIP3   OH256367   1.260   5.274   0.519  0.1278 -0.1816 -0.0052
11651TIP3    H156368   1.179   5.325   0.522 -0.1372 -0.6293  0.5537
11651TIP3    H256369   1.235   5.190   0.482  0.5542  0.0737 -0.8657
11652TIP3   OH256370   4.592   6.530  13.275 -0.5316 -0.4098 -0.0626
11652TIP3    H156371   4.575   6.436  13.281 -2.3948 -0.1275 -0.5950
11652TIP3    H256372   4.573   6.563  13.363 -0.7706 -0.4015 -0.1158
11653TIP3   OH256373   4.493   3.416   0.614  0.1959 -0.7552  0.1658
11653TIP3    H156374   4.484   3.483   0.681  1.3082 -0.6774  0.2394
11653TIP3    H256375   4.467   3.459   0.533 -2.0270 -1.1052  0.6679
11654TIP3   OH256376   3.038   6.637  16.248 -0.3775  0.1411 -0.1478
11654TIP3    H156377   2.956   6.608  16.208  0.2379  3.7667 -4.4948
11654TIP3    H256378   3.104   6.576  16.214 -0.7697 -0.7642  0.6895
11655TIP3   OH256379   3.004   0.307   2.991 -0.0228  0.0684  0.2069
11655TIP3    H156380   3.004   0.403   2.993  0.5297  0.1142 -1.4578
11655TIP3    H256381   2.941   0.282   3.059 -1.2956  1.6273 -0.3714
11656TIP3   OH256382   0.817   4.177  11.766 -0.2779 -0.1607 -0.2341
11656TIP3    H156383   0.871   4.255  11.775 -2.0314  0.8073  2.8801
11656TIP3    H256384   0.731   4.210  11.740 -0.4195 -1.2779 -1.2081
11657TIP3   OH256385   0.979   6.606  14.015 -0.1162  0.2966 -0.0202
11657TIP3    H156386   0.958   6.638  14.103  0.9950 -1.2326  0.8359
11657TIP3    H256387   1.049   6.542  14.030  1.1203  1.1229 -2.1772
11658TIP3   OH256388   0.139   3.592  11.566 -0.5189 -0.4329  0.4340
11658TIP3    H156389   0.049   3.564  11.548 -0.6219  1.6888 -2.7013
11658TIP3    H256390   0.194   3.535  11.512 -0.2268  0.4733 -0.2369
11659TIP3   OH256391   3.978   5.508  15.049 -0.2981 -0.3656  0.0404
11659TIP3    H156392   4.067   5.490  15.018 -0.3340  1.8437 -1.5012
11659TIP3    H256393   3.940   5.422  15.065  1.8911 -1.3536  0.0360
11660TIP3   OH256394   1.570   5.494   6.421  0.6737  0.6027  0.3279
11660TIP3    H156395   1.649   5.528   6.379 -0.0317  1.1516 -0.5760
11660TIP3    H256396   1.502   5.559   6.402  0.1745  0.5235  1.7546
11661TIP3   OH256397   6.674   0.575   5.438 -0.0734 -0.0298 -0.3167
11661TIP3    H156398   6.727   0.617   5.370 -0.1661  2.4441  1.1028
11661TIP3    H256399   6.690   0.481   5.426  1.2863  0.4567 -2.6048
11662TIP3   OH256400   4.542   1.804   0.918 -0.6274 -0.2218 -0.3752
11662TIP3    H156401   4.558   1.810   0.824 -0.2155 -0.9405 -0.3563
11662TIP3    H256402   4.494   1.722   0.929 -1.5427  0.3552 -0.0679
11663TIP3   OH256403   5.152   0.101   0.021  0.4390  0.0028  0.3521
11663TIP3    H156404   5.099   0.105  -0.059  1.0965 -0.3664 -0.1084
11663TIP3    H256405   5.132   0.182   0.067  0.9918  0.8052 -0.7939
11664TIP3   OH256406   6.412   1.691  11.589 -0.0532 -0.5325  0.2380
11664TIP3    H156407   6.424   1.730  11.676  0.1711 -0.5369  0.2104
11664TIP3    H256408   6.412   1.596  11.606  3.6304 -0.6735 -0.1730
11665TIP3   OH256409   4.960   6.158  14.797 -0.4457 -0.2357  0.1068
11665TIP3    H156410   4.909   6.129  14.721  0.2554 -0.9210 -0.0985
11665TIP3    H256411   4.948   6.253  14.798 -0.0156 -0.1516 -1.1891
11666TIP3   OH256412   3.758   5.073   3.108 -0.3309  0.1897  0.9048
11666TIP3    H156413   3.853   5.080   3.118 -0.0018  0.0971 -1.7809
11666TIP3    H256414   3.744   4.983   3.079 -1.1045  0.6435 -0.1254
11667TIP3   OH256415   1.856   0.157   6.495  0.0180  0.3229  0.2533
11667TIP3    H156416   1.927   0.168   6.432  0.5847  1.2476  1.0576
11667TIP3    H256417   1.864   0.231   6.554 -0.5868 -0.4811  1.3627
11668TIP3   OH256418   2.292   5.474   3.597  0.2765  0.2166  0.2807
11668TIP3    H156419   2.201   5.451   3.617 -0.3802  2.1312 -0.2993
11668TIP3    H256420   2.284   5.551   3.540  2.2694  0.2905  0.0828
11669TIP3   OH256421   3.677   0.863   4.009  0.1414  0.1049 -0.2908
11669TIP3    H156422   3.736   0.913   3.954  1.6377 -0.7211  0.5391
11669TIP3    H256423   3.657   0.784   3.958  0.0529  0.2138 -0.4231
11670TIP3   OH256424   5.929   4.799  16.762 -0.2761  0.0877  0.2971
11670TIP3    H156425   5.927   4.839  16.849 -1.2531  2.0374 -0.5783
11670TIP3    H256426   5.859   4.734  16.764 -1.4142  1.2722  0.4884
11671TIP3   OH256427   2.456   6.782   4.643  0.2933  0.6706  0.5215
11671TIP3    H156428   2.478   6.759   4.733  0.0139  0.0500  0.4310
11671TIP3    H256429   2.503   6.717   4.590  0.8387  1.3199  0.1991
11672TIP3   OH256430   3.159   5.268  15.108 -0.0500  0.0731  0.0627
11672TIP3    H156431   3.233   5.241  15.053 -0.4979  0.0924 -0.5505
11672TIP3    H256432   3.110   5.329  15.053 -0.7851 -0.3101  0.2977
11673TIP3   OH256433   1.577   2.964   4.236 -0.5175  0.2828 -0.2175
11673TIP3    H156434   1.651   2.903   4.238  0.0116  0.8947 -0.9305
11673TIP3    H256435   1.596   3.027   4.305  0.2280  1.1257 -1.1798
11674TIP3   OH256436   3.452   1.935  13.338 -0.0001  0.7105 -0.0193
11674TIP3    H156437   3.395   1.879  13.286  0.8567 -1.2481  1.0721
11674TIP3    H256438   3.405   1.947  13.421  0.1128  1.0842 -0.0062
11675TIP3   OH256439   2.618   3.077  10.547  0.1994 -0.3994  0.0795
11675TIP3    H156440   2.584   3.087  10.636  1.4455 -0.4212  0.5550
11675TIP3    H256441   2.539   3.075  10.492 -0.5673 -0.2264  1.1575
11676TIP3   OH256442   2.914   6.187  14.024  0.6977  0.4339  0.0250
11676TIP3    H156443   2.974   6.113  14.037  0.4674  0.0210 -1.2251
11676TIP3    H256444   2.827   6.148  14.029  0.5822  0.5868 -0.8516
11677TIP3   OH256445   6.647   0.773  14.402  1.1883 -0.4642 -0.4481
11677TIP3    H156446   6.609   0.823  14.330 -2.3754 -0.6989  1.1560
11677TIP3    H256447   6.634   0.828  14.479  0.7732 -2.1909  0.7396
11678TIP3   OH256448   0.291   2.761   5.765 -0.4333  0.3721  0.4773
11678TIP3    H156449   0.279   2.825   5.695 -1.3006 -0.6576 -0.3465
11678TIP3    H256450   0.377   2.722   5.749 -0.8539 -0.2343 -0.3441
11679TIP3   OH256451   6.315   5.321   2.242 -0.5763 -0.6175  0.3167
11679TIP3    H156452   6.304   5.251   2.178  0.2519 -0.6046  0.1585
11679TIP3    H256453   6.323   5.400   2.190  0.3505 -0.6396  0.4254
11680TIP3   OH256454   1.440   3.555  11.337  0.1069  0.3232 -0.0546
11680TIP3    H156455   1.475   3.496  11.270 -0.4521 -1.4166  1.1359
11680TIP3    H256456   1.489   3.532  11.416  0.3708  1.9682  0.2609
11681TIP3   OH256457   3.355   4.472   4.513  0.4632  0.2401  0.2239
11681TIP3    H156458   3.355   4.475   4.609 -0.6602 -1.6168  0.3019
11681TIP3    H256459   3.297   4.399   4.492 -0.7505  1.7651 -1.9012
11682TIP3   OH256460   0.469   0.334   2.120 -0.4031 -0.0572 -0.1860
11682TIP3    H156461   0.507   0.299   2.201  0.0713 -0.2077 -0.4727
11682TIP3    H256462   0.470   0.429   2.133  0.8211 -0.0183 -0.5194
11683TIP3   OH256463   3.536   1.729   4.812  0.1373  0.8451 -0.0343
11683TIP3    H156464   3.627   1.703   4.794  0.3121  1.5741 -0.2228
11683TIP3    H256465   3.497   1.652   4.852  0.4707  0.0649 -1.1677
11684TIP3   OH256466   3.593   0.086   0.060  0.7800 -0.0041  0.1060
11684TIP3    H156467   3.511   0.044   0.086  0.0225 -0.3351 -2.6454
11684TIP3    H256468   3.583   0.178   0.085 -0.7415  0.1126 -0.9414
11685TIP3   OH256469   4.066   0.029   1.664  0.2225  0.3129 -0.1832
11685TIP3    H156470   4.087   0.094   1.731  2.0234  0.0717 -0.4880
11685TIP3    H256471   4.053  -0.052   1.712  2.1355  0.0044 -0.1614
11686TIP3   OH256472   0.456   5.292  15.830  0.1444 -0.3492 -0.6763
11686TIP3    H156473   0.370   5.294  15.786 -0.2832 -1.0609  0.1137
11686TIP3    H256474   0.493   5.379  15.812 -1.6618  0.7770  0.7895
11687TIP3   OH256475   4.389   6.359   1.562  0.4280  0.1498  0.3467
11687TIP3    H156476   4.412   6.440   1.516 -0.5311  0.6208  0.6887
11687TIP3    H256477   4.375   6.386   1.652  0.6098 -0.4940  0.5718
11688TIP3   OH256478   6.587   6.698  12.846  0.0786 -0.5103  0.1992
11688TIP3    H156479   6.520   6.718  12.780 -0.9087 -0.0098  1.3492
11688TIP3    H256480   6.627   6.783  12.866  1.9211 -0.9540 -1.3568
11689TIP3   OH256481   3.391   6.268  16.690  0.0387  0.5512 -0.0323
11689TIP3    H156482   3.433   6.329  16.629  0.5170  0.6802  0.4196
11689TIP3    H256483   3.305   6.305  16.706 -0.2560  0.2788 -0.9824
11690TIP3   OH256484   2.042   2.924   4.133 -0.5987  0.3658  0.7739
11690TIP3    H156485   2.018   2.855   4.071  0.9084 -0.2348  0.8373
11690TIP3    H256486   2.135   2.908   4.152 -0.4357  1.9478  1.3854
11691TIP3   OH256487   2.812   1.721   1.916  0.0812  0.2365 -0.0178
11691TIP3    H156488   2.799   1.630   1.944 -0.6956 -0.3768 -2.2227
11691TIP3    H256489   2.879   1.755   1.974  1.3862 -2.2001 -0.0238
11692TIP3   OH256490   2.048   0.820   2.692 -0.2936  0.2535 -0.1724
11692TIP3    H156491   2.022   0.786   2.606 -0.1070 -0.3462  0.0061
11692TIP3    H256492   2.023   0.751   2.754 -0.0804  0.5211  0.2149
11693TIP3   OH256493   1.083   5.814  16.043 -0.5473  0.3552 -0.5992
11693TIP3    H156494   0.999   5.770  16.037  0.7566 -2.1004 -1.7133
11693TIP3    H256495   1.093   5.858  15.959 -0.5893  0.3849 -0.5871
11694TIP3   OH256496   3.941   5.278  11.769  0.1447  0.2433 -0.1681
11694TIP3    H156497   3.957   5.220  11.844 -0.2252  1.8909  1.2087
11694TIP3    H256498   3.850   5.261  11.745 -0.4399  1.3695  1.2259
11695TIP3   OH256499   1.231   2.704   1.785  0.3848  0.0648  0.0041
11695TIP3    H156500   1.200   2.752   1.708 -0.0934  0.9180  0.7055
11695TIP3    H256501   1.299   2.761   1.823  0.4438 -0.2299  0.3428
11696TIP3   OH256502   0.248   6.510  11.640 -0.0190 -0.0611 -0.1485
11696TIP3    H156503   0.241   6.514  11.545  2.1052  0.1171 -0.3154
11696TIP3    H256504   0.181   6.571  11.672 -0.1167  0.5822 -1.5546
11697TIP3   OH256505   6.227   4.313  16.028 -0.0930  0.0318 -0.1702
11697TIP3    H156506   6.141   4.322  15.987  0.1446 -1.1984 -0.9860
11697TIP3    H256507   6.265   4.236  15.986  0.2209 -1.2028  2.3012
11698TIP3   OH256508   3.468   0.468  17.190 -0.1654 -0.0753  0.1645
11698TIP3    H156509   3.382   0.483  17.230  0.4728  0.8296  1.2312
11698TIP3    H256510   3.525   0.448  17.264  0.1612 -2.5817 -0.7146
11699TIP3   OH256511   0.258   0.923  15.364  0.1489 -0.1194 -0.0608
11699TIP3    H156512   0.207   0.995  15.326  1.0146 -0.5271 -2.1049
11699TIP3    H256513   0.194   0.856  15.386 -0.3925  0.1133 -0.9033
11700TIP3   OH256514   1.286   3.588   4.527 -0.3310  0.2083 -0.7564
11700TIP3    H156515   1.357   3.598   4.465 -0.6233 -1.9354 -1.4777
11700TIP3    H256516   1.328   3.562   4.609 -0.0902  1.4118 -0.4884
11701TIP3   OH256517   5.465   4.260  15.699 -0.3690 -0.2428 -0.1657
11701TIP3    H156518   5.445   4.323  15.769  0.9989  1.7312 -1.4837
11701TIP3    H256519   5.506   4.186  15.744 -0.6504  0.4471  1.2621
11702TIP3   OH256520   1.561   4.703  14.259 -0.0200 -0.5162 -0.3181
11702TIP3    H156521   1.624   4.734  14.325 -0.5414 -1.6795  0.7372
11702TIP3    H256522   1.584   4.612  14.245  0.1209 -0.2597 -1.8162
11703TIP3   OH256523   0.771   1.790  17.009  0.1377  0.3393  0.4824
11703TIP3    H156524   0.744   1.799  16.918 -0.5205 -0.3329  0.5974
11703TIP3    H256525   0.688   1.785  17.058  0.4420 -1.5431  0.8713
11704TIP3   OH256526   5.594   4.234   0.739 -0.2611 -0.0715 -1.0467
11704TIP3    H156527   5.517   4.253   0.792 -0.2078  0.5764 -1.1994
11704TIP3    H256528   5.631   4.154   0.778 -0.4043  0.2169 -0.3201
11705TIP3   OH256529   4.834   1.226   4.696 -0.5379  0.2675  1.2170
11705TIP3    H156530   4.840   1.308   4.647  0.9527  0.2003  1.2488
11705TIP3    H256531   4.742   1.217   4.718 -1.1808  0.4269 -1.3238
11706TIP3   OH256532   5.911   6.666  14.577  0.2091 -0.2921  0.0365
11706TIP3    H156533   5.935   6.708  14.494 -3.2821  0.1035 -0.8586
11706TIP3    H256534   5.930   6.733  14.643 -0.9177  0.9806 -0.9027
11707TIP3   OH256535   3.377   5.974  17.148 -0.2440  0.4414 -0.3705
11707TIP3    H156536   3.311   5.944  17.086 -0.6209  1.3649 -0.4259
11707TIP3    H256537   3.456   5.926  17.123 -0.5574  0.3201 -1.1571
11708TIP3   OH256538   0.203   1.043   0.616  0.7224  0.1747 -0.4308
11708TIP3    H156539   0.224   0.977   0.550  0.5754  0.4014 -0.7042
11708TIP3    H256540   0.211   0.997   0.699 -2.4653 -1.0501 -0.7337
11709TIP3   OH256541   2.465   2.980   6.119  0.2847 -0.4467  0.0064
11709TIP3    H156542   2.376   3.013   6.112  0.6238  0.1626 -1.7812
11709TIP3    H256543   2.455   2.889   6.146 -0.9002 -0.5573 -0.7692
11710TIP3   OH256544   0.721   5.238   3.822  0.1995 -0.2092 -0.4041
11710TIP3    H156545   0.665   5.276   3.890  0.5205 -1.7672  0.7489
11710TIP3    H256546   0.809   5.243   3.858  0.1880 -2.5490  0.0137
11711TIP3   OH256547   3.119   0.232  13.915  0.1572 -0.0198  0.3856
11711TIP3    H156548   3.151   0.316  13.880 -0.4045 -0.2221 -0.6155
11711TIP3    H256549   3.028   0.227  13.887 -0.6509  0.2974  2.7891
11712TIP3   OH256550   1.778   5.073   4.094 -0.2753 -0.4489 -0.8677
11712TIP3    H156551   1.865   5.111   4.080  0.2625 -2.1225 -2.2297
11712TIP3    H256552   1.793   4.979   4.092 -2.2024 -0.7542 -1.5822
11713TIP3   OH256553   3.836   0.673   5.794  0.3071  0.6325 -0.2719
11713TIP3    H156554   3.836   0.659   5.889 -1.3130  0.3505 -0.2951
11713TIP3    H256555   3.808   0.589   5.758  0.2411  0.9527 -0.9766
11714TIP3   OH256556   5.628   1.117  15.621  0.1444 -0.4463 -0.5839
11714TIP3    H156557   5.674   1.195  15.653 -0.0274 -0.8888  0.7896
11714TIP3    H256558   5.697   1.052  15.609 -0.1035 -1.2281  1.8336
11715TIP3   OH256559   0.219   2.907   1.371 -0.0835 -0.2529 -0.1371
11715TIP3    H156560   0.300   2.862   1.393  0.4827 -0.0837 -1.8056
11715TIP3    H256561   0.155   2.837   1.357  0.4514 -0.5065 -1.3911
11716TIP3   OH256562   4.429   1.503  16.126 -0.2084  0.1369 -0.2661
11716TIP3    H156563   4.371   1.427  16.136  0.8112 -0.9356 -2.2440
11716TIP3    H256564   4.404   1.561  16.198 -2.1171 -1.3446  0.3277
11717TIP3   OH256565   5.440   6.284   3.278 -0.1302  0.5604 -0.1410
11717TIP3    H156566   5.423   6.278   3.184 -2.9547 -1.0160  0.3987
11717TIP3    H256567   5.529   6.251   3.290  0.4827  1.3797 -2.3098
11718TIP3   OH256568   4.936   6.608  14.193  0.0115 -0.1856 -0.7136
11718TIP3    H156569   4.898   6.539  14.137  0.6518 -1.1477  0.0092
11718TIP3    H256570   4.950   6.565  14.277 -0.7601  1.2038  0.1353
11719TIP3   OH256571   6.347   0.591   1.017  0.0464 -0.1773 -0.2357
11719TIP3    H156572   6.379   0.501   1.009  0.3995 -0.0668 -0.0666
11719TIP3    H256573   6.385   0.624   1.098 -1.5238 -0.4595  0.6408
11720TIP3   OH256574   4.884   2.641   2.349  0.0026 -0.3146  0.1184
11720TIP3    H156575   4.904   2.631   2.442 -0.4776 -1.1450  0.1343
11720TIP3    H256576   4.952   2.701   2.316  1.3834 -1.5939  0.5785
11721TIP3   OH256577   4.629   5.569   4.332  0.4404 -0.2489  0.5003
11721TIP3    H156578   4.630   5.496   4.270 -0.3808 -0.7908  1.1118
11721TIP3    H256579   4.537   5.597   4.333  0.6502  0.4280  0.6927
11722TIP3   OH256580   2.142   3.431  17.060  0.5550  0.4322 -0.5011
11722TIP3    H156581   2.122   3.524  17.074  0.6346  0.3058  0.5384
11722TIP3    H256582   2.163   3.425  16.967 -2.6478  0.8660 -1.3160
11723TIP3   OH256583   6.765   5.474  11.611 -0.2613  0.0523 -0.5986
11723TIP3    H156584   6.786   5.390  11.572 -0.7452  0.7934 -2.5056
11723TIP3    H256585   6.848   5.506  11.647 -0.3512 -1.8283  1.3790
11724TIP3   OH256586   3.295   0.733  13.392  0.1099 -0.0976  0.2335
11724TIP3    H156587   3.361   0.681  13.345 -0.1116 -0.9669  0.8844
11724TIP3    H256588   3.347   0.788  13.451  0.3780  0.8473 -0.8638
11725TIP3   OH256589   6.640   3.167  15.047  0.0999  0.1858  0.7648
11725TIP3    H156590   6.566   3.134  15.098  0.0656 -0.0418  0.5674
11725TIP3    H256591   6.707   3.187  15.113  0.8139 -2.0153  0.7620
11726TIP3   OH256592   2.196   1.345   3.010 -0.3382 -0.5688  0.0132
11726TIP3    H156593   2.290   1.328   2.998 -0.1511 -1.5898  2.5091
11726TIP3    H256594   2.157   1.258   3.017 -0.8362 -0.1832  2.9409
11727TIP3   OH256595   4.700   1.914   1.760  0.2061 -0.3356 -0.1452
11727TIP3    H156596   4.650   1.992   1.734  0.7458 -0.0389 -0.3046
11727TIP3    H256597   4.766   1.947   1.821 -0.5917 -0.9207  1.0668
11728TIP3   OH256598   5.758   5.323  16.727  0.3596  0.0586  0.1414
11728TIP3    H156599   5.787   5.408  16.760  0.8852 -0.1995  0.3432
11728TIP3    H256600   5.746   5.337  16.633  1.0996  0.1725  0.0673
11729TIP3   OH256601   3.822   6.346   2.370  0.8373  0.2499  0.2149
11729TIP3    H156602   3.836   6.275   2.432  0.6494 -0.5735 -0.6770
11729TIP3    H256603   3.762   6.310   2.305 -0.4788  1.7257  0.5983
11730TIP3   OH256604   6.124   4.806   0.522  0.8019  0.1785  0.0736
11730TIP3    H156605   6.140   4.812   0.427 -0.3126  0.1401 -0.1231
11730TIP3    H256606   6.186   4.740   0.552  1.7006  0.7452 -0.4981
11731TIP3   OH256607   1.898   3.050  11.800 -0.1750  0.1378  0.1994
11731TIP3    H156608   1.900   2.956  11.818 -2.0744  0.4539  2.3851
11731TIP3    H256609   1.929   3.059  11.710 -0.2080 -2.5885 -0.1127
11732TIP3   OH256610   0.278   5.940   1.086  0.2585 -0.1281  0.7632
11732TIP3    H156611   0.340   5.987   1.030  0.2322 -0.6615  0.2862
11732TIP3    H256612   0.193   5.959   1.048  0.2534 -0.6162  0.5287
11733TIP3   OH256613   3.808   5.966   1.056 -0.2031 -0.2185 -0.0696
11733TIP3    H156614   3.782   5.920   1.136  1.4270  1.0002  1.1851
11733TIP3    H256615   3.763   6.050   1.061  2.7234  1.3359  1.4198
11734TIP3   OH256616   4.836   4.136  15.514 -0.1051  0.1657  0.2787
11734TIP3    H156617   4.769   4.169  15.454  0.4157  0.7981  0.0355
11734TIP3    H256618   4.887   4.213  15.538  1.0194 -0.4287 -0.1484
11735TIP3   OH256619   0.492   0.730  16.520 -0.5052 -0.3603  0.0373
11735TIP3    H156620   0.536   0.777  16.591 -1.2043  3.5613 -1.9509
11735TIP3    H256621   0.399   0.747  16.535 -0.6326  1.1306 -2.1192
11736TIP3   OH256622   3.614   6.630  12.414  0.6246  0.1672  0.8930
11736TIP3    H156623   3.570   6.709  12.383  1.6847  0.7314  0.7807
11736TIP3    H256624   3.683   6.614  12.349  1.1257 -0.1998  1.5040
11737TIP3   OH256625   2.510   5.430   2.425  0.1572 -0.0021 -0.7268
11737TIP3    H156626   2.490   5.343   2.392  2.3497 -0.3092 -1.3627
11737TIP3    H256627   2.527   5.483   2.347  0.8126  0.4590 -0.2829
11738TIP3   OH256628   2.026   0.843   2.220  0.1132  0.1793  0.0190
11738TIP3    H156629   1.985   0.838   2.307 -1.3412  1.2149 -0.5932
11738TIP3    H256630   2.073   0.760   2.211 -0.0479 -0.1102  1.6352
11739TIP3   OH256631   4.382   5.224   0.289 -0.3883 -0.0187  0.0918
11739TIP3    H156632   4.326   5.267   0.225  0.3801 -0.2698 -0.7648
11739TIP3    H256633   4.452   5.288   0.307 -0.7993  0.1987  0.9681
11740TIP3   OH256634   1.020   6.325  16.660  0.2950  0.7267 -0.1252
11740TIP3    H156635   1.096   6.275  16.629  0.9548  2.0501 -0.6771
11740TIP3    H256636   1.000   6.287  16.746  0.5091 -0.7763 -0.7148
11741TIP3   OH256637   0.134   5.770   3.881 -0.1516  0.5519  0.2933
11741TIP3    H156638   0.199   5.699   3.880 -1.8924 -1.0749 -0.8533
11741TIP3    H256639   0.131   5.801   3.791 -2.0321 -0.4313 -0.0129
11742TIP3   OH256640   3.045   0.687  11.192  0.2147 -0.3241 -0.1299
11742TIP3    H156641   3.072   0.619  11.254 -1.4255 -1.9841 -1.1726
11742TIP3    H256642   2.980   0.644  11.136 -1.0681  2.1893 -0.6652
11743TIP3   OH256643   6.751   6.616   5.410  0.5375 -0.1349 -0.3891
11743TIP3    H156644   6.794   6.699   5.389  1.3943  0.2699  2.7234
11743TIP3    H256645   6.657   6.634   5.400  0.6800  1.4147  0.8315
11744TIP3   OH256646   6.174   3.605   1.857  0.6006 -0.1411 -0.0681
11744TIP3    H156647   6.259   3.575   1.825 -0.6814 -0.8553 -2.8517
11744TIP3    H256648   6.135   3.528   1.898  1.5829  0.3943  1.9845
11745TIP3   OH256649   2.118   0.679   1.436 -0.2198  0.1478  0.6739
11745TIP3    H156650   2.089   0.767   1.460 -0.9621 -0.3600  1.6932
11745TIP3    H256651   2.199   0.666   1.485  1.2754  1.2217 -1.4663
11746TIP3   OH256652   3.317   2.002  12.128  0.3006  0.1491  0.7496
11746TIP3    H156653   3.236   1.951  12.132  0.4299 -0.2094 -0.9136
11746TIP3    H256654   3.296   2.076  12.071  1.0109  0.2939  0.6738
11747TIP3   OH256655   3.304   5.598  13.630  0.2248 -0.5498  0.3661
11747TIP3    H156656   3.225   5.576  13.679 -0.6480  0.4381 -0.5744
11747TIP3    H256657   3.371   5.541  13.666 -1.2337 -2.4192  0.2099
11748TIP3   OH256658   1.077   1.387  12.341 -0.1871  0.0586 -0.2778
11748TIP3    H156659   1.049   1.302  12.375  0.2949 -0.1535 -0.3941
11748TIP3    H256660   1.166   1.371  12.308  0.6517  1.0450  1.4060
11749TIP3   OH256661   6.598   4.219   5.214  0.0759 -0.3576  0.4765
11749TIP3    H156662   6.547   4.201   5.293  1.3584 -1.1766  1.1428
11749TIP3    H256663   6.629   4.133   5.186  0.2911  0.0233 -0.4564
11750TIP3   OH256664   3.325   2.983  12.766  0.1770 -0.8149 -0.2112
11750TIP3    H156665   3.291   3.000  12.854 -0.2899 -0.5394 -0.4395
11750TIP3    H256666   3.246   2.976  12.712  0.5333  2.1782 -1.1713
11751TIP3   OH256667   4.068   0.608  11.647 -0.2033 -0.3954  0.4178
11751TIP3    H156668   4.101   0.574  11.563 -0.9979 -0.0162 -0.0469
11751TIP3    H256669   4.064   0.703  11.635  2.5760 -0.0185  1.9136
11752TIP3   OH256670   1.356   2.058   2.762  0.6068  0.4938  0.2345
11752TIP3    H156671   1.404   2.097   2.835 -0.1949 -0.7145  1.4308
11752TIP3    H256672   1.381   1.966   2.762 -1.3235 -0.0508  0.5737
11753TIP3   OH256673   4.905   5.186   5.173  0.2313 -0.3616 -0.3268
11753TIP3    H156674   4.836   5.189   5.239 -0.4683 -0.2674 -1.0570
11753TIP3    H256675   4.964   5.257   5.197  0.8667 -1.3391  1.1446
11754TIP3   OH256676   3.286   5.388  13.036  0.0524 -0.0361 -0.1111
11754TIP3    H156677   3.310   5.456  12.973  0.6090  0.0244  0.1642
11754TIP3    H256678   3.293   5.307  12.987 -0.1050  0.0623 -0.2968
11755TIP3   OH256679   4.004   2.393   4.730  0.1617 -0.0104 -0.2849
11755TIP3    H156680   3.955   2.321   4.770  1.6110 -0.4146  0.8045
11755TIP3    H256681   4.096   2.373   4.749  0.7212  1.0393 -1.7879
11756TIP3   OH256682   5.680   0.252  14.618  0.3947  0.1852 -0.2272
11756TIP3    H156683   5.607   0.312  14.600  1.7064  2.2801  1.2225
11756TIP3    H256684   5.645   0.190  14.682 -0.1426  1.1667  0.4427
11757TIP3   OH256685   0.992   6.603   0.747 -0.3448 -0.0889  0.2724
11757TIP3    H156686   0.969   6.684   0.701 -1.7482 -0.7847 -0.2841
11757TIP3    H256687   1.062   6.565   0.695  1.1533  1.3365  1.1875
11758TIP3   OH256688   0.176   0.325  16.254 -0.4708  0.3590 -0.2068
11758TIP3    H156689   0.237   0.378  16.201  0.5388 -0.5400  0.0490
11758TIP3    H256690   0.196   0.235  16.230 -2.2908  0.0811 -0.7410
11759TIP3   OH256691   3.060   6.438  14.919 -0.8222  0.1525  0.2285
11759TIP3    H156692   3.099   6.521  14.890  0.6545 -0.0019  1.6856
11759TIP3    H256693   2.969   6.442  14.888  0.0812  0.9207 -2.4657
11760TIP3   OH256694   2.493   4.985  16.118  0.2563  0.2898  0.2017
11760TIP3    H156695   2.462   5.038  16.191  0.8477 -0.3367  0.9189
11760TIP3    H256696   2.517   4.901  16.158 -1.6691 -0.9289 -1.0491
11761TIP3   OH256697   3.694   1.818   1.315  0.1542 -0.0788 -0.0150
11761TIP3    H156698   3.647   1.788   1.237 -1.5639  0.1703  0.9071
11761TIP3    H256699   3.719   1.738   1.361 -0.8965 -0.1947  0.3733
11762TIP3   OH256700   2.194   5.243  11.626 -0.1398  0.4190 -0.2702
11762TIP3    H156701   2.232   5.286  11.702  0.2187  1.0485 -0.8006
11762TIP3    H256702   2.123   5.189  11.662 -0.7286  1.6214  0.3753
11763TIP3   OH256703   1.140   2.536   4.281 -0.2110 -0.2144  0.1756
11763TIP3    H156704   1.157   2.442   4.270 -0.2596 -0.1894 -0.1100
11763TIP3    H256705   1.120   2.545   4.374  0.8740 -0.3172  0.4203
11764TIP3   OH256706   4.048   1.840   5.061 -0.0232  0.1044 -0.3355
11764TIP3    H156707   4.123   1.896   5.082  0.6322 -0.7477 -0.3757
11764TIP3    H256708   4.040   1.845   4.966  0.8306 -0.8743 -0.4622
11765TIP3   OH256709   6.094   3.283  11.465 -0.2349  0.0517 -0.5228
11765TIP3    H156710   6.181   3.255  11.439  0.9623 -0.0351  3.3077
11765TIP3    H256711   6.054   3.205  11.503 -1.6303  0.3460 -1.3571
11766TIP3   OH256712   0.847   2.568   4.850 -0.0851  0.0263  0.8939
11766TIP3    H156713   0.809   2.554   4.937 -0.4984 -0.5039  0.6298
11766TIP3    H256714   0.773   2.594   4.796  0.0084 -0.5535  0.4855
11767TIP3   OH256715   1.024   5.867  11.928 -0.4571  0.1274 -0.0238
11767TIP3    H156716   1.114   5.862  11.897 -0.5014  0.8120 -0.2616
11767TIP3    H256717   0.977   5.914  11.859 -0.6293  1.3392  0.8951
11768TIP3   OH256718   6.243   6.101  11.594 -0.1019  0.1819 -0.6421
11768TIP3    H156719   6.259   6.021  11.545  1.8383 -1.1365  2.0258
11768TIP3    H256720   6.182   6.075  11.663  2.6142  0.2756  1.8920
11769TIP3   OH256721   5.814   3.524  17.065 -0.2193  0.1405 -0.3691
11769TIP3    H156722   5.857   3.467  17.002  0.4499  0.6286 -0.3588
11769TIP3    H256723   5.786   3.600  17.013 -4.0379 -1.6144 -1.0521
11770TIP3   OH256724   1.535   4.487  17.067 -0.3344  0.2280 -0.3926
11770TIP3    H156725   1.589   4.415  17.036  0.1729  0.2703  0.3830
11770TIP3    H256726   1.453   4.478  17.018 -0.0851 -0.5677 -0.6693
11771TIP3   OH256727   2.258   6.402  14.461 -0.3266  0.5792  0.6455
11771TIP3    H156728   2.296   6.440  14.540 -0.0012  0.4355  0.5612
11771TIP3    H256729   2.177   6.451  14.447 -1.7249 -1.0702  2.5098
11772TIP3   OH256730   4.087   3.940   1.124  0.3583 -0.4443 -0.5593
11772TIP3    H156731   4.150   4.012   1.121  1.7163 -1.6173 -1.0841
11772TIP3    H256732   4.140   3.864   1.150 -0.7932 -1.4991 -1.2739
11773TIP3   OH256733   0.086   0.581  15.860 -0.0147  0.2918  0.5813
11773TIP3    H156734   0.155   0.581  15.927  0.2717  0.0827  0.2867
11773TIP3    H256735   0.079   0.490  15.833 -0.2674  0.3456  0.4667
11774TIP3   OH256736   6.693   0.559   3.294 -0.0085 -0.2143  0.6495
11774TIP3    H156737   6.755   0.632   3.281  0.4955 -0.8737 -0.7740
11774TIP3    H256738   6.745   0.481   3.275 -1.2058 -0.7860 -0.2890
11775TIP3   OH256739   2.597   6.172  16.522  0.6280  0.1359  0.1067
11775TIP3    H156740   2.677   6.171  16.573 -0.6477  3.0819  2.2939
11775TIP3    H256741   2.536   6.224  16.574 -1.6013  0.8999 -3.1333
11776TIP3   OH256742   4.364   4.501  14.123  0.4018 -0.7120 -0.0057
11776TIP3    H156743   4.340   4.508  14.031 -0.8436  1.9182  0.4717
11776TIP3    H256744   4.454   4.532  14.128 -0.3332  1.4953 -0.0189
11777TIP3   OH256745   4.808   6.137  11.783 -0.8129  0.2546 -0.3473
11777TIP3    H156746   4.819   6.047  11.751  1.1335  0.3733 -0.0819
11777TIP3    H256747   4.826   6.191  11.707 -0.7146  0.4410 -0.1906
11778TIP3   OH256748   6.339   6.216   4.061 -0.0860 -0.3547  0.5395
11778TIP3    H156749   6.328   6.168   4.144 -1.8627  0.4857  0.8325
11778TIP3    H256750   6.432   6.209   4.041  0.7265  0.8266  3.5025
11779TIP3   OH256751   4.889   0.442  11.132 -0.0128 -0.5149 -0.4835
11779TIP3    H156752   4.840   0.361  11.115  1.1690 -1.4763  0.6121
11779TIP3    H256753   4.957   0.443  11.065 -1.0606  0.4681 -1.5692
11780TIP3   OH256754   2.306   0.769  13.164 -0.2902 -0.2706 -0.5159
11780TIP3    H156755   2.327   0.687  13.209  0.0187 -0.0243 -0.2082
11780TIP3    H256756   2.365   0.770  13.089  0.1779 -0.0122 -0.1501
11781TIP3   OH256757   1.362   3.567   4.788  0.1533  0.7346 -0.1062
11781TIP3    H156758   1.447   3.572   4.833 -0.1461  0.7169  0.4621
11781TIP3    H256759   1.336   3.659   4.777  1.2607  0.8189 -2.2200
11782TIP3   OH256760   2.798   2.817  10.207  0.0891  0.5449  0.5285
11782TIP3    H156761   2.739   2.805  10.281  0.4952  0.9042  0.9104
11782TIP3    H256762   2.843   2.733  10.197 -1.9094 -0.3853 -1.0131
11783TIP3   OH256763   2.504   4.148  16.010  0.3758  0.3937  0.1044
11783TIP3    H156764   2.499   4.067  16.062  1.2463 -0.3300 -0.9104
11783TIP3    H256765   2.541   4.212  16.070 -2.0676  0.5596  1.4993
11784TIP3   OH256766   0.095   0.176   4.632  0.3412 -0.2491 -0.3236
11784TIP3    H156767   0.115   0.196   4.724 -0.8648 -0.9139  0.1026
11784TIP3    H256768   0.080   0.262   4.592  0.2437  0.0131  0.2612
11785TIP3   OH256769   1.415   5.154   2.514 -0.1507  0.7743  0.7780
11785TIP3    H156770   1.457   5.195   2.438 -0.4748  1.3631  0.9145
11785TIP3    H256771   1.333   5.202   2.524 -0.6741 -0.1059  0.7570
11786TIP3   OH256772   0.581   0.054  13.246  0.4245 -0.0792 -0.5371
11786TIP3    H156773   0.655   0.091  13.197  0.5607  0.6749  0.2258
11786TIP3    H256774   0.552  -0.020  13.193  1.1073  0.2145 -1.3349
11787TIP3   OH256775   2.078   0.516   6.669  0.1960 -0.1046  0.3600
11787TIP3    H156776   1.986   0.508   6.694  1.3602  0.1655  5.3085
11787TIP3    H256777   2.104   0.428   6.642 -1.2849 -0.3756 -0.1766
11788TIP3   OH256778   3.070   6.276   2.489 -0.3961 -0.1626 -0.1431
11788TIP3    H156779   3.055   6.335   2.563  3.4928 -0.3339  0.8652
11788TIP3    H256780   3.058   6.331   2.411 -0.4484  1.0343  0.6979
11789TIP3   OH256781   5.819   1.600  14.409  0.3665 -0.1889 -0.8664
11789TIP3    H156782   5.786   1.618  14.497 -0.4199  0.2241 -1.2494
11789TIP3    H256783   5.895   1.543  14.424  0.4417  0.1524  0.0966
11790TIP3   OH256784   3.826   1.914  16.780  0.0928  0.0235 -0.2462
11790TIP3    H156785   3.775   1.942  16.704 -0.0955 -1.4906 -0.6748
11790TIP3    H256786   3.790   1.829  16.805  0.7226  0.1091  1.0171
11791TIP3   OH256787   5.618   5.781  16.609 -0.3700 -0.0729 -0.0858
11791TIP3    H156788   5.707   5.749  16.593 -0.2272  0.2186  0.1230
11791TIP3    H256789   5.579   5.716  16.667  0.6164  1.1960  2.0397
11792TIP3   OH256790   2.509   5.360   1.976  0.4479  0.7295 -0.6995
11792TIP3    H156791   2.481   5.299   1.907 -0.4079 -0.9731  1.1175
11792TIP3    H256792   2.565   5.307   2.033  1.6751  2.2993 -0.4378
11793TIP3   OH256793   3.880   5.609   4.638 -0.1617 -0.6184  0.6996
11793TIP3    H156794   3.959   5.663   4.627 -0.2184 -0.7584 -0.4796
11793TIP3    H256795   3.841   5.606   4.551 -2.1056  0.4202  1.5014
11794TIP3   OH256796   6.502   1.771  13.741  0.2157  0.0714 -0.6357
11794TIP3    H156797   6.514   1.816  13.825  0.3029 -0.3547 -0.4132
11794TIP3    H256798   6.562   1.815  13.681  0.8542 -0.2339 -0.2327
11795TIP3   OH256799   5.048   4.252  16.912 -0.0657 -0.3223  0.1287
11795TIP3    H156800   5.127   4.269  16.861 -0.0262 -0.4085  0.1600
11795TIP3    H256801   4.994   4.196  16.855 -0.6213  0.6964 -0.3632
11796TIP3   OH256802   1.563   0.339   2.797  0.4102 -0.3567 -0.7317
11796TIP3    H156803   1.649   0.302   2.816  1.1130  1.3489 -0.5344
11796TIP3    H256804   1.576   0.434   2.799 -1.7500 -0.0544  0.5811
11797TIP3   OH256805   2.408   3.169  11.609  0.1029  0.4353  0.4772
11797TIP3    H156806   2.439   3.143  11.522 -0.3162  1.2431  0.0808
11797TIP3    H256807   2.456   3.113  11.670  0.1053 -0.4131 -0.2976
11798TIP3   OH256808   3.742   5.988  12.952  0.1449  0.3258  0.4361
11798TIP3    H156809   3.796   6.065  12.936 -1.2488  1.4506  1.0293
11798TIP3    H256810   3.657   6.023  12.977 -0.3315 -1.4051  1.3287
11799TIP3   OH256811   4.076   5.672   5.667 -0.2743 -0.9232 -0.2385
11799TIP3    H156812   4.076   5.665   5.572  1.0335  3.1110 -0.6519
11799TIP3    H256813   4.169   5.666   5.691 -0.3908  0.1446  0.5253
11800TIP3   OH256814   1.076   1.383   2.640 -0.1260  0.1725 -0.1438
11800TIP3    H156815   1.070   1.305   2.584 -0.5448  0.3153 -0.2962
11800TIP3    H256816   1.026   1.450   2.593  0.7568  0.7156 -0.3199
11801TIP3   OH256817   0.858   3.753   4.838  0.2927  0.2252 -0.6536
11801TIP3    H156818   0.812   3.686   4.787 -0.7215  0.1359  0.3551
11801TIP3    H256819   0.795   3.778   4.906  1.9374 -0.2710  1.0898
11802TIP3   OH256820   4.392   0.499  11.602  0.2178 -0.3148 -0.1088
11802TIP3    H156821   4.408   0.473  11.693 -0.4838 -0.6150 -0.0719
11802TIP3    H256822   4.478   0.494  11.561  1.1127  2.6193  1.2336
11803TIP3   OH256823   2.760   6.574   0.986  0.1801 -0.0594 -0.3670
11803TIP3    H156824   2.773   6.482   0.965 -3.0664 -1.0315  1.4157
11803TIP3    H256825   2.671   6.593   0.957 -0.2249  1.7043  1.8602
11804TIP3   OH256826   0.525   3.604  14.460  0.1337 -0.3542  0.1448
11804TIP3    H156827   0.542   3.566  14.374  0.0787  0.4917 -0.2439
11804TIP3    H256828   0.606   3.650  14.482  0.2909 -0.9007  0.7266
11805TIP3   OH256829   2.937   0.267   3.310 -0.1253  0.0744  1.1738
11805TIP3    H156830   2.849   0.234   3.295 -0.3404  1.4081 -0.7044
11805TIP3    H256831   2.925   0.350   3.356  0.1187  0.4134  0.6395
11806TIP3   OH256832   2.429   4.708  14.181  0.1572  0.2474  0.1993
11806TIP3    H156833   2.510   4.659  14.165  0.7592  1.2139  0.2180
11806TIP3    H256834   2.359   4.644  14.169  0.8912 -0.4408 -0.4705
11807TIP3   OH256835   5.083   4.901  16.664  0.0991 -0.0010  0.5107
11807TIP3    H156836   5.088   4.945  16.749  0.7219  0.3700  0.2817
11807TIP3    H256837   4.989   4.896  16.645 -0.0837 -0.6639  1.5160
11808TIP3   OH256838   3.189   1.726  13.506  0.1921  0.6715 -0.6887
11808TIP3    H156839   3.109   1.692  13.466  0.5310 -0.3556 -0.5076
11808TIP3    H256840   3.244   1.749  13.432 -0.0185  0.7723 -0.8152
11809TIP3   OH256841   1.553   1.815  13.142  0.0691 -0.2155  0.5125
11809TIP3    H156842   1.603   1.897  13.148 -0.5630  0.3175 -1.1666
11809TIP3    H256843   1.585   1.762  13.214  0.3298  1.6139  1.7668
11810TIP3   OH256844   5.126   6.248  11.952 -0.3066 -0.6546  0.0478
11810TIP3    H156845   5.104   6.177  12.012 -0.9059 -0.7814 -0.3222
11810TIP3    H256846   5.042   6.284  11.925 -0.0187 -0.1523 -0.1838
11811TIP3   OH256847   2.733   6.713  14.660  0.3020 -0.2005  0.2621
11811TIP3    H156848   2.683   6.793  14.643 -0.7191 -0.8202  0.3169
11811TIP3    H256849   2.759   6.721  14.752 -0.3594 -0.2290  0.4576
11812TIP3   OH256850   5.598   1.509   4.334 -0.6816 -0.3450  0.9074
11812TIP3    H156851   5.579   1.600   4.311  1.7410 -0.3094 -1.0952
11812TIP3    H256852   5.561   1.458   4.262  0.7709 -0.7056  0.4000
11813TIP3   OH256853   2.023   2.004  14.055 -0.6013 -0.0637  0.1800
11813TIP3    H156854   2.091   2.043  14.001  0.6088 -0.4800  1.3885
11813TIP3    H256855   1.947   1.997  13.996  0.1525  1.0802 -0.9574
11814TIP3   OH256856   5.518   2.502  13.767 -0.0788  0.1554 -0.1292
11814TIP3    H156857   5.424   2.516  13.779 -0.3405 -2.0807  0.7024
11814TIP3    H256858   5.559   2.549  13.840 -0.7810 -1.4063  1.3122
11815TIP3   OH256859   0.237   5.438   3.494 -0.0624 -0.3702 -0.3125
11815TIP3    H156860   0.273   5.503   3.434  2.4541 -1.8233 -0.4321
11815TIP3    H256861   0.204   5.369   3.437 -0.6395 -0.2689 -0.1057
11816TIP3   OH256862   1.181   5.535   4.315 -0.4309 -0.1066 -0.3163
11816TIP3    H156863   1.126   5.457   4.311 -0.0503 -0.3315 -1.4491
11816TIP3    H256864   1.143   5.588   4.385 -0.7507 -1.2513  0.3785
11817TIP3   OH256865   3.337   2.287  12.740  0.2473  0.2527  0.2640
11817TIP3    H156866   3.422   2.330  12.742 -0.2184  1.1984 -0.2381
11817TIP3    H256867   3.310   2.289  12.648 -0.1473 -0.3867  0.3539
11818TIP3   OH256868   0.589   1.974  11.409 -0.0429  0.1433 -0.3121
11818TIP3    H156869   0.538   2.030  11.351 -0.6820  1.4035  1.4025
11818TIP3    H256870   0.525   1.913  11.446 -0.1684  1.0807  1.0807
11819TIP3   OH256871   4.174   5.124   2.315 -0.3289 -0.2608 -0.4197
11819TIP3    H156872   4.146   5.124   2.223 -1.1542  0.0215 -0.1720
11819TIP3    H256873   4.257   5.173   2.315 -0.7235  0.4195 -0.8957
11820TIP3   OH256874   4.088   3.790  15.427  1.1681 -0.1180 -0.4741
11820TIP3    H156875   4.095   3.804  15.332  0.7506 -1.0601 -0.6548
11820TIP3    H256876   4.120   3.700  15.440  1.3314  0.0501  0.2920
11821TIP3   OH256877   4.988   5.461   2.786 -0.1766  0.2085 -0.9094
11821TIP3    H156878   4.963   5.461   2.694  0.7978 -0.6963 -1.1905
11821TIP3    H256879   4.908   5.486   2.833 -0.7567  0.3831 -1.9710
11822TIP3   OH256880   3.663   1.766  11.247  0.1339 -0.4300  0.2553
11822TIP3    H156881   3.643   1.673  11.252  2.2043 -1.0581 -1.7763
11822TIP3    H256882   3.694   1.789  11.334 -0.5290 -1.6168  0.8100
11823TIP3   OH256883   0.755   5.869  16.273  0.7495 -0.4020 -0.4774
11823TIP3    H156884   0.789   5.804  16.335  2.1848 -0.2970 -1.1475
11823TIP3    H256885   0.673   5.830  16.240  0.5658 -0.9645  0.6196
11824TIP3   OH256886   4.085   5.991   4.069  0.2124  0.5959  0.4409
11824TIP3    H156887   4.072   5.899   4.092  1.5692  0.3476  0.2432
11824TIP3    H256888   4.030   6.004   3.992  1.7495 -0.6509 -0.8875
11825TIP3   OH256889   3.920   2.451   2.339 -0.4603  0.0083  0.2036
11825TIP3    H156890   3.991   2.396   2.306 -0.1947 -0.4977  1.5806
11825TIP3    H256891   3.858   2.456   2.266  0.9644  0.4344 -0.9915
11826TIP3   OH256892   2.018   4.261   4.720  0.3562 -0.2344  0.2024
11826TIP3    H156893   1.966   4.303   4.788  0.9000 -0.3192  0.6664
11826TIP3    H256894   2.071   4.331   4.683 -0.5727 -0.0066 -0.7394
11827TIP3   OH256895   3.712   4.348   4.513 -0.7164  0.2485 -0.5626
11827TIP3    H156896   3.772   4.400   4.461  1.3924 -1.6139 -0.0680
11827TIP3    H256897   3.659   4.301   4.449  0.1351 -0.0932 -1.0237
11828TIP3   OH256898   3.246   0.434   2.054  0.0754  0.2428 -0.0672
11828TIP3    H156899   3.201   0.350   2.062  1.7084 -0.4749  2.0411
11828TIP3    H256900   3.203   0.491   2.117 -1.5038  1.2742 -1.9906
11829TIP3   OH256901   1.804   0.564  12.983  0.3850  0.2652 -0.2459
11829TIP3    H156902   1.816   0.617  13.062  0.5059  1.3612 -0.9949
11829TIP3    H256903   1.709   0.552  12.976  0.3156  0.8804 -0.3931
11830TIP3   OH256904   2.258   4.943   1.852 -0.2446 -0.0617  0.1660
11830TIP3    H156905   2.179   4.934   1.905  0.6558 -0.9966  1.3869
11830TIP3    H256906   2.317   4.876   1.887  1.3255  1.0860 -0.2828
11831TIP3   OH256907   1.196   4.520   4.858  0.1261  0.0942  0.0359
11831TIP3    H156908   1.105   4.539   4.880 -0.4373 -1.1805 -1.1384
11831TIP3    H256909   1.217   4.441   4.907  0.5323  0.2432  0.1096
11832TIP3   OH256910   6.194   2.437   4.113  0.1014 -0.3148 -0.7603
11832TIP3    H156911   6.137   2.464   4.041 -0.5549  2.3759  0.6792
11832TIP3    H256912   6.152   2.360   4.151 -1.8614  0.8035 -0.5933
11833TIP3   OH256913   1.882   4.310   2.246  0.0301 -0.3302  0.3272
11833TIP3    H156914   1.936   4.308   2.325  1.4889  0.6588 -0.6154
11833TIP3    H256915   1.851   4.220   2.236  1.5975 -0.9470  0.8228
11834TIP3   OH256916   3.360   1.612   2.038  0.3955  0.2035 -0.0153
11834TIP3    H156917   3.292   1.651   1.983 -0.3234 -0.3789  0.4542
11834TIP3    H256918   3.335   1.635   2.127  1.9575  1.7745  0.0540
11835TIP3   OH256919   3.909   1.865  15.276 -0.5474 -0.0250 -0.1540
11835TIP3    H156920   3.887   1.797  15.339 -0.8101 -1.6520 -1.9563
11835TIP3    H256921   3.999   1.846  15.249  0.6451  2.4078  1.8756
11836TIP3   OH256922   5.492   6.294  15.356  0.1804 -0.6042  0.4589
11836TIP3    H156923   5.551   6.366  15.333  0.1863 -1.1670 -1.3525
11836TIP3    H256924   5.475   6.306  15.449  1.1822  1.0171  0.4527
11837TIP3   OH256925   3.079   1.104  13.756 -0.0769  0.3754  0.5034
11837TIP3    H156926   3.026   1.124  13.678  0.9867  0.3822 -0.2255
11837TIP3    H256927   3.073   1.008  13.763 -2.3944  0.5907  2.0202
11838TIP3   OH256928   3.915   3.964   6.082  0.1979 -0.1473  0.1823
11838TIP3    H156929   3.908   4.020   6.158  0.5803  0.0039  0.1070
11838TIP3    H256930   3.865   3.886   6.105  0.3461 -0.1189  0.6016
11839TIP3   OH256931   3.272   5.240   1.596  0.0436 -0.4629 -0.5283
11839TIP3    H156932   3.279   5.212   1.687  3.1910  0.6494 -0.3590
11839TIP3    H256933   3.285   5.335   1.600 -2.8812  0.0491 -1.8567
11840TIP3   OH256934   5.837   5.780  15.237  0.4627  0.7494 -0.2330
11840TIP3    H156935   5.882   5.780  15.321  1.2186 -0.7884 -0.6364
11840TIP3    H256936   5.905   5.798  15.173  0.2506 -0.1558 -0.7123
11841TIP3   OH256937   2.384   2.163  16.487  0.4816 -0.3028  0.1047
11841TIP3    H156938   2.420   2.147  16.575 -0.6950  0.3683  0.7243
11841TIP3    H256939   2.316   2.096  16.477  1.6789 -1.3952 -0.9544
11842TIP3   OH256940   5.081   2.740   1.412 -0.2716 -0.2410 -0.1281
11842TIP3    H156941   5.142   2.697   1.351 -1.1826 -2.6130  0.5830
11842TIP3    H256942   4.999   2.747   1.363  0.3688  2.4813 -0.9024
11843TIP3   OH256943   5.556   5.828  14.928  0.6121  0.0057 -0.7099
11843TIP3    H156944   5.637   5.776  14.921  1.5191  1.4091 -0.8830
11843TIP3    H256945   5.554   5.856  15.020  0.9876  0.9972 -0.9947
11844TIP3   OH256946   5.941   6.218   0.163  0.2948 -0.1351 -0.5663
11844TIP3    H156947   5.968   6.294   0.214 -1.2520  0.1541 -0.1648
11844TIP3    H256948   5.851   6.236   0.137  0.3160 -1.2763 -1.5276
11845TIP3   OH256949   0.014   4.721  14.978 -0.3711 -0.5680  0.2088
11845TIP3    H156950  -0.001   4.696  15.069 -0.8721 -3.1364 -0.5418
11845TIP3    H256951   0.094   4.775  14.981 -1.5486  1.1521  2.3858
11846TIP3   OH256952   6.509   2.974   1.024  0.5041  0.7488 -0.3835
11846TIP3    H156953   6.498   3.056   1.073 -1.0472 -0.2345  0.9464
11846TIP3    H256954   6.420   2.949   1.000  1.1879  0.9010 -3.2446
11847TIP3   OH256955   5.385   4.627   6.116  0.3480 -0.1545  0.0984
11847TIP3    H156956   5.444   4.558   6.146  0.1891 -0.2669  0.1483
11847TIP3    H256957   5.417   4.706   6.159  0.1348 -0.3112  0.5380
11848TIP3   OH256958   2.595   2.046  13.804  0.1985 -0.0153 -0.4523
11848TIP3    H156959   2.629   1.982  13.742  0.7867  0.4320 -0.6010
11848TIP3    H256960   2.527   2.000  13.852 -1.0267 -0.0678 -2.1664
11849TIP3   OH256961   3.548   3.373  14.956 -0.6738  0.5828  0.3703
11849TIP3    H156962   3.598   3.349  14.878  0.7232 -0.5505  1.5833
11849TIP3    H256963   3.472   3.314  14.955  0.6903 -1.2099  1.2348
11850TIP3   OH256964   4.079   2.333  14.910 -0.1946 -0.0303 -0.0142
11850TIP3    H156965   4.101   2.356  15.000  0.2853  1.2669 -0.4448
11850TIP3    H256966   4.127   2.253  14.892 -2.1354 -1.5971  1.6468
11851TIP3   OH256967   2.220   5.464   2.198 -0.4686 -0.0519 -0.4378
11851TIP3    H156968   2.214   5.452   2.103 -2.1702 -2.6556 -0.0643
11851TIP3    H256969   2.312   5.488   2.213 -0.4974  1.7147 -2.8455
11852TIP3   OH256970   0.308   1.813   0.831 -0.2557 -0.0916 -0.2588
11852TIP3    H156971   0.230   1.770   0.797  0.0950 -0.2060 -0.9260
11852TIP3    H256972   0.371   1.808   0.760  0.0890  0.7316 -0.0148
11853TIP3   OH256973   3.112   0.636   1.030 -0.2545 -0.2544 -0.6509
11853TIP3    H156974   3.074   0.716   0.996 -1.2446 -0.6157 -0.3993
11853TIP3    H256975   3.182   0.665   1.089  0.1274  0.3952 -1.4089
11854TIP3   OH256976   4.364   4.064   6.611 -0.5557  0.4874 -0.0497
11854TIP3    H156977   4.435   4.121   6.640 -0.5805  0.5953 -0.1997
11854TIP3    H256978   4.356   3.998   6.680 -1.5145  1.5348  0.8586
11855TIP3   OH256979   0.985   0.492  11.459  0.1042 -0.3424  0.0127
11855TIP3    H156980   1.069   0.478  11.416 -0.3246  0.8696 -1.2399
11855TIP3    H256981   0.992   0.579  11.497 -0.7469 -0.0514 -0.4897
11856TIP3   OH256982   6.108   3.260  17.100  0.2977  0.3059  0.6045
11856TIP3    H156983   6.021   3.241  17.065  0.8078  0.0826 -0.5381
11856TIP3    H256984   6.167   3.252  17.025  1.4890 -0.8520  1.6499
11857TIP3   OH256985   6.321   0.306  15.802 -0.1404  0.4144  0.3106
11857TIP3    H156986   6.331   0.239  15.869  1.6621  0.3991  0.0495
11857TIP3    H256987   6.305   0.257  15.722  2.0953  0.2041 -0.0529
11858TIP3   OH256988   3.061   4.929   4.669  0.2052 -0.6178  0.5430
11858TIP3    H156989   3.149   4.966   4.657  0.3232 -0.1795  2.5714
11858TIP3    H256990   3.072   4.835   4.650  1.3408 -0.7380  1.7290
11859TIP3   OH256991   3.083   5.889   4.774  0.1368  0.4151  0.3525
11859TIP3    H156992   3.172   5.871   4.805  0.5517 -0.9709 -1.5790
11859TIP3    H256993   3.028   5.829   4.824  0.3670  0.6835  0.9411
11860TIP3   OH256994   6.749   0.536   2.948  0.1251 -0.2880 -0.3947
11860TIP3    H156995   6.811   0.492   2.889 -0.7975 -0.8835 -0.9277
11860TIP3    H256996   6.708   0.465   2.997  0.6116  0.1827  0.7039
11861TIP3   OH256997   5.274   1.815  14.854 -0.4441 -0.4902  0.5892
11861TIP3    H156998   5.329   1.806  14.932 -0.6669 -0.4715  0.7491
11861TIP3    H256999   5.325   1.775  14.784  0.0273  0.0366  0.6193
11862TIP3   OH257000   2.193   0.965  12.002  0.1755  1.0934  0.6398
11862TIP3    H157001   2.101   0.954  11.978  0.4183  1.0008 -0.2501
11862TIP3    H257002   2.220   1.046  11.958  1.0395  0.1087 -0.6468
11863TIP3   OH257003   4.967   1.895   1.028 -0.0130 -0.0682 -0.0103
11863TIP3    H157004   4.945   1.836   0.956 -1.5039  1.0101 -0.4665
11863TIP3    H257005   4.916   1.863   1.102 -0.3405  0.2683 -0.0899
11864TIP3   OH257006   0.545   1.334  14.883  0.1675  0.2750  0.6545
11864TIP3    H157007   0.486   1.270  14.844  0.6191  0.8981 -1.0650
11864TIP3    H257008   0.490   1.411  14.900  0.5221  0.9323 -1.1446
11865TIP3   OH257009   5.981   4.503  11.272 -0.3374 -0.2230 -0.0987
11865TIP3    H157010   5.960   4.490  11.179 -0.8972 -0.3049  0.0333
11865TIP3    H257011   5.895   4.509  11.314 -0.0882 -0.7404  0.4881
11866TIP3   OH257012   4.503   0.654  13.336  0.2614  0.7398 -0.9211
11866TIP3    H157013   4.462   0.569  13.323 -1.3241  1.6239 -1.7754
11866TIP3    H257014   4.506   0.665  13.431  1.4627 -0.7301 -0.7764
11867TIP3   OH257015   2.205   5.396  14.064 -0.0465 -0.0912  0.3770
11867TIP3    H157016   2.111   5.378  14.061 -0.0529  0.1670 -0.9528
11867TIP3    H257017   2.246   5.310  14.068 -0.2814 -0.2532 -0.6670
11868TIP3   OH257018   2.056   2.568   1.749  0.2348  0.5606 -0.1905
11868TIP3    H157019   2.144   2.575   1.785 -0.4743 -0.2684  1.7803
11868TIP3    H257020   2.014   2.651   1.773 -0.4102 -0.2132  1.4325
11869TIP3   OH257021   5.031   1.686  14.757  0.0915  0.4928  0.3515
11869TIP3    H157022   5.119   1.724  14.764  0.3098 -0.1215  1.0513
11869TIP3    H257023   4.977   1.756  14.721  1.1403  0.4575 -1.3313
11870TIP3   OH257024   4.394   5.563  15.238  0.4591 -0.3543  1.0166
11870TIP3    H157025   4.394   5.651  15.275 -0.7586  0.6077 -1.1875
11870TIP3    H257026   4.321   5.518  15.281 -0.5579  0.5607  0.2703
11871TIP3   OH257027   6.595   6.022  12.592  0.3579 -0.2027 -0.0338
11871TIP3    H157028   6.666   6.073  12.554 -0.6067  2.3103  1.3605
11871TIP3    H257029   6.543   5.993  12.517  1.4566  0.0650 -0.9054
11872TIP3   OH257030   3.494   5.755  14.396 -0.8404 -0.0309 -0.2021
11872TIP3    H157031   3.404   5.741  14.366 -1.5685 -1.0060  2.2847
11872TIP3    H257032   3.517   5.841  14.361 -2.7977  0.3087 -0.7564
11873TIP3   OH257033   2.660   6.766  12.937 -0.8875  0.5474  0.7732
11873TIP3    H157034   2.592   6.786  12.872 -0.8068  0.7490  0.7483
11873TIP3    H257035   2.654   6.672  12.950  0.3557  0.1788 -0.9622
11874TIP3   OH257036   0.101   1.210   3.127 -0.0310 -0.1047  0.3442
11874TIP3    H157037   0.056   1.153   3.065  0.7315 -0.5027  0.1539
11874TIP3    H257038   0.049   1.291   3.127 -0.4540 -0.3709 -0.2538
11875TIP3   OH257039   1.289   6.548   4.272  0.5457  0.1385  0.1363
11875TIP3    H157040   1.273   6.463   4.314  0.7593 -0.0175 -0.0978
11875TIP3    H257041   1.210   6.565   4.220  0.7712 -0.2190 -0.3245
11876TIP3   OH257042   5.145   4.717   0.822  0.0742  0.6118  0.1729
11876TIP3    H157043   5.054   4.693   0.843 -0.3530  1.2082 -0.9254
11876TIP3    H257044   5.150   4.811   0.841  0.2088  0.7621 -0.5924
11877TIP3   OH257045   4.229   0.267  11.700  0.0937 -0.2224  1.0585
11877TIP3    H157046   4.276   0.346  11.674  2.7521 -1.1310  2.9474
11877TIP3    H257047   4.239   0.208  11.626 -2.3061  1.3138 -0.5645
11878TIP3   OH257048   4.353   5.308  15.846 -0.7943  0.2023  0.0308
11878TIP3    H157049   4.433   5.328  15.895 -0.1346 -0.3583 -0.8003
11878TIP3    H257050   4.320   5.227  15.885 -1.0705  0.5492  0.5142
11879TIP3   OH257051   6.313   2.858   0.364 -0.2901  0.0016  0.4488
11879TIP3    H157052   6.235   2.898   0.326 -0.1645  0.3206  0.5227
11879TIP3    H257053   6.288   2.768   0.382  0.1859 -0.6412 -1.9681
11880TIP3   OH257054   2.643   4.162  14.342  0.6188  0.2246 -0.3027
11880TIP3    H157055   2.709   4.167  14.411  0.1850 -0.9879  0.2155
11880TIP3    H257056   2.600   4.248  14.342  1.0706  0.4441  0.4867
11881TIP3   OH257057   2.976   2.766  12.362 -0.0078 -0.1902  0.1353
11881TIP3    H157058   2.891   2.786  12.323  0.5166  1.4086 -0.2231
11881TIP3    H257059   2.957   2.748  12.454 -0.4853  2.5886  0.6352
11882TIP3   OH257060   0.950   5.576  13.732 -0.0673 -0.5580 -0.2973
11882TIP3    H157061   0.920   5.661  13.698  1.1640 -0.3647 -0.9477
11882TIP3    H257062   1.000   5.538  13.660  4.6124  0.8987  2.0122
11883TIP3   OH257063   3.503   1.520   6.331  0.7120 -0.5578 -0.3080
11883TIP3    H157064   3.482   1.577   6.405  0.5944 -0.8691 -0.0984
11883TIP3    H257065   3.462   1.561   6.256 -0.0942 -0.8125 -0.0173
11884TIP3   OH257066   3.033   4.375  14.341 -0.1343 -0.1123 -0.2039
11884TIP3    H157067   3.043   4.325  14.260  4.2063  2.4812 -1.4731
11884TIP3    H257068   3.093   4.333  14.403  0.1959  0.8042  0.1086
11885TIP3   OH257069   0.024   2.825  11.982  0.6247  0.4367  0.1643
11885TIP3    H157070  -0.030   2.871  12.047  1.5668  1.8531 -0.0222
11885TIP3    H257071  -0.024   2.745  11.964 -0.9749  1.2458  0.6737
11886TIP3   OH257072   3.542   4.348   3.837 -0.1508  0.0486 -0.4998
11886TIP3    H157073   3.612   4.354   3.771 -0.8637 -1.6054 -1.4355
11886TIP3    H257074   3.518   4.256   3.837  0.3137 -0.1098  2.6136
11887TIP3   OH257075   5.943   5.957   4.210 -0.0438 -0.1207  0.3510
11887TIP3    H157076   6.017   5.898   4.197 -0.7923 -0.9707 -0.0291
11887TIP3    H257077   5.867   5.909   4.178 -0.4365  1.6875 -1.4896
11888TIP3   OH257078   5.180   5.659   5.655  0.1330  0.1371  0.2213
11888TIP3    H157079   5.112   5.615   5.604  0.3735  0.4394 -0.3675
11888TIP3    H257080   5.228   5.588   5.698  1.0852 -0.2378 -1.4355
11889TIP3   OH257081   1.961   6.718  11.666 -0.6822 -0.4155 -0.1651
11889TIP3    H157082   1.935   6.770  11.590 -1.7706  0.2163  0.6319
11889TIP3    H257083   2.054   6.738  11.679 -0.2942 -1.0720 -1.7469
11890TIP3   OH257084   0.485   4.617  14.353 -0.3517 -0.9366  0.1990
11890TIP3    H157085   0.430   4.561  14.407 -0.2763 -1.5243 -0.3309
11890TIP3    H257086   0.523   4.680  14.415 -1.5967 -0.5324  0.5586
11891TIP3   OH257087   2.566   2.030   3.758 -0.8409 -0.5750  0.4390
11891TIP3    H157088   2.501   2.026   3.688  0.4258  0.1107 -0.8233
11891TIP3    H257089   2.561   1.944   3.800 -2.3186 -0.6450  0.1537
11892TIP3   OH257090   0.294   6.251   2.583  0.6059  0.3320  0.2421
11892TIP3    H157091   0.246   6.248   2.666  2.3080 -0.2381  1.2221
11892TIP3    H257092   0.244   6.193   2.524 -1.4133  1.8539  0.3922
11893TIP3   OH257093   6.053   4.240   3.310  0.1686  0.1395 -0.2909
11893TIP3    H157094   6.039   4.148   3.332  1.1589  0.2835  1.0393
11893TIP3    H257095   6.107   4.238   3.231  1.0606 -0.4471  0.3190
11894TIP3   OH257096   6.448   1.298   0.714 -0.5748  0.2078 -0.1987
11894TIP3    H157097   6.511   1.240   0.758 -1.9055 -1.1705 -0.0513
11894TIP3    H257098   6.421   1.248   0.636 -2.2363  0.3276  0.2810
11895TIP3   OH257099   3.445   1.471   3.644  0.0532  0.5857  0.7307
11895TIP3    H157100   3.513   1.518   3.693  0.7906 -0.3058  0.5833
11895TIP3    H257101   3.375   1.457   3.708 -0.2050  1.9164  0.7603
11896TIP3   OH257102   5.088   0.560  13.335 -0.1032 -0.1854 -0.2487
11896TIP3    H157103   5.149   0.495  13.298  0.8369  0.4336  0.1936
11896TIP3    H257104   5.002   0.520  13.326  0.6330 -2.3171  1.6829
11897TIP3   OH257105   6.647   4.773  15.720  0.4551  0.1066  0.6682
11897TIP3    H157106   6.553   4.756  15.731  0.1531  0.2362 -1.5482
11897TIP3    H257107   6.667   4.838  15.787 -1.4157  1.3316  0.0979
11898TIP3   OH257108   0.657   0.947  13.048 -0.5232 -0.2542  0.7212
11898TIP3    H157109   0.610   0.936  13.130 -1.1440 -0.2965  0.3590
11898TIP3    H257110   0.605   1.009  12.997  0.3097  0.4473  0.7010
11899TIP3   OH257111   0.086   3.795   0.042  0.1216 -0.1706  0.6305
11899TIP3    H157112   0.001   3.835   0.026  0.1218 -0.1859  0.5916
11899TIP3    H257113   0.098   3.803   0.137 -1.1264 -2.6095  1.0344
11900TIP3   OH257114   1.449   0.697   4.211  0.1501 -0.9998 -0.6015
11900TIP3    H157115   1.489   0.610   4.215  0.9814 -0.7542 -2.8443
11900TIP3    H257116   1.518   0.756   4.243  0.8873 -0.8009 -2.4992
11901TIP3   OH257117   3.314   2.340  16.377  0.4158  0.1431 -0.2547
11901TIP3    H157118   3.398   2.386  16.368 -0.3267  1.7297  0.7860
11901TIP3    H257119   3.295   2.310  16.288  2.5798 -1.1524 -0.3216
11902TIP3   OH257120   2.093   5.922   1.743  0.4789 -0.3920 -0.7351
11902TIP3    H157121   2.187   5.939   1.734  0.1679  0.5269 -2.5729
11902TIP3    H257122   2.072   5.944   1.833  1.7745  0.7570 -0.7040
11903TIP3   OH257123   4.124   5.750   0.364  1.1277  0.2237  0.1423
11903TIP3    H157124   4.115   5.839   0.398 -0.2565  0.0765  0.1943
11903TIP3    H257125   4.109   5.694   0.440  1.2209 -0.0655 -0.0519
11904TIP3   OH257126   0.622   4.073  14.518 -0.1246  0.1867 -0.0075
11904TIP3    H157127   0.597   4.161  14.488 -0.1387 -0.3204 -1.5372
11904TIP3    H257128   0.581   4.064  14.604  1.7057  2.5305  1.1743
11905TIP3   OH257129   1.573   6.202   1.124 -0.0206 -0.2867  0.1146
11905TIP3    H157130   1.609   6.120   1.160 -0.8920 -0.5896  0.2994
11905TIP3    H257131   1.515   6.235   1.192 -1.7884 -0.9285 -1.0413
11906TIP3   OH257132   2.425   2.865   1.846  0.8732  0.2923 -0.1462
11906TIP3    H157133   2.383   2.815   1.915  2.4182 -1.0690 -0.1451
11906TIP3    H257134   2.405   2.817   1.766  2.2031 -0.2468 -0.1700
11907TIP3   OH257135   2.030   0.274  15.799  0.0392  0.2594 -0.2968
11907TIP3    H157136   1.955   0.250  15.744 -1.4456  0.3991  1.6241
11907TIP3    H257137   2.050   0.194  15.848  0.7875  0.4020 -0.3548
11908TIP3   OH257138   1.393   5.545  12.923 -0.5969  0.2661 -0.4108
11908TIP3    H157139   1.358   5.632  12.907  0.2204  0.3574 -1.7134
11908TIP3    H257140   1.484   5.550  12.895 -0.5346 -0.9966 -0.4440
11909TIP3   OH257141   6.756   5.570   2.289  0.1541 -0.0158 -0.0804
11909TIP3    H157142   6.690   5.564   2.220  2.5015 -1.2723 -2.3069
11909TIP3    H257143   6.753   5.484   2.331 -0.0248  0.1302  0.2054
11910TIP3   OH257144   0.685   4.574   1.642  0.0548  0.5713 -0.4184
11910TIP3    H157145   0.740   4.533   1.575 -1.3900 -1.7461 -0.2240
11910TIP3    H257146   0.647   4.501   1.690 -2.5578  2.1325 -0.0190
11911TIP3   OH257147   2.399   5.234   0.604 -0.2093 -0.5568  0.3537
11911TIP3    H157148   2.310   5.200   0.597 -1.2134  2.0624 -0.3874
11911TIP3    H257149   2.412   5.248   0.698 -0.5029 -1.1211  0.4795
11912TIP3   OH257150   2.615   4.515  16.914  0.0103 -0.5148 -0.2496
11912TIP3    H157151   2.571   4.437  16.879  1.4423 -1.6304  0.4019
11912TIP3    H257152   2.664   4.483  16.990 -0.7687  1.3438  1.0791
11913TIP3   OH257153   5.057   2.803   5.224  0.1127 -0.7807 -0.6319
11913TIP3    H157154   5.089   2.868   5.162  0.3224  0.1566  0.4436
11913TIP3    H257155   5.128   2.793   5.287  0.8963 -3.5513 -1.8887
11914TIP3   OH257156   5.125   1.194  16.851  0.2444  0.2367 -0.1719
11914TIP3    H157157   5.199   1.255  16.859  1.0832 -0.6042 -1.2352
11914TIP3    H257158   5.087   1.214  16.765 -0.7072  0.6085  0.3368
11915TIP3   OH257159   3.331   2.503  14.340  0.1312  0.4305  0.8343
11915TIP3    H157160   3.417   2.472  14.309 -1.0683 -3.6147  1.2701
11915TIP3    H257161   3.296   2.553  14.267  1.2069 -1.2782 -0.9139
11916TIP3   OH257162   3.141   1.904   6.662 -0.2142  0.1068 -0.1331
11916TIP3    H157163   3.124   1.935   6.751  1.1347 -0.1238  0.2091
11916TIP3    H257164   3.198   1.828   6.673  0.1540  0.2190 -1.1980
11917TIP3   OH257165   1.935   5.773   4.542 -0.5896 -0.1305  0.4471
11917TIP3    H157166   1.849   5.812   4.525 -0.1157  0.1006 -1.5771
11917TIP3    H257167   1.981   5.780   4.459  0.1871 -3.3813  0.5333
11918TIP3   OH257168   5.357   0.975  15.913  0.5999  0.0134 -0.9061
11918TIP3    H157169   5.289   0.947  15.974 -0.1574  0.6152 -1.4833
11918TIP3    H257170   5.342   0.923  15.834 -0.1732  1.3101 -1.6063
11919TIP3   OH257171   5.753   2.051   0.731 -0.2969 -0.0905  0.1632
11919TIP3    H157172   5.702   2.109   0.788  1.5007  0.0141  1.7099
11919TIP3    H257173   5.761   1.970   0.780  3.3430  0.8034  1.2112
11920TIP3   OH257174   6.658   5.531   4.434 -0.1096 -0.1757 -0.5010
11920TIP3    H157175   6.637   5.544   4.526  1.8952 -2.2942  0.3145
11920TIP3    H257176   6.574   5.535   4.389 -1.4060 -1.4845  1.7308
11921TIP3   OH257177   3.352   4.460   4.801 -0.1074 -0.1867 -0.0090
11921TIP3    H157178   3.270   4.479   4.846  0.3818 -1.3724  1.4510
11921TIP3    H257179   3.359   4.364   4.803  0.8000 -0.1481 -1.0163
11922TIP3   OH257180   0.747   2.274   3.200 -1.1231  0.1534 -0.3051
11922TIP3    H157181   0.807   2.280   3.125 -0.5648  1.6587  0.2416
11922TIP3    H257182   0.682   2.210   3.173 -0.8913  0.6237 -2.0651
11923TIP3   OH257183   0.795   5.599  11.471  0.3213 -0.1568 -0.6302
11923TIP3    H157184   0.831   5.511  11.460  1.7153  0.1905  0.8466
11923TIP3    H257185   0.764   5.624  11.384  2.2047 -1.1261 -1.6084
11924TIP3   OH257186   4.439   5.388   4.995 -0.3921 -0.4861 -0.1765
11924TIP3    H157187   4.440   5.452   4.924 -1.2248  0.0987  0.3301
11924TIP3    H257188   4.515   5.332   4.978 -0.6473 -0.4118 -1.5703
11925TIP3   OH257189   0.057   2.523   0.485  0.1814  0.1844  0.4004
11925TIP3    H157190   0.060   2.501   0.392  0.0885  0.0581  0.4259
11925TIP3    H257191   0.140   2.567   0.503  0.0611  0.5028  0.1835
11926TIP3   OH257192   1.547   1.952  13.944  0.0520 -0.4363 -0.4774
11926TIP3    H157193   1.630   1.977  13.902  1.5121 -2.6741  0.9416
11926TIP3    H257194   1.540   2.011  14.019 -0.1150  0.3690 -1.1175
11927TIP3   OH257195   3.566   4.963   0.285  0.2975 -0.0313 -0.0764
11927TIP3    H157196   3.567   4.870   0.262  0.1552 -0.5287  1.8986
11927TIP3    H257197   3.638   4.973   0.347  0.0145  1.0813  0.0774
11928TIP3   OH257198   0.691   0.365   0.302  0.0280 -0.0789 -0.2766
11928TIP3    H157199   0.715   0.273   0.297  0.5236  0.0983 -1.2907
11928TIP3    H257200   0.596   0.367   0.290  0.1107 -0.3965 -0.9999
11929TIP3   OH257201   6.582   5.528   4.918  0.1636 -0.4448  0.4622
11929TIP3    H157202   6.573   5.439   4.884 -0.0657 -0.4255  0.4699
11929TIP3    H257203   6.624   5.517   5.003  2.4407 -0.3522 -0.6176
11930TIP3   OH257204   0.231   3.552  14.587  0.5856 -0.5393  0.0182
11930TIP3    H157205   0.305   3.592  14.631  0.2929 -1.5896  1.5086
11930TIP3    H257206   0.269   3.480  14.536  0.7983  0.0346 -0.6390
11931TIP3   OH257207   1.996   2.380  14.400  0.5679 -0.3106 -0.0919
11931TIP3    H157208   2.061   2.449  14.410 -0.8034  0.8292  1.1052
11931TIP3    H257209   2.047   2.299  14.399  1.9131  0.4819  2.0004
11932TIP3   OH257210   0.920   0.974  11.678 -0.1203 -0.7713  0.2024
11932TIP3    H157211   0.927   0.896  11.624 -3.1344 -0.5342 -0.6113
11932TIP3    H257212   0.966   1.042  11.628 -1.6598 -0.9025 -1.4440
11933TIP3   OH257213   3.425   4.563  12.044  0.0494 -0.3926 -0.0244
11933TIP3    H157214   3.356   4.564  11.978  0.7486 -0.4961 -0.7533
11933TIP3    H257215   3.419   4.649  12.086 -1.0325 -0.6918  0.4505
11934TIP3   OH257216   2.440   3.818  15.358 -0.0136 -0.3574  0.7256
11934TIP3    H157217   2.417   3.777  15.442 -2.2605  0.6292  0.6255
11934TIP3    H257218   2.480   3.901  15.382  0.3099 -0.5491  0.8483
11935TIP3   OH257219   0.504   2.442  13.849  0.2849  0.5756  0.0602
11935TIP3    H157220   0.522   2.434  13.943 -1.2994 -0.4129  0.2919
11935TIP3    H257221   0.589   2.465  13.811  1.2435 -0.3432  1.5662
11936TIP3   OH257222   3.033   0.884  11.958  0.0079 -0.8726  0.0161
11936TIP3    H157223   2.974   0.824  12.003 -0.3442 -0.2396  0.4139
11936TIP3    H257224   3.115   0.836  11.949  0.4543 -0.6086  2.3669
11937TIP3   OH257225   2.509   1.052  13.600 -0.1505 -0.2520  0.3494
11937TIP3    H157226   2.449   1.103  13.655  0.4434 -0.2565  1.0116
11937TIP3    H257227   2.580   1.112  13.579 -0.8508  0.0466 -1.2478
11938TIP3   OH257228   1.410   3.016  14.703  0.0146 -0.2493  0.0041
11938TIP3    H157229   1.428   2.963  14.781 -0.0303  1.7305  1.4015
11938TIP3    H257230   1.481   3.080  14.701 -0.1540 -0.0948 -1.4289
11939TIP3   OH257231   6.318   2.838   3.003 -0.5670  0.0030 -0.2693
11939TIP3    H157232   6.223   2.830   3.013 -0.4541  1.3439  2.2414
11939TIP3    H257233   6.346   2.891   3.078  1.9930  0.8230 -1.7388
11940TIP3   OH257234   3.274   6.344  11.725  0.2757 -0.0674 -0.2807
11940TIP3    H157235   3.202   6.357  11.663 -0.2837  1.5928  0.6999
11940TIP3    H257236   3.261   6.411  11.792  0.1262 -2.6587  2.3808
11941TIP3   OH257237   6.547   3.450  11.497 -0.3939 -0.1489  0.2799
11941TIP3    H157238   6.629   3.435  11.449  0.0924  1.2663  0.6290
11941TIP3    H257239   6.514   3.532  11.461 -0.8561  0.0829  1.2434
11942TIP3   OH257240   4.180   0.908  11.219  0.1784 -0.1821 -0.2521
11942TIP3    H157241   4.121   0.863  11.279  0.1371 -0.2020 -0.3068
11942TIP3    H257242   4.267   0.895  11.256  0.0259  0.9087  0.5021
11943TIP3   OH257243   0.275   5.169   3.304 -0.0489 -0.0515  0.3316
11943TIP3    H157244   0.253   5.083   3.268 -0.1132 -0.8004  2.1345
11943TIP3    H257245   0.192   5.207   3.330 -0.0286  0.6104 -0.5314
11944TIP3   OH257246   4.684   0.475   1.529 -0.2577  0.0368  0.1665
11944TIP3    H157247   4.708   0.498   1.619  1.1689 -1.4815  0.1982
11944TIP3    H257248   4.653   0.385   1.535  1.0876 -0.5364 -1.0493
11945TIP3   OH257249   2.872   4.424  13.005  0.3731  0.0431  0.1336
11945TIP3    H157250   2.787   4.417  12.961 -0.5158  0.7789  1.6831
11945TIP3    H257251   2.922   4.349  12.974 -0.9142 -0.4851 -0.6750
11946TIP3   OH257252   1.348   6.757  12.403 -0.3609  0.4161  0.5278
11946TIP3    H157253   1.335   6.848  12.376  0.4830 -0.0281 -1.4303
11946TIP3    H257254   1.433   6.758  12.448 -0.4254  0.6095  0.6499
11947TIP3   OH257255   5.765   1.407   3.857 -0.2421 -0.4342 -1.3284
11947TIP3    H157256   5.773   1.396   3.951  0.2263 -1.9211 -1.5258
11947TIP3    H257257   5.834   1.471   3.834  1.1159 -1.7462 -0.9595
11948TIP3   OH257258   1.181   3.098   2.849 -0.2018 -0.0654 -0.8309
11948TIP3    H157259   1.113   3.143   2.899  0.5610 -1.0531  1.1537
11948TIP3    H257260   1.171   3.005   2.873  3.0341 -0.0186  1.0119
11949TIP3   OH257261   5.215   6.288  13.427  0.3171 -0.0866  0.1770
11949TIP3    H157262   5.193   6.222  13.361  1.7741 -0.0848 -0.3064
11949TIP3    H257263   5.136   6.343  13.431  0.3609  0.1961 -1.9000
11950TIP3   OH257264   1.228   1.660  13.201  0.1863 -0.8472 -0.2821
11950TIP3    H157265   1.160   1.605  13.240  0.4190 -1.1362 -0.2898
11950TIP3    H257266   1.203   1.666  13.108 -0.1686 -0.4509 -0.1649
11951TIP3   OH257267   1.288   6.574   2.039 -0.6778  0.7082  0.2938
11951TIP3    H157268   1.354   6.509   2.014 -0.9154  1.1306 -1.4965
11951TIP3    H257269   1.313   6.653   1.991 -0.2850  2.0052  2.6060
11952TIP3   OH257270   3.835   1.959  10.334 -0.3196  0.6808  0.3591
11952TIP3    H157271   3.877   1.895  10.277 -0.4824  0.9416 -0.0484
11952TIP3    H257272   3.750   1.921  10.356 -1.3463  1.7446 -1.6608
11953TIP3   OH257273   1.536   3.246  17.127 -0.7220  0.3507  0.2442
11953TIP3    H157274   1.510   3.338  17.140 -0.3282  0.4137  0.5876
11953TIP3    H257275   1.465   3.196  17.168 -0.7978  0.5040  0.3049
11954TIP3   OH257276   3.570   2.210   4.498  0.2901  0.2312 -0.2219
11954TIP3    H157277   3.548   2.135   4.553  0.0004 -1.7037 -2.8323
11954TIP3    H257278   3.486   2.235   4.459  0.5807  1.1932 -0.2343
11955TIP3   OH257279   4.016   2.388  10.894 -0.3066  0.2866  0.4067
11955TIP3    H157280   3.993   2.472  10.854 -1.7317 -0.7569 -1.0497
11955TIP3    H257281   4.060   2.340  10.824 -2.5435 -1.4403  0.1167
11956TIP3   OH257282   1.307   4.127  14.249 -0.1265 -0.7449  0.2345
11956TIP3    H157283   1.232   4.088  14.293  0.1832 -0.3100  1.1523
11956TIP3    H257284   1.367   4.055  14.233 -0.5341 -1.0154 -0.0956
11957TIP3   OH257285   6.735   6.100  15.965 -0.0874  0.2649  0.3840
11957TIP3    H157286   6.704   6.010  15.966  1.0127 -0.1127  0.8848
11957TIP3    H257287   6.677   6.146  16.026  0.8248 -0.6097  1.9445
11958TIP3   OH257288   2.749   4.491   0.386  0.6006  0.3120  0.1421
11958TIP3    H157289   2.694   4.473   0.309  1.3522 -2.8381  0.2783
11958TIP3    H257290   2.827   4.532   0.351  0.3242  0.1911 -0.6273
11959TIP3   OH257291   6.753   6.168  14.750 -0.2328  0.3706  0.1833
11959TIP3    H157292   6.719   6.202  14.667 -0.6864 -1.2890 -0.3416
11959TIP3    H257293   6.831   6.220  14.768  0.4883  0.0465 -1.8649
11960TIP3   OH257294   2.836   2.987  13.813  0.4964 -0.6603 -0.2556
11960TIP3    H157295   2.906   2.921  13.808  0.4192 -1.0924  3.3747
11960TIP3    H257296   2.880   3.066  13.842 -0.3300 -0.6612  1.0382
11961TIP3   OH257297   4.935   6.012   5.765  0.8592 -0.3657  0.6414
11961TIP3    H157298   5.019   5.984   5.728  0.3248 -0.2808 -0.6859
11961TIP3    H257299   4.956   6.089   5.818  1.3231  0.9774 -1.4274
11962TIP3   OH257300   2.572   5.082   4.750 -0.1944 -0.1748  0.1867
11962TIP3    H157301   2.655   5.040   4.772 -0.1680 -0.7394 -0.9555
11962TIP3    H257302   2.534   5.027   4.681 -1.6885 -0.1258  0.9345
11963TIP3   OH257303   2.491   3.083   2.001  0.4407  1.1362 -0.6726
11963TIP3    H157304   2.586   3.093   1.998  0.3035  1.8604 -4.4169
11963TIP3    H257305   2.474   3.004   1.950 -1.0734  1.7835 -1.1852
11964TIP3   OH257306   5.792   5.860  13.330  0.5698 -0.1531  0.1247
11964TIP3    H157307   5.779   5.863  13.236 -0.4915  0.7964  0.2919
11964TIP3    H257308   5.726   5.920  13.366 -0.2354 -1.8506  1.5908
11965TIP3   OH257309   3.017   6.020   6.444 -0.3918  0.1019 -0.2634
11965TIP3    H157310   3.060   5.983   6.367  0.5910 -0.4313  0.5214
11965TIP3    H257311   3.047   6.111   6.447  2.1007 -0.7107  1.2254
11966TIP3   OH257312   3.119   1.573  14.834 -0.4736  0.1679  0.3747
11966TIP3    H157313   3.091   1.526  14.756 -0.5440  1.8290 -0.6313
11966TIP3    H257314   3.041   1.622  14.862  0.0543  0.9848  0.4326
11967TIP3   OH257315   0.634   6.566  12.086 -0.3421 -0.6269 -0.2630
11967TIP3    H157316   0.589   6.556  12.002  1.7127 -0.4260 -1.4282
11967TIP3    H257317   0.652   6.477  12.115  1.3314 -0.6959 -1.4050
11968TIP3   OH257318   6.155   1.218  15.085 -0.0515  0.2199  0.4647
11968TIP3    H157319   6.125   1.130  15.107 -1.5645  0.9491  1.4324
11968TIP3    H257320   6.135   1.228  14.992 -2.3176  0.4396  0.9316
11969TIP3   OH257321   1.414   1.869   4.067 -0.1374 -0.1639 -0.1287
11969TIP3    H157322   1.457   1.783   4.072 -1.0897 -0.6633 -0.4346
11969TIP3    H257323   1.375   1.881   4.154  0.1896  0.0722 -0.0110
11970TIP3   OH257324   4.791   1.083  10.322 -0.7020  0.4590  0.2147
11970TIP3    H157325   4.725   1.134  10.369  0.6045  1.2989  1.1981
11970TIP3    H257326   4.871   1.136  10.329  0.0397 -0.4629 -1.0739
11971TIP3   OH257327   2.447   2.029  12.698 -0.1824  0.3395  0.1773
11971TIP3    H157328   2.382   2.029  12.628 -0.2701  0.4071  0.2578
11971TIP3    H257329   2.527   2.062  12.657 -0.9154  2.9005  0.7323
11972TIP3   OH257330   1.528   6.150  10.660  0.1786  0.0731 -0.2748
11972TIP3    H157331   1.611   6.102  10.667 -0.0192 -0.3649 -0.9696
11972TIP3    H257332   1.466   6.099  10.712  0.0763 -0.1866 -0.6524
11973TIP3   OH257333   1.945   3.952   5.122 -0.5286  0.1354 -0.9835
11973TIP3    H157334   1.864   3.904   5.106 -0.4450 -0.3925  0.1399
11973TIP3    H257335   1.985   3.908   5.197 -0.0826  1.4754 -0.4002
11974TIP3   OH257336   3.444   1.168   2.547 -0.1473  0.0407  0.1886
11974TIP3    H157337   3.415   1.259   2.549 -2.7123 -0.7561  2.7165
11974TIP3    H257338   3.511   1.163   2.614 -0.6777 -0.1119  0.7155
11975TIP3   OH257339   4.072   3.513  14.552  0.5766  0.7453  0.2670
11975TIP3    H157340   4.161   3.534  14.523  0.9742  0.8876  1.5925
11975TIP3    H257341   4.084   3.460  14.631 -0.4853 -0.7609 -0.5378
11976TIP3   OH257342   6.411   2.714   1.603  0.0045  0.4177  0.0812
11976TIP3    H157343   6.427   2.620   1.599 -0.2276  0.3618  0.4468
11976TIP3    H257344   6.492   2.751   1.635  0.7242  0.5282 -1.8103
11977TIP3   OH257345   0.859   5.312  11.467  0.1773  0.4144 -0.0912
11977TIP3    H157346   0.919   5.241  11.446 -0.6250 -0.7463  1.3974
11977TIP3    H257347   0.799   5.274  11.532  0.0024  2.5780  1.0574
11978TIP3   OH257348   5.839   6.609   4.547  0.5124  0.2198 -0.3019
11978TIP3    H157349   5.769   6.672   4.527  1.9651  1.4665 -1.6380
11978TIP3    H257350   5.883   6.596   4.463  2.5997  0.3449  0.7568
11979TIP3   OH257351   1.266   4.049  13.971  0.6743  0.1978 -0.1425
11979TIP3    H157352   1.268   4.099  14.053  0.1230  0.2482 -0.1619
11979TIP3    H257353   1.299   4.110  13.905  0.2540  0.4452 -0.1196
11980TIP3   OH257354   2.548   1.100   3.629  0.1285 -0.2843  0.6929
11980TIP3    H157355   2.459   1.089   3.664 -0.3018  1.0087  0.0386
11980TIP3    H257356   2.598   1.133   3.703 -0.4794  1.1998  0.4524
11981TIP3   OH257357   3.641   3.431  15.196 -0.0260 -0.0110 -0.0714
11981TIP3    H157358   3.640   3.526  15.198 -0.2938 -0.0117 -0.1494
11981TIP3    H257359   3.581   3.408  15.125 -0.2995 -0.2504  0.2397
11982TIP3   OH257360   2.103   2.911   6.228 -0.3464 -0.6930 -0.6500
11982TIP3    H157361   2.015   2.923   6.194 -1.1532  0.1715  1.6445
11982TIP3    H257362   2.151   2.989   6.200 -0.6854 -0.5273 -0.7620
11983TIP3   OH257363   1.969   4.880  16.474 -0.3749  0.1557 -0.4216
11983TIP3    H157364   1.932   4.898  16.387 -0.8256  2.6699  0.2543
11983TIP3    H257365   1.986   4.967  16.511  0.5291 -0.9010  1.7037
11984TIP3   OH257366   4.510   2.277  14.990 -0.5419  0.3147  0.2635
11984TIP3    H157367   4.486   2.233  14.908 -1.7793  0.1260  0.7168
11984TIP3    H257368   4.567   2.349  14.963 -1.1673  0.4214 -0.7883
11985TIP3   OH257369   3.693   6.785   1.773  0.3206  0.4251 -0.1037
11985TIP3    H157370   3.754   6.855   1.792 -1.3550  1.5645  1.1641
11985TIP3    H257371   3.639   6.778   1.851  1.2082 -3.0879  0.2811
11986TIP3   OH257372   0.919   1.194   4.769 -0.2632 -0.3504  0.3001
11986TIP3    H157373   0.829   1.172   4.793 -0.4796 -0.0829 -0.2650
11986TIP3    H257374   0.962   1.213   4.853 -0.5773 -1.0417  0.6222
11987TIP3   OH257375   0.562   1.356   1.599 -0.5196  0.0043  0.1487
11987TIP3    H157376   0.523   1.420   1.540  2.6022  1.2439 -0.7134
11987TIP3    H257377   0.512   1.365   1.680 -2.0387  1.4402 -0.9039
11988TIP3   OH257378   4.690   4.381   3.848 -0.3816  0.0433  0.5226
11988TIP3    H157379   4.658   4.296   3.816  0.1827  0.3502 -0.8740
11988TIP3    H257380   4.769   4.398   3.798 -0.0907  1.0698  1.3065
11989TIP3   OH257381   2.508   5.956   3.700 -0.0472 -0.8283 -0.0975
11989TIP3    H157382   2.419   5.932   3.725 -0.1937 -0.6389 -0.4402
11989TIP3    H257383   2.506   5.961   3.605 -0.0731  0.7575 -0.0231
11990TIP3   OH257384   5.640   4.283   0.407 -0.1022  0.4653  0.2629
11990TIP3    H157385   5.702   4.276   0.479 -0.1315  0.4378  0.2854
11990TIP3    H257386   5.573   4.217   0.426  0.1277  0.1447 -0.0259
11991TIP3   OH257387   4.379   0.050   6.036 -0.1915  0.0950  0.0759
11991TIP3    H157388   4.325   0.068   5.959  0.7355  3.0422  0.0660
11991TIP3    H257389   4.338   0.100   6.107  0.8576  0.0468  0.7259
11992TIP3   OH257390   6.002   4.373   0.804  0.1764 -0.4527  0.5976
11992TIP3    H157391   5.908   4.376   0.820 -0.0744 -3.0680 -0.2056
11992TIP3    H257392   6.038   4.323   0.877  0.8745 -0.0741  0.5228
11993TIP3   OH257393   6.537   1.455  11.655  0.0161 -0.1612 -0.1776
11993TIP3    H157394   6.626   1.491  11.658  0.6298 -1.4912 -1.7098
11993TIP3    H257395   6.540   1.381  11.716  0.2072 -0.7206 -0.8613
11994TIP3   OH257396   5.964   6.463   2.543  0.4455 -0.1712 -0.0609
11994TIP3    H157397   5.912   6.531   2.500  1.6256 -0.7904 -2.4999
11994TIP3    H257398   6.042   6.509   2.574  0.2440 -0.0155  0.2292
11995TIP3   OH257399   1.272   6.727  16.690 -0.6891 -0.6911 -0.4303
11995TIP3    H157400   1.293   6.695  16.602  1.2157 -1.4131  0.2600
11995TIP3    H257401   1.339   6.688  16.746  0.1085  2.4253  0.8627
11996TIP3   OH257402   3.816   5.601   6.589 -0.1717 -0.5243 -0.1489
11996TIP3    H157403   3.900   5.627   6.551 -0.6721  2.3240  0.6458
11996TIP3    H257404   3.751   5.657   6.546 -1.2544 -0.3285  1.7017
11997TIP3   OH257405   3.013   5.500   1.774  0.0850 -0.1104  0.0072
11997TIP3    H157406   3.084   5.473   1.716  0.1773 -0.1300  0.1285
11997TIP3    H257407   2.951   5.427   1.772 -1.6032  1.3316 -2.7930
11998TIP3   OH257408   2.950   2.876   0.275 -0.2190 -0.2841  0.2046
11998TIP3    H157409   2.980   2.931   0.347 -1.2036  0.0383  0.3639
11998TIP3    H257410   2.878   2.825   0.311 -0.2592 -0.6274 -0.3534
11999TIP3   OH257411   0.012   3.847  12.461  0.2133 -0.3293 -0.5862
11999TIP3    H157412   0.010   3.775  12.524  1.5397 -0.8973 -1.1707
11999TIP3    H257413  -0.072   3.843  12.417 -0.6751 -0.0235  1.0294
12000TIP3   OH257414   2.528   3.193  15.225 -0.0224  0.0311  0.3447
12000TIP3    H157415   2.612   3.237  15.209 -0.2283 -0.6491 -2.8762
12000TIP3    H257416   2.462   3.255  15.196 -0.5851 -0.1718  1.1566
12001TIP3   OH257417   5.474   5.233  12.416 -0.4089  0.8480 -0.0677
12001TIP3    H157418   5.462   5.152  12.464 -0.1590  1.2651  0.7045
12001TIP3    H257419   5.389   5.276  12.418 -0.4180  0.8296 -0.0665
12002TIP3   OH257420   2.668   3.840  14.301 -0.1530 -0.0022  0.0597
12002TIP3    H157421   2.701   3.901  14.235  1.2865 -2.0554 -1.1859
12002TIP3    H257422   2.733   3.842  14.370  0.4334 -0.9106 -0.4653
12003TIP3   OH257423   4.771   0.151   4.361 -0.5175  0.4167 -0.1633
12003TIP3    H157424   4.820   0.070   4.351 -0.9210  0.2402 -0.6779
12003TIP3    H257425   4.838   0.220   4.351 -0.4866  0.1926 -1.5402
12004TIP3   OH257426   2.625   1.191  16.146 -0.2156  0.4106 -0.1954
12004TIP3    H157427   2.698   1.215  16.202 -1.2534  0.8358  1.0088
12004TIP3    H257428   2.631   1.251  16.071  1.1027 -0.0717 -0.4847
12005TIP3   OH257429   6.477   3.195   5.676 -0.2073 -0.0520 -0.4981
12005TIP3    H157430   6.546   3.169   5.616  1.1223  1.7900  0.2105
12005TIP3    H257431   6.463   3.118   5.731  1.4316 -0.3654 -0.4993
12006TIP3   OH257432   1.698   4.082   2.213  0.2766  0.2251 -0.5227
12006TIP3    H157433   1.703   3.991   2.184  0.7024 -0.0485  0.3991
12006TIP3    H257434   1.604   4.098   2.224  0.1137  0.3365 -2.0464
12007TIP3   OH257435   0.567   1.422  12.924  0.1282  0.3880  0.4274
12007TIP3    H157436   0.560   1.346  12.866 -0.0459  1.0237 -0.3809
12007TIP3    H257437   0.531   1.391  13.007 -1.8504  0.2110 -0.4847
12008TIP3   OH257438   1.111   2.534  11.405 -0.5284 -0.9968  0.2284
12008TIP3    H157439   1.175   2.521  11.474  1.2672  1.3285 -0.9462
12008TIP3    H257440   1.160   2.524  11.324 -0.4181  5.4340 -0.7613
12009TIP3   OH257441   0.843   5.998   5.629 -0.1667  0.1072  0.0766
12009TIP3    H157442   0.797   5.936   5.572  1.1419 -0.6474 -0.1704
12009TIP3    H257443   0.904   6.044   5.571 -2.0241  2.5931 -0.0154
12010TIP3   OH257444   4.159   2.429  16.250 -0.4332 -0.2774  0.3784
12010TIP3    H157445   4.203   2.514  16.250 -0.7833 -0.0886 -0.1068
12010TIP3    H257446   4.186   2.388  16.168 -1.0305 -0.2210  0.1470
12011TIP3   OH257447   0.894   6.553  11.644  0.1211 -0.0691  0.1080
12011TIP3    H157448   0.800   6.539  11.629 -0.0812  0.6776  0.6674
12011TIP3    H257449   0.898   6.631  11.699  1.1594  1.3311 -1.8914
12012TIP3   OH257450   2.214   0.934  15.542  0.2292 -0.2559  0.3874
12012TIP3    H157451   2.306   0.945  15.566 -0.2083  0.6467  1.6220
12012TIP3    H257452   2.211   0.959  15.449  1.1704 -0.0498  0.4065
12013TIP3   OH257453   3.555   3.334  14.208 -0.4480  0.2254  0.1199
12013TIP3    H157454   3.576   3.394  14.280  0.6958  1.3365 -1.1227
12013TIP3    H257455   3.589   3.377  14.130  0.1169 -1.9093 -0.8385
12014TIP3   OH257456   6.695   5.468   6.108 -0.1805  0.0100 -0.0540
12014TIP3    H157457   6.724   5.545   6.157  1.1297 -0.9926  0.7895
12014TIP3    H257458   6.621   5.498   6.056  0.0770  1.7382  0.5723
12015TIP3   OH257459   0.814   0.589   4.063 -0.3468 -0.0543  0.2098
12015TIP3    H157460   0.897   0.543   4.078  0.7468  1.5189 -0.8505
12015TIP3    H257461   0.784   0.557   3.978 -2.7439 -3.3739  2.2055
12016TIP3   OH257462   5.115   0.651  17.205 -0.8628 -0.2805  0.3928
12016TIP3    H157463   5.128   0.556  17.208  0.2025 -0.1961 -0.9972
12016TIP3    H257464   5.095   0.669  17.113  1.8383  1.1762  0.0292
12017TIP3   OH257465   2.732   2.055  16.552  0.0653 -0.4834  0.3569
12017TIP3    H157466   2.709   2.102  16.632 -1.3390 -0.4449 -0.0533
12017TIP3    H257467   2.670   1.982  16.548 -1.1592  0.6064 -1.6732
12018TIP3   OH257468   5.584   2.704  13.044  0.1486  0.1088 -0.4527
12018TIP3    H157469   5.618   2.767  12.982  0.8006  0.1146 -0.0931
12018TIP3    H257470   5.490   2.698  13.024 -0.3276  2.6879  0.8260
12019TIP3   OH257471   2.127   5.128   2.810 -0.0096 -0.0918  0.3177
12019TIP3    H157472   2.079   5.103   2.889  1.3127 -1.0776  0.8156
12019TIP3    H257473   2.103   5.061   2.746  1.0719 -0.8581  0.7104
12020TIP3   OH257474   0.197   0.399  13.390  0.0754  0.3890  0.2125
12020TIP3    H157475   0.287   0.380  13.362  0.8466  1.2194  2.0236
12020TIP3    H257476   0.198   0.491  13.416 -1.1991  0.3046  0.6243
12021TIP3   OH257477   0.832   1.214  14.084 -0.4029  0.3493 -0.5577
12021TIP3    H157478   0.854   1.184  14.172  0.6724 -1.2446 -1.3580
12021TIP3    H257479   0.857   1.306  14.083 -0.2060  0.3122  0.7241
12022TIP3   OH257480   4.397   6.445   1.837  0.6662  0.1570 -0.4010
12022TIP3    H157481   4.361   6.489   1.914 -0.2058  1.0134 -1.2910
12022TIP3    H257482   4.477   6.493   1.816 -0.8739  2.0539 -2.0485
12023TIP3   OH257483   3.564   0.280   4.857 -0.1697  0.0713  0.3592
12023TIP3    H157484   3.659   0.274   4.844 -0.0771 -0.8915  1.4547
12023TIP3    H257485   3.544   0.373   4.842  0.7750  0.0772 -0.9355
12024TIP3   OH257486   6.268   4.486  15.676 -0.6441 -0.1844 -0.4139
12024TIP3    H157487   6.233   4.518  15.759  1.4111  0.7259  0.1533
12024TIP3    H257488   6.279   4.392  15.688 -1.8640 -0.3046 -0.2300
12025TIP3   OH257489   5.660   5.645   5.372  0.6213  0.3229  0.4145
12025TIP3    H157490   5.611   5.563   5.364  1.1030 -0.0965  1.5657
12025TIP3    H257491   5.751   5.617   5.383  1.3293  1.1246 -2.9341
12026TIP3   OH257492   2.583   6.092   4.999 -0.4286  0.4417 -0.1100
12026TIP3    H157493   2.510   6.055   5.050  0.4909 -2.6319 -0.9266
12026TIP3    H257494   2.540   6.146   4.933 -1.7803  1.8003  1.8125
12027TIP3   OH257495   4.997   0.527  15.894 -0.4858  0.0671  0.0552
12027TIP3    H157496   4.950   0.533  15.811  0.6584  0.8373 -0.5366
12027TIP3    H257497   4.927   0.518  15.959 -1.4552  1.0710 -0.8234
12028TIP3   OH257498   0.135   6.480   4.604 -0.4278 -0.0104 -0.2985
12028TIP3    H157499   0.141   6.572   4.628  1.6140 -0.1702 -0.1562
12028TIP3    H257500   0.072   6.443   4.666 -0.3309  1.0160  0.4166
12029TIP3   OH257501   3.994   6.673   4.884 -0.1383  0.4721  0.5276
12029TIP3    H157502   3.926   6.715   4.831  0.6369  1.8570  0.5948
12029TIP3    H257503   4.061   6.649   4.820  0.9819  2.5144  0.8900
12030TIP3   OH257504   2.735   5.362   3.693  0.3116  0.1355  0.1290
12030TIP3    H157505   2.739   5.275   3.654  2.5915  0.9722 -1.5861
12030TIP3    H257506   2.826   5.386   3.708 -0.3547  1.7574  1.6578
12031TIP3   OH257507   0.679   6.224   3.734 -0.6096  0.0508 -0.5823
12031TIP3    H157508   0.759   6.174   3.751 -1.6519 -1.7535 -0.8632
12031TIP3    H257509   0.701   6.314   3.759  1.0200 -0.7028  0.8056
12032TIP3   OH257510   2.050   2.142   2.801 -0.0720  0.4939 -0.7198
12032TIP3    H157511   2.066   2.191   2.720  2.0021 -0.9562 -1.2331
12032TIP3    H257512   2.025   2.054   2.771  0.6106 -0.0208  0.1984
12033TIP3   OH257513   6.208   5.131  12.044 -0.6375 -0.1610 -0.0405
12033TIP3    H157514   6.300   5.109  12.061 -0.9465 -1.7967 -0.4342
12033TIP3    H257515   6.158   5.059  12.080 -1.6831 -0.1150 -1.3410
12034TIP3   OH257516   6.639   5.711   5.207  0.1692  0.1685  0.1337
12034TIP3    H157517   6.574   5.763   5.160  1.3919  1.5330 -0.0937
12034TIP3    H257518   6.675   5.772   5.272  1.9662 -0.2380 -0.4523
12035TIP3   OH257519   4.645   2.227   4.948  0.2175 -0.1541  0.4532
12035TIP3    H157520   4.740   2.220   4.963  0.4402 -0.1254 -0.8909
12035TIP3    H257521   4.630   2.321   4.933 -0.2037  0.0007  1.7649
12036TIP3   OH257522   4.431   0.006   1.101 -0.3974  0.4962 -0.2570
12036TIP3    H157523   4.524   0.028   1.107 -0.9473  2.9727  0.0990
12036TIP3    H257524   4.391   0.086   1.067 -2.5796 -0.0325  1.0245
12037TIP3   OH257525   1.389   1.350   0.449 -0.0002  0.2041  0.2862
12037TIP3    H157526   1.375   1.281   0.514  1.6517  0.4519  0.9326
12037TIP3    H257527   1.348   1.428   0.487 -0.3805 -0.0125  0.3231
12038TIP3   OH257528   1.905   6.142   4.022 -0.2700 -0.1711  0.1912
12038TIP3    H157529   1.919   6.233   4.046  1.1251 -0.7231  1.5324
12038TIP3    H257530   1.816   6.140   3.986  0.1795  1.9422 -1.0713
12039TIP3   OH257531   0.946   2.551   6.564 -0.1696  0.1598 -0.2954
12039TIP3    H157532   0.891   2.613   6.610 -2.0662  0.6089 -3.0389
12039TIP3    H257533   1.005   2.605   6.511 -1.1038 -0.3427 -1.8757
12040TIP3   OH257534   1.205   5.480   3.387 -0.1100 -0.3887 -0.1270
12040TIP3    H157535   1.283   5.451   3.435 -0.5563 -0.3165  0.6514
12040TIP3    H257536   1.189   5.411   3.323  1.1591  0.0566 -0.9300
12041TIP3   OH257537   2.313   0.346  13.868 -0.1367  0.0887  0.2013
12041TIP3    H157538   2.297   0.353  13.773  1.2001  1.8783  0.0764
12041TIP3    H257539   2.247   0.403  13.907 -1.4925 -1.6048  0.4673
12042TIP3   OH257540   1.876   1.325   2.110 -0.1730 -0.3214  0.1331
12042TIP3    H157541   1.796   1.295   2.155 -0.4709  2.4703  1.6174
12042TIP3    H257542   1.847   1.399   2.057  1.3302  0.4280  0.3256
12043TIP3   OH257543   3.815   2.996  13.584 -0.1656  0.3787  0.2958
12043TIP3    H157544   3.846   3.076  13.626  1.4378 -0.0293 -0.0962
12043TIP3    H257545   3.768   2.949  13.652  0.5692  0.7432  1.0553
12044TIP3   OH257546   2.107   6.121   0.662 -0.4376 -0.0006 -0.5841
12044TIP3    H157547   2.098   6.215   0.649  0.7155  0.1866 -0.0151
12044TIP3    H257548   2.035   6.083   0.610 -0.3210  1.1339 -1.5988
12045TIP3   OH257549   5.015   3.916   4.414 -0.2978  0.1765  0.4405
12045TIP3    H157550   5.018   3.824   4.387 -1.2240  0.3212 -0.1965
12045TIP3    H257551   5.089   3.956   4.370  0.0979 -0.2599  0.7011
12046TIP3   OH257552   0.865   1.554  11.306 -0.4470 -0.9294  0.0198
12046TIP3    H157553   0.880   1.513  11.221  1.0720  1.4219 -0.9095
12046TIP3    H257554   0.883   1.647  11.291  1.1621 -0.6496  3.2243
12047TIP3   OH257555   3.672   4.435   2.237 -0.0759  0.6113 -0.1415
12047TIP3    H157556   3.590   4.484   2.229 -0.5832 -0.0006  1.2308
12047TIP3    H257557   3.679   4.414   2.330  1.1341 -0.2154 -0.4050
12048TIP3   OH257558   0.106   5.246   6.745  0.2456  0.6059  0.2693
12048TIP3    H157559   0.139   5.228   6.657 -0.3402 -0.2288  0.2122
12048TIP3    H257560   0.165   5.198   6.804 -0.6117 -0.5850  0.1896
12049TIP3   OH257561   2.530   2.148   6.027 -0.2852 -0.0671 -0.4861
12049TIP3    H157562   2.615   2.169   6.066 -0.7149  0.1900  0.3237
12049TIP3    H257563   2.513   2.058   6.053  0.1714 -0.4306 -1.4383
12050TIP3   OH257564   3.558   5.374  13.490  0.6374 -0.1361  0.0515
12050TIP3    H157565   3.542   5.380  13.396 -0.3562  1.0306  0.2767
12050TIP3    H257566   3.475   5.344  13.527 -0.0625  2.6235  0.8801
12051TIP3   OH257567   6.330   1.906  13.360 -0.2761 -0.6224 -0.4631
12051TIP3    H157568   6.303   1.913  13.452 -0.4613  0.5691 -0.6040
12051TIP3    H257569   6.331   1.812  13.343 -1.6866 -0.7874  0.3312
12052TIP3   OH257570   0.422   2.662   0.775 -0.0638  0.1131 -0.3208
12052TIP3    H157571   0.451   2.749   0.805 -2.2663  1.0597 -0.7868
12052TIP3    H257572   0.328   2.672   0.762 -0.0666 -1.8734 -2.0979
12053TIP3   OH257573   1.680   5.007   2.153  0.1345  0.5180 -0.1512
12053TIP3    H157574   1.711   5.086   2.197 -1.6207  1.1192  0.0511
12053TIP3    H257575   1.586   5.022   2.141 -0.2064 -1.5263 -0.1275
12054TIP3   OH257576   4.405   3.962   2.981  0.0143  0.0486 -0.6119
12054TIP3    H157577   4.376   3.955   2.890  0.1462  1.0949 -0.7414
12054TIP3    H257578   4.462   3.887   2.994 -0.3021 -0.3097 -1.2837
12055TIP3   OH257579   4.156   5.168  12.812 -0.0909  0.2145  0.2308
12055TIP3    H157580   4.202   5.230  12.755  4.2310 -0.9869  2.2168
12055TIP3    H257581   4.152   5.212  12.897  0.2391 -0.9726  0.8697
12056TIP3   OH257582   0.452   6.160   1.511  0.2672  0.1958 -0.3405
12056TIP3    H157583   0.516   6.093   1.486 -0.6654 -0.1522 -1.9261
12056TIP3    H257584   0.413   6.127   1.591  1.8765  0.2841  0.5055
12057TIP3   OH257585   2.245   6.099  12.042 -0.2203  0.7709 -0.3160
12057TIP3    H157586   2.337   6.098  12.069 -0.6308 -0.0287  1.1413
12057TIP3    H257587   2.236   6.022  11.986 -0.6632 -0.9579  2.0210
12058TIP3   OH257588   5.600   0.034  17.001  0.5792 -0.2490  0.1956
12058TIP3    H157589   5.541   0.042  17.076 -0.3692  0.1779 -0.5863
12058TIP3    H257590   5.647  -0.048  17.016 -1.3732 -1.4326  0.0393
12059TIP3   OH257591   3.247   6.774   0.449 -0.2324  0.1294 -0.3382
12059TIP3    H157592   3.206   6.693   0.419 -0.9370  0.5873 -0.6206
12059TIP3    H257593   3.209   6.790   0.535  1.5900 -1.0403  0.7112
12060TIP3   OH257594   5.274   2.397  12.015  0.1978 -0.0299  0.7332
12060TIP3    H157595   5.306   2.347  12.090 -1.5905  1.7857  2.7762
12060TIP3    H257596   5.281   2.489  12.042 -1.9085  0.5954 -0.7026
12061TIP3   OH257597   5.640   0.084   4.557 -0.3425  0.2073  0.2251
12061TIP3    H157598   5.691   0.146   4.608  1.1477 -0.0540 -0.8982
12061TIP3    H257599   5.676   0.090   4.469  1.7238 -4.1791  0.6286
12062TIP3   OH257600   4.426   2.313  16.559 -0.3619  0.1912 -0.3566
12062TIP3    H157601   4.418   2.407  16.574 -1.1344  0.0604  0.0838
12062TIP3    H257602   4.381   2.273  16.633  0.6016 -0.5418 -0.1651
12063TIP3   OH257603   3.934   1.525  15.232  0.3802 -0.4744 -0.1044
12063TIP3    H157604   3.865   1.465  15.261  1.0265 -0.6727  1.0528
12063TIP3    H257605   3.964   1.567  15.313  0.0636  1.2683 -0.8827
12064TIP3   OH257606   0.678   1.571  16.706 -0.2141 -0.2117  0.1525
12064TIP3    H157607   0.753   1.546  16.759  0.2075  1.2970  0.2756
12064TIP3    H257608   0.667   1.665  16.721 -0.4811  0.1213 -1.9031
12065TIP3   OH257609   5.602   0.037  16.509 -0.1465  0.3476 -0.3424
12065TIP3    H157610   5.645   0.105  16.458  0.8903 -0.5826 -0.7182
12065TIP3    H257611   5.512   0.068  16.519  0.3873  1.9147 -0.2527
12066TIP3   OH257612   5.028   6.125   1.981  0.7407  0.0561 -0.1552
12066TIP3    H157613   5.072   6.127   2.066  0.3943 -0.1102  0.0313
12066TIP3    H257614   4.982   6.208   1.976  0.8443  0.1087 -0.2230
12067TIP3   OH257615   4.183   3.057  14.332  0.1867  0.0780 -0.6762
12067TIP3    H157616   4.190   3.004  14.253  1.4390  0.1477 -0.6175
12067TIP3    H257617   4.265   3.042  14.378 -0.4613  0.1685  0.5372
12068TIP3   OH257618   5.458   2.693   3.830  0.1776  0.0549 -0.3100
12068TIP3    H157619   5.402   2.636   3.778 -0.4056 -0.6344  1.0569
12068TIP3    H257620   5.423   2.781   3.814 -0.4594 -0.2278 -0.5126
12069TIP3   OH257621   2.914   2.236  15.784  0.8077  0.2897 -0.7365
12069TIP3    H157622   2.967   2.315  15.781 -0.8577  1.4995  0.8068
12069TIP3    H257623   2.856   2.242  15.708 -1.1236  1.9015  0.8058
12070TIP3   OH257624   0.813   3.173   0.392 -0.7913 -0.0798 -0.1110
12070TIP3    H157625   0.817   3.177   0.487 -2.3105  1.4863 -0.0949
12070TIP3    H257626   0.754   3.100   0.373  0.7362 -1.3959  0.1032
12071TIP3   OH257627   5.500   4.533  15.076  0.0832 -0.4065  0.4953
12071TIP3    H157628   5.548   4.615  15.075  1.2514 -1.1080 -1.0413
12071TIP3    H257629   5.441   4.538  15.001 -0.6824 -0.5050  1.0718
12072TIP3   OH257630   1.458   5.466   5.585 -0.0274  0.6622 -0.3072
12072TIP3    H157631   1.467   5.538   5.648 -0.6803 -0.5471  1.1913
12072TIP3    H257632   1.546   5.454   5.550  0.1994  1.8141 -0.1600
12073TIP3   OH257633   5.580   3.571  15.610 -0.6709  0.2651  0.4685
12073TIP3    H157634   5.570   3.557  15.516 -1.8280 -2.7192  0.9924
12073TIP3    H257635   5.518   3.641  15.631 -0.7214  0.6331 -0.8993
12074TIP3   OH257636   6.418   4.518   1.972  0.6429  0.1863  0.7708
12074TIP3    H157637   6.384   4.553   2.054 -0.6364 -1.4604  0.9890
12074TIP3    H257638   6.374   4.569   1.904  0.9424  0.8860  1.1029
12075TIP3   OH257639   4.937   6.277   3.912 -0.0510  1.0301 -0.1401
12075TIP3    H157640   4.938   6.279   3.816  1.7889 -1.0087 -0.2033
12075TIP3    H257641   4.876   6.207   3.934 -0.3842  1.4195  0.1924
12076TIP3   OH257642   2.052   5.743  13.807  0.5847 -0.4010 -0.2994
12076TIP3    H157643   2.147   5.732  13.810  0.7764 -0.2088 -3.4086
12076TIP3    H257644   2.033   5.809  13.873  2.5134 -1.0652  0.9435
12077TIP3   OH257645   3.834   1.320  12.190 -0.5038  0.4057 -0.0892
12077TIP3    H157646   3.875   1.393  12.236 -1.2372  0.1114  1.0598
12077TIP3    H257647   3.757   1.359  12.148 -1.2586  0.1617  1.0692
12078TIP3   OH257648   6.262   0.278  13.883 -0.3992  0.0106  0.0186
12078TIP3    H157649   6.276   0.207  13.821  0.8780 -0.1754  0.4932
12078TIP3    H257650   6.296   0.244  13.966 -0.2554  0.9718  0.3621
12079TIP3   OH257651   2.842   2.983  13.342  0.1036  0.0392 -0.7517
12079TIP3    H157652   2.932   2.969  13.314  0.8840  1.5767  0.8862
12079TIP3    H257653   2.833   2.932  13.422  0.7877  2.9650  1.2792
12080TIP3   OH257654   0.150   2.495   4.090  0.0866 -0.0616 -0.2444
12080TIP3    H157655   0.137   2.545   4.170  3.1375  1.3460 -0.5687
12080TIP3    H257656   0.109   2.548   4.021  1.2837  0.8946 -0.2371
12081TIP3   OH257657   1.133   3.709  17.047 -0.5922  0.5335  0.1428
12081TIP3    H157658   1.071   3.650  17.004 -0.4039 -0.6235  1.4346
12081TIP3    H257659   1.087   3.793  17.051 -0.4685  0.8120 -2.6660
12082TIP3   OH257660   2.987   4.241  12.795  0.5307  0.2148 -0.4543
12082TIP3    H157661   2.952   4.218  12.709 -0.0223  0.1631 -0.2153
12082TIP3    H257662   2.998   4.157  12.840  1.5613  0.1773 -0.7555
12083TIP3   OH257663   3.423   5.333   0.150  0.0578  0.5860 -0.3253
12083TIP3    H157664   3.373   5.318   0.070  0.2040 -2.4102  0.0598
12083TIP3    H257665   3.510   5.299   0.130  0.8401  2.2209  0.2559
12084TIP3   OH257666   2.558   5.423   1.113  0.3148  0.3921  0.3270
12084TIP3    H157667   2.624   5.488   1.085  2.3202 -0.9246  1.8409
12084TIP3    H257668   2.551   5.363   1.039 -0.8692  1.7737 -0.7225
12085TIP3   OH257669   3.306   5.223   4.071 -0.3090 -0.4728 -0.0719
12085TIP3    H157670   3.303   5.129   4.087 -0.9480 -0.6301 -1.0673
12085TIP3    H257671   3.246   5.236   3.997 -0.0698  0.6859 -0.0628
12086TIP3   OH257672   6.540   3.974   3.615 -0.2167  0.1283  0.2163
12086TIP3    H157673   6.614   3.948   3.669 -0.3218 -1.2140 -0.2695
12086TIP3    H257674   6.570   4.052   3.568  0.6217  0.0166  0.5594
12087TIP3   OH257675   3.022   4.147   4.256  0.0152 -0.2174 -0.1973
12087TIP3    H157676   3.065   4.137   4.171 -0.8728 -1.5382 -0.5072
12087TIP3    H257677   2.959   4.219   4.242  0.4769  0.1442 -0.4095
12088TIP3   OH257678   3.593   2.263   3.644 -0.1814  0.2866  0.5041
12088TIP3    H157679   3.513   2.211   3.634 -1.3900  2.1824 -0.0080
12088TIP3    H257680   3.584   2.332   3.578  2.5654 -0.2864 -0.5504
12089TIP3   OH257681   3.212   4.538   2.078  0.3500 -0.3849  0.3254
12089TIP3    H157682   3.253   4.489   2.006  1.6853  1.1064  0.0287
12089TIP3    H257683   3.118   4.525   2.066  0.3537  2.5906 -3.7499
12090TIP3   OH257684   2.223   4.754  16.395  0.0843 -0.1759 -0.5922
12090TIP3    H157685   2.259   4.842  16.384 -0.5723  0.5826  2.6456
12090TIP3    H257686   2.131   4.768  16.418 -0.1555 -1.7157 -0.5546
12091TIP3   OH257687   2.444   0.594  12.386  0.6210  0.2543  0.2604
12091TIP3    H157688   2.476   0.525  12.329 -1.7792  0.6074 -1.5870
12091TIP3    H257689   2.399   0.549  12.457 -1.0636 -0.1048 -1.0161
12092TIP3   OH257690   5.989   5.965  13.107  0.1422  0.1414  0.1888
12092TIP3    H157691   5.895   5.947  13.110  0.1120 -0.3834 -2.4825
12092TIP3    H257692   6.009   5.974  13.014  3.1951 -2.1368  0.5334
12093TIP3   OH257693   2.938   5.721   6.033 -0.2663  0.1079  0.0917
12093TIP3    H157694   2.906   5.632   6.016  1.2416 -0.2948 -0.6766
12093TIP3    H257695   2.899   5.745   6.117  1.0501 -2.1161  1.3589
12094TIP3   OH257696   5.179   4.585   0.221 -0.2528 -0.1042  0.6898
12094TIP3    H157697   5.243   4.642   0.264 -1.1050  3.0023 -1.9432
12094TIP3    H257698   5.096   4.607   0.263 -0.4716  0.1070  0.1561
12095TIP3   OH257699   5.658   5.058   2.715  0.2151 -0.2966  0.3815
12095TIP3    H157700   5.658   5.006   2.796  0.5477 -0.5235  0.2360
12095TIP3    H257701   5.711   5.007   2.654 -0.8920 -0.6450 -0.3095
12096TIP3   OH257702   5.336   6.606  13.091 -0.0131  0.0933 -0.4291
12096TIP3    H157703   5.274   6.579  13.024  0.0167  0.7837 -0.7427
12096TIP3    H257704   5.421   6.606  13.047 -0.3001  2.8570 -1.0836
12097TIP3   OH257705   2.083   6.373  16.433  0.5208  0.4653  0.0779
12097TIP3    H157706   2.097   6.305  16.366  1.9334  1.4729 -0.6817
12097TIP3    H257707   2.007   6.343  16.482  1.0593 -1.6358 -0.3091
12098TIP3   OH257708   2.850   4.382  11.423  0.0115  0.0619  0.2142
12098TIP3    H157709   2.799   4.325  11.366 -0.1956 -2.1303  2.4865
12098TIP3    H257710   2.788   4.448  11.453 -0.7704 -0.8472  0.6239
12099TIP3   OH257711   2.761   0.674  16.887 -0.3988 -0.0321 -0.4009
12099TIP3    H157712   2.680   0.643  16.847  2.3657 -0.1665 -6.3569
12099TIP3    H257713   2.806   0.594  16.915 -0.8829 -0.1497  0.0599
12100TIP3   OH257714   2.139   4.379  14.781  0.0812 -0.1578  0.6861
12100TIP3    H157715   2.084   4.449  14.816 -0.9034 -1.7809  2.4690
12100TIP3    H257716   2.228   4.415  14.784 -0.5626  1.4967  0.3368
12101TIP3   OH257717   5.844   4.605  14.302  0.1853 -0.1046  0.5193
12101TIP3    H157718   5.899   4.640  14.373  0.9532  1.8103 -0.9844
12101TIP3    H257719   5.766   4.660  14.304  0.4661  0.3267 -0.5011
12102TIP3   OH257720   0.722   5.805  14.718 -0.5195 -0.6300  0.2313
12102TIP3    H157721   0.671   5.738  14.763  0.1352 -1.4084 -0.1637
12102TIP3    H257722   0.732   5.772  14.629 -0.8028  0.3437 -0.1668
12103TIP3   OH257723   2.295   1.485   2.735  0.1611  0.1865 -0.3399
12103TIP3    H157724   2.206   1.492   2.769  0.0698 -1.7644 -0.1154
12103TIP3    H257725   2.286   1.500   2.641 -0.4704 -0.3027 -0.3624
12104TIP3   OH257726   4.578   2.280   0.529 -0.3702 -0.5522  0.1551
12104TIP3    H157727   4.603   2.372   0.535  0.7036 -0.6456 -2.4331
12104TIP3    H257728   4.487   2.278   0.558 -0.2571  1.2507  0.6814
12105TIP3   OH257729   1.024   3.006   4.212 -0.0915  0.2159 -0.3097
12105TIP3    H157730   0.992   3.035   4.127 -2.2097  0.4486  0.5494
12105TIP3    H257731   1.022   2.910   4.207 -0.9540  0.2302 -0.2537
12106TIP3   OH257732   4.396   5.792  16.450 -0.1296  0.3620  0.1230
12106TIP3    H157733   4.450   5.723  16.410 -0.0686 -0.2350  1.2086
12106TIP3    H257734   4.434   5.873  16.417 -0.4262 -0.1141 -1.4598
12107TIP3   OH257735   3.060   4.819   2.820 -0.8301 -0.3617  0.1686
12107TIP3    H157736   3.098   4.875   2.752 -0.2645  1.1761  1.7226
12107TIP3    H257737   3.058   4.874   2.898  1.1384 -2.9609  2.1227
12108TIP3   OH257738   1.185   0.436   0.386  0.6093 -0.2655  0.0826
12108TIP3    H157739   1.190   0.509   0.324 -1.5434 -0.3411 -0.2213
12108TIP3    H257740   1.252   0.455   0.451  0.1208  1.9830 -0.0164
12109TIP3   OH257741   2.238   4.600   1.334 -0.3428  0.2313  0.3257
12109TIP3    H157742   2.273   4.512   1.349  1.4703  0.9487  0.3937
12109TIP3    H257743   2.269   4.651   1.408 -0.5638  1.1660 -0.2238
12110TIP3   OH257744   2.116   0.360   1.392 -0.1263 -0.0558 -0.4934
12110TIP3    H157745   2.051   0.296   1.421 -1.1254  1.3011  0.3517
12110TIP3    H257746   2.131   0.415   1.469 -0.5530  1.7592 -1.6724
12111TIP3   OH257747   4.872   3.271  12.976 -0.3259  0.1413  0.1373
12111TIP3    H157748   4.882   3.213  12.901 -0.7736  2.2147 -1.5690
12111TIP3    H257749   4.818   3.222  13.038 -0.9948 -1.1158 -1.4214
12112TIP3   OH257750   6.044   3.060  13.922  0.9183 -0.0624 -0.3212
12112TIP3    H157751   5.972   3.071  13.983  1.6192  0.0179  0.4979
12112TIP3    H257752   6.008   3.087  13.837  0.0723  0.2277  0.1250
12113TIP3   OH257753   4.320   4.986   2.956  0.4628  0.1818 -0.0153
12113TIP3    H157754   4.319   5.072   2.998 -1.9097  1.1871 -1.9963
12113TIP3    H257755   4.248   4.938   2.998  1.0344 -0.4177  0.2780
12114TIP3   OH257756   0.274   3.745  15.712  0.3844  0.3156  0.2343
12114TIP3    H157757   0.326   3.740  15.793  1.2342  0.1379 -0.3095
12114TIP3    H257758   0.314   3.679  15.655 -0.4790  0.1510 -0.1825
12115TIP3   OH257759   5.174   3.174   0.116 -0.0237 -0.1121  0.2933
12115TIP3    H157760   5.251   3.140   0.070 -0.5215 -1.4140  0.3889
12115TIP3    H257761   5.152   3.106   0.180  0.1890  1.3304  1.9323
12116TIP3   OH257762   1.615   3.615  12.977 -0.4977 -0.3709 -0.0016
12116TIP3    H157763   1.584   3.663  13.054 -1.3311  1.1784 -1.2693
12116TIP3    H257764   1.616   3.681  12.907  1.6359 -1.4163 -0.9784
12117TIP3   OH257765   2.826   1.707   3.269  0.1504  0.1321  0.2728
12117TIP3    H157766   2.816   1.650   3.345 -0.0888 -0.6187 -0.3121
12117TIP3    H257767   2.789   1.656   3.197  0.1394  0.9450 -0.2933
12118TIP3   OH257768   1.268   5.631  11.552 -0.3053 -0.7092 -0.3411
12118TIP3    H157769   1.304   5.542  11.559  0.2585 -0.3668  1.3057
12118TIP3    H257770   1.176   5.621  11.580 -0.3031 -0.8130 -0.3692
12119TIP3   OH257771   3.339   1.535   2.336 -0.0605  0.2679  0.3073
12119TIP3    H157772   3.346   1.518   2.430 -1.0173  0.1626  0.3627
12119TIP3    H257773   3.245   1.531   2.318  0.2139 -1.0769 -0.8991
12120TIP3   OH257774   0.499   4.465  12.100 -0.5393 -0.0921  0.6059
12120TIP3    H157775   0.411   4.451  12.065 -0.2252 -0.2848 -0.1256
12120TIP3    H257776   0.545   4.382  12.085  0.1160  0.3840 -0.0952
12121TIP3   OH257777   5.051   4.607  16.725  0.3521  0.5747 -0.0663
12121TIP3    H157778   5.065   4.689  16.678 -0.6876  2.1014  2.2193
12121TIP3    H257779   5.107   4.614  16.802 -0.9289 -0.1558  0.9522
12122TIP3   OH257780   2.200   6.420   1.980  0.4315 -0.5924  0.2102
12122TIP3    H157781   2.128   6.361   1.958 -0.3558  0.3231  0.2649
12122TIP3    H257782   2.212   6.409   2.074  0.2877 -0.6736  0.2197
12123TIP3   OH257783   0.129   5.586  12.181  0.5646 -0.0034  0.5741
12123TIP3    H157784   0.158   5.661  12.129 -0.3069  1.2426  1.8578
12123TIP3    H257785   0.196   5.575  12.248  0.4400 -0.0693  0.6883
12124TIP3   OH257786   1.507   2.347  13.033 -0.0958 -0.0363  0.5215
12124TIP3    H157787   1.417   2.319  13.018 -0.3848  1.7389 -1.2865
12124TIP3    H257788   1.556   2.266  13.045 -1.8170 -1.0426  0.8419
12125TIP3   OH257789   5.375   0.755   0.050  0.5889 -0.0458  0.1770
12125TIP3    H157790   5.281   0.751   0.032  0.3791 -2.3993  1.5948
12125TIP3    H257791   5.382   0.809   0.129  0.5783  1.3495 -0.7604
12126TIP3   OH257792   6.655   3.361  16.064 -0.3917  0.1826 -0.2485
12126TIP3    H157793   6.562   3.374  16.045  0.0740  2.4354 -1.1934
12126TIP3    H257794   6.667   3.401  16.150  0.0763  1.6978 -0.9999
12127TIP3   OH257795   6.364   5.551   2.071 -0.3853 -0.2240 -0.2962
12127TIP3    H157796   6.328   5.602   1.998  2.1997  0.2405 -1.3102
12127TIP3    H257797   6.416   5.482   2.028 -0.1663 -0.9500  1.1075
12128TIP3   OH257798   4.184   3.367   4.855  0.4203  0.0180 -0.3820
12128TIP3    H157799   4.254   3.302   4.859 -1.7254 -2.3064  0.6838
12128TIP3    H257800   4.169   3.392   4.946 -0.6811 -0.1177 -0.5208
12129TIP3   OH257801   5.613   5.977  15.652 -0.0546  0.2859 -0.1325
12129TIP3    H157802   5.644   5.887  15.656  0.4890  0.3067 -2.7881
12129TIP3    H257803   5.531   5.972  15.603  0.9613  1.4161 -2.0373
12130TIP3   OH257804   3.446   5.562   1.286  0.3470  0.0913 -0.8117
12130TIP3    H157805   3.452   5.641   1.231 -0.8744 -0.2145 -1.3885
12130TIP3    H257806   3.383   5.506   1.241  2.4623 -1.9760 -1.3430
12131TIP3   OH257807   1.942   2.777  11.810  0.4952 -0.0131 -0.3958
12131TIP3    H157808   1.972   2.775  11.900  1.3960 -0.6945 -0.7063
12131TIP3    H257809   1.861   2.726  11.810  1.8807 -2.2712 -0.4632
12132TIP3   OH257810   0.426   0.515  17.023 -0.4057  0.1641  0.1634
12132TIP3    H157811   0.520   0.509  17.003 -0.4517 -0.1032  0.0176
12132TIP3    H257812   0.395   0.425  17.015 -0.1492 -0.1846  2.8509
12133TIP3   OH257813   2.386   3.736  16.360 -0.4620 -0.2577  0.7682
12133TIP3    H157814   2.422   3.719  16.273  1.7192 -1.0917  1.7926
12133TIP3    H257815   2.363   3.650  16.395 -2.2130  0.1480  0.6832
12134TIP3   OH257816   5.902   3.935  11.109 -0.1283 -0.0494  0.1207
12134TIP3    H157817   5.832   3.986  11.069  1.1198  0.9133 -0.8330
12134TIP3    H257818   5.891   3.847  11.072 -1.7727 -0.3244  1.1641
12135TIP3   OH257819   6.389   5.985   3.303 -0.7303 -0.2193  0.2677
12135TIP3    H157820   6.309   6.008   3.351 -0.7462  0.9355 -0.2923
12135TIP3    H257821   6.410   6.064   3.254  0.6187 -0.6117  0.2141
12136TIP3   OH257822   5.963   4.946   2.161 -0.6270 -0.5514 -0.7289
12136TIP3    H157823   6.029   4.952   2.092 -0.7439  0.7093 -0.7282
12136TIP3    H257824   6.014   4.949   2.242 -0.6316 -0.3100 -0.7358
12137TIP3   OH257825   5.451   6.163  15.093 -0.6183 -0.6873 -0.3272
12137TIP3    H157826   5.478   6.222  15.165  2.7143 -0.6546 -1.5132
12137TIP3    H257827   5.458   6.075  15.131 -0.9385 -0.5638  0.0221
12138TIP3   OH257828   4.662   0.824  16.706  0.7326  0.2567  1.1344
12138TIP3    H157829   4.644   0.834  16.799 -0.2542  0.5464  0.9171
12138TIP3    H257830   4.733   0.886  16.689  1.8938 -0.8206  1.9754
12139TIP3   OH257831   6.701   5.062   5.550 -0.0081 -0.1016 -0.0353
12139TIP3    H157832   6.715   4.983   5.602  0.0035  0.6953  1.2007
12139TIP3    H257833   6.656   5.123   5.610 -1.3764  0.2981 -1.4198
12140TIP3   OH257834   2.182   5.864  11.365  0.5660 -0.4198 -0.4821
12140TIP3    H157835   2.158   5.948  11.325 -0.6478 -1.0451 -1.1024
12140TIP3    H257836   2.158   5.874  11.457 -0.3018 -0.3436 -0.7068
12141TIP3   OH257837   4.288   4.042  14.483  0.1492  0.2510 -0.0702
12141TIP3    H157838   4.327   4.129  14.480 -0.0957  0.3666  0.0904
12141TIP3    H257839   4.337   3.991  14.418 -1.2766  1.1453 -1.8962
12142TIP3   OH257840   1.383   6.259  11.250 -0.2026 -0.1315  0.3197
12142TIP3    H157841   1.468   6.287  11.285 -0.2637  0.3273  0.1014
12142TIP3    H257842   1.375   6.304  11.166 -0.2578 -0.8867 -0.0825
12143TIP3   OH257843   1.218   0.414   3.943  0.1178  0.0836  0.6433
12143TIP3    H157844   1.140   0.391   3.892  0.1748  1.0121  0.1089
12143TIP3    H257845   1.183   0.455   4.023  0.0477  0.1300  0.5896
12144TIP3   OH257846   0.185   0.030  12.905  0.4309 -0.3273  0.1795
12144TIP3    H157847   0.092   0.055  12.905 -0.4049 -3.2246 -1.2567
12144TIP3    H257848   0.223   0.082  12.834 -0.3901 -0.2087 -0.1828
12145TIP3   OH257849   3.364   4.614   6.439  0.3400  0.0817  0.3571
12145TIP3    H157850   3.296   4.666   6.397 -0.6211 -0.5721  1.0600
12145TIP3    H257851   3.391   4.667   6.514  0.6088  0.3520  0.0658
12146TIP3   OH257852   0.831   4.955  10.870  0.3548  0.0149  0.2610
12146TIP3    H157853   0.834   5.049  10.886  0.1474  0.2014 -0.7847
12146TIP3    H257854   0.922   4.926  10.878  0.4172  0.3003  0.5852
12147TIP3   OH257855   5.388   3.881  17.149  0.2831  0.2766 -0.5183
12147TIP3    H157856   5.317   3.938  17.179 -0.0183  0.0908 -0.8604
12147TIP3    H257857   5.451   3.881  17.220 -0.0190  0.5224 -0.2490
12148TIP3   OH257858   0.756   3.688   1.984  0.1736  0.5018  0.1205
12148TIP3    H157859   0.817   3.692   2.058 -0.0205 -1.9341  0.4356
12148TIP3    H257860   0.672   3.715   2.021  0.1974 -0.1528  0.6428
12149TIP3   OH257861   6.525   2.658  12.164 -0.1314  0.1422 -0.2958
12149TIP3    H157862   6.538   2.752  12.165  0.8273  0.0252 -1.0855
12149TIP3    H257863   6.452   2.645  12.103  1.5055  0.1825 -2.3138
12150TIP3   OH257864   1.359   2.903   6.222 -0.0718 -0.3627  0.3740
12150TIP3    H157865   1.388   2.828   6.169  0.3650  1.0410 -1.4030
12150TIP3    H257866   1.399   2.979   6.180 -0.6169  0.8869  2.0944
12151TIP3   OH257867   4.790   2.690  16.027 -0.2509 -0.5858  0.3054
12151TIP3    H157868   4.873   2.666  15.987 -0.2010  0.2611 -0.0979
12151TIP3    H257869   4.791   2.646  16.113  0.0561 -1.6039 -0.2087
12152TIP3   OH257870   3.731   1.654   2.724 -0.2260  0.3072 -0.3511
12152TIP3    H157871   3.654   1.688   2.770  0.9411  2.7101 -0.1446
12152TIP3    H257872   3.784   1.614   2.793 -0.2566  0.5737 -0.1745
12153TIP3   OH257873   3.249   2.311   3.462 -0.3129  0.4117  0.7260
12153TIP3    H157874   3.302   2.237   3.431 -1.9192 -0.0570 -0.9830
12153TIP3    H257875   3.204   2.276   3.540 -1.6315 -0.6888 -0.4953
12154TIP3   OH257876   3.189   1.399  15.646  0.1825 -0.4368 -0.1523
12154TIP3    H157877   3.220   1.490  15.647 -1.8578  0.3046  1.7610
12154TIP3    H257878   3.110   1.402  15.592  0.4207 -1.1998 -0.5437
12155TIP3   OH257879   4.859   2.899  10.584 -0.0998  0.4876 -0.4085
12155TIP3    H157880   4.890   2.983  10.551 -0.4150  1.3868  1.5176
12155TIP3    H257881   4.914   2.881  10.660 -0.8280 -0.4747 -0.1021
12156TIP3   OH257882   5.138   3.647  12.319 -0.6255  0.1046  0.2633
12156TIP3    H157883   5.173   3.719  12.372 -1.3880  0.5568  0.1614
12156TIP3    H257884   5.046   3.642  12.344 -0.8429 -0.0794 -0.5711
12157TIP3   OH257885   3.798   4.330   1.643 -0.3639  0.2328 -0.2476
12157TIP3    H157886   3.816   4.243   1.606 -1.2617  0.8385 -2.1227
12157TIP3    H257887   3.741   4.312   1.717 -0.8134 -0.7588 -0.8175
12158TIP3   OH257888   0.981   3.451   0.651  0.0455  0.6810 -0.4082
12158TIP3    H157889   0.994   3.363   0.686  1.5873  0.5721 -1.2346
12158TIP3    H257890   0.987   3.508   0.727  0.4238  0.1961 -0.0733
12159TIP3   OH257891   0.105   3.688   4.624  0.0782  0.3439  0.3776
12159TIP3    H157892   0.200   3.695   4.623  0.0220  1.1697  0.5202
12159TIP3    H257893   0.085   3.628   4.552  0.7379 -0.3697  0.7772
12160TIP3   OH257894   6.336   0.154  17.001  0.2455  0.0002 -0.1396
12160TIP3    H157895   6.254   0.194  16.971  0.8868 -0.3597 -2.4792
12160TIP3    H257896   6.314   0.061  17.012  0.0893  0.0752  0.1801
12161TIP3   OH257897   6.567   5.487   1.838  0.3210  0.0975 -0.0971
12161TIP3    H157898   6.660   5.495   1.816  0.6402 -1.7063  0.4901
12161TIP3    H257899   6.523   5.551   1.781  1.8865  0.8040 -0.5418
12162TIP3   OH257900   2.378   2.979  12.053 -0.4716 -0.4012 -0.2739
12162TIP3    H157901   2.423   3.061  12.033  0.2541 -1.0961 -1.5393
12162TIP3    H257902   2.440   2.910  12.028 -1.3109 -1.3403  0.1947
12163TIP3   OH257903   3.836   1.320  11.680  0.2671 -0.5745  0.1046
12163TIP3    H157904   3.776   1.246  11.680 -0.3092 -0.1138  0.1169
12163TIP3    H257905   3.843   1.346  11.772  2.9634 -2.5852  0.5369
12164TIP3   OH257906   1.626   6.340   4.075  0.0529  0.4725  0.0670
12164TIP3    H157907   1.709   6.363   4.117 -0.2156  0.2523  0.7220
12164TIP3    H257908   1.641   6.357   3.982  0.5985  1.1202  0.2647
12165TIP3   OH257909   2.894   4.652   2.559 -0.1403 -0.8998 -0.0586
12165TIP3    H157910   2.983   4.631   2.588 -0.4135 -0.6713  0.9439
12165TIP3    H257911   2.892   4.747   2.555 -0.7935 -0.8519  1.3583
12166TIP3   OH257912   1.749   0.336   5.488  0.1218  0.6522 -0.3441
12166TIP3    H157913   1.759   0.420   5.533  0.3171  0.0742  0.7146
12166TIP3    H257914   1.791   0.349   5.403  2.0222  0.9890  0.6237
12167TIP3   OH257915   0.474   6.258  13.279 -0.1323  0.0372  0.1396
12167TIP3    H157916   0.383   6.237  13.302 -0.0140 -0.1852  0.4035
12167TIP3    H257917   0.499   6.326  13.341  0.8132 -1.9045  1.9318
12168TIP3   OH257918   6.728   3.271   0.461  0.2951  0.2017  0.5017
12168TIP3    H157919   6.737   3.213   0.537 -0.4801 -0.3953  0.1437
12168TIP3    H257920   6.796   3.337   0.474  1.4684 -1.0109  0.7095
12169TIP3   OH257921   3.206   6.150   1.794 -0.0879 -0.1937  0.3380
12169TIP3    H157922   3.269   6.115   1.857 -1.1183 -0.5838  1.1831
12169TIP3    H257923   3.127   6.098   1.808 -0.5540  0.1856 -0.8073
12170TIP3   OH257924   0.078   4.774   3.308  0.6095 -0.4825  0.3301
12170TIP3    H157925   0.112   4.807   3.225  0.6183 -0.8672  0.1795
12170TIP3    H257926   0.152   4.780   3.368  0.4019  0.4755  0.5031
12171TIP3   OH257927   0.140   3.518   5.103  0.3483  0.0377  0.0729
12171TIP3    H157928   0.173   3.450   5.162 -1.7485 -0.2962  0.9053
12171TIP3    H257929   0.106   3.469   5.028 -0.4634  0.2124  0.3258
12172TIP3   OH257930   2.950   6.615   0.739 -0.2988 -0.6155 -0.3752
12172TIP3    H157931   2.898   6.690   0.766  0.7377  0.1512 -0.5075
12172TIP3    H257932   2.895   6.539   0.761 -1.1471  0.1512  0.1838
12173TIP3   OH257933   5.053   1.985  12.711 -0.1846  0.1631  0.0124
12173TIP3    H157934   5.115   1.953  12.646 -1.0204  0.7741 -1.1067
12173TIP3    H257935   4.976   2.011  12.660 -1.2463 -0.3091  1.3395
12174TIP3   OH257936   2.919   2.369  16.766  0.3723 -0.2191  0.1876
12174TIP3    H157937   2.936   2.355  16.673  2.7255 -0.5404  0.6149
12174TIP3    H257938   2.864   2.296  16.792  0.0862 -0.3809 -0.8595
12175TIP3   OH257939   5.123   1.058  13.070  0.1185  0.1140 -0.3036
12175TIP3    H157940   5.173   1.126  13.114 -0.3422  0.0701  0.3105
12175TIP3    H257941   5.038   1.098  13.052 -0.4182 -0.5231  0.7435
12176TIP3   OH257942   5.756   6.405   1.381 -0.2179 -0.7961 -0.3435
12176TIP3    H157943   5.761   6.321   1.427 -0.1341 -0.7873 -0.3353
12176TIP3    H257944   5.739   6.382   1.290 -2.5319 -0.7389  0.0436
12177TIP3   OH257945   5.373   2.979   6.219  0.1130 -0.2112  0.7879
12177TIP3    H157946   5.420   3.052   6.179 -0.0562 -0.2364  0.5402
12177TIP3    H257947   5.441   2.914   6.238  0.1735 -0.2713  0.3781
12178TIP3   OH257948   4.474   0.833  13.071  0.2628  0.5293 -0.9546
12178TIP3    H157949   4.467   0.917  13.116  1.1499  0.0799  0.0662
12178TIP3    H257950   4.457   0.768  13.140  0.8240 -0.1471 -1.4427
12179TIP3   OH257951   2.276   1.497   2.477 -0.3007 -0.1568 -0.0134
12179TIP3    H157952   2.360   1.542   2.475  0.0611 -0.8227 -0.0686
12179TIP3    H257953   2.269   1.456   2.390 -0.9642  0.4016 -0.2294
12180TIP3   OH257954   3.319   0.040   0.131  0.7102 -0.2228  0.2788
12180TIP3    H157955   3.260   0.068   0.061  2.3619 -0.7781 -1.3844
12180TIP3    H257956   3.316  -0.056   0.128  0.6015 -0.2528  1.1506
12181TIP3   OH257957   4.821   2.919   5.364  0.2403 -0.3758  0.5920
12181TIP3    H157958   4.887   2.894   5.298  0.5292 -1.1309  1.1559
12181TIP3    H257959   4.772   2.839   5.380 -1.7665  0.5354 -0.8677
12182TIP3   OH257960   1.986   2.700  13.931  0.1505 -0.1436  0.7478
12182TIP3    H157961   2.005   2.783  13.887 -1.1911 -0.0691  0.2700
12182TIP3    H257962   1.942   2.647  13.864 -0.1968 -0.7340  1.4337
12183TIP3   OH257963   0.884   2.239  13.880  0.0213  0.2470 -0.1264
12183TIP3    H157964   0.938   2.199  13.812 -1.1372 -2.2595  0.3941
12183TIP3    H257965   0.794   2.218  13.855 -0.5511  1.5084  0.8206
12184TIP3   OH257966   1.628   5.369   2.296 -0.0886  0.2537 -0.0074
12184TIP3    H157967   1.612   5.382   2.203 -0.1318  0.3541  0.0138
12184TIP3    H257968   1.711   5.323   2.300 -0.9151 -1.2764 -0.1625
12185TIP3   OH257969   1.219   3.665  16.445  0.3447  0.1330  0.2191
12185TIP3    H157970   1.302   3.712  16.453 -0.0123  0.6453  1.0511
12185TIP3    H257971   1.168   3.717  16.383  0.2322  0.4362  0.5620
12186TIP3   OH257972   3.039   1.724  10.385  0.0660 -0.7819  0.0515
12186TIP3    H157973   2.956   1.765  10.409  0.1326 -0.9748  0.6227
12186TIP3    H257974   3.080   1.786  10.324 -0.4176 -0.6071 -0.0952
12187TIP3   OH257975   1.631   4.189   1.346  0.4719  0.1972  0.5088
12187TIP3    H157976   1.708   4.138   1.373  1.7639  2.0591  0.4401
12187TIP3    H257977   1.608   4.240   1.423  1.6224  2.4203 -0.5652
12188TIP3   OH257978   5.449   6.145  11.057  0.0043 -0.1876  0.4517
12188TIP3    H157979   5.446   6.240  11.059  1.0391 -0.1712  2.2342
12188TIP3    H257980   5.358   6.118  11.072 -0.4866  0.5046 -1.1832
12189TIP3   OH257981   4.631   0.783  12.562  0.1529 -0.2673 -0.6384
12189TIP3    H157982   4.681   0.724  12.617 -0.4577 -0.4935 -0.3262
12189TIP3    H257983   4.587   0.842  12.623 -1.5208 -1.3040 -0.8089
12190TIP3   OH257984   4.749   5.354   4.995  0.7959  0.3290  0.6019
12190TIP3    H157985   4.807   5.356   4.919 -0.0913  1.7150 -0.0609
12190TIP3    H257986   4.785   5.285   5.050  0.4881 -1.8782 -1.8405
12191TIP3   OH257987   0.190   5.295  15.804  0.3753  0.2554  0.0835
12191TIP3    H157988   0.165   5.368  15.861  0.2930 -0.2748  0.7271
12191TIP3    H257989   0.143   5.312  15.722 -1.7126 -0.4400  1.0897
12192TIP3   OH257990   5.497   1.042  13.247  0.3686 -0.3266  0.1085
12192TIP3    H157991   5.436   0.995  13.304  0.2839 -0.0674  0.2279
12192TIP3    H257992   5.536   1.109  13.303  0.7115 -0.4447  0.0156
12193TIP3   OH257993   4.784   3.783  11.965 -0.7707  0.0988  0.0487
12193TIP3    H157994   4.801   3.728  11.888  0.0871 -1.8876  1.6051
12193TIP3    H257995   4.871   3.812  11.993 -1.2039  2.1434 -0.6533
12194TIP3   OH257996   1.334   6.577   2.800 -0.3942 -0.3579 -0.2019
12194TIP3    H157997   1.354   6.591   2.708 -0.6285  0.4982 -0.1238
12194TIP3    H257998   1.289   6.657   2.828 -0.9014 -0.8730  0.4876
12195TIP3   OH257999   2.830   5.550  12.130  0.0021  0.1170 -0.1691
12195TIP3    H158000   2.790   5.606  12.064 -0.1176  0.8422  0.5220
12195TIP3    H258001   2.925   5.563  12.118 -0.0040 -0.1258 -0.5123
12196TIP3   OH258002   3.632   4.282  14.065  0.5466 -0.4174  0.0731
12196TIP3    H158003   3.663   4.341  13.996  0.3326 -0.8896 -0.4312
12196TIP3    H258004   3.577   4.219  14.019 -1.8234  0.8568  1.0747
12197TIP3   OH258005   2.341   2.863  14.922  0.1500  0.1344  0.7551
12197TIP3    H158006   2.358   2.957  14.933 -1.5177  0.4631  0.6781
12197TIP3    H258007   2.259   2.848  14.969  0.0857 -1.1589  0.2400
12198TIP3   OH258008   1.789   3.936  14.848  0.1707  0.5541 -0.4119
12198TIP3    H158009   1.703   3.972  14.870  0.5066  0.4009  1.2299
12198TIP3    H258010   1.850   4.008  14.866  0.7062 -0.3692  1.5702
12199TIP3   OH258011   1.056   6.600   5.452 -0.1146 -0.4647  0.0299
12199TIP3    H158012   1.018   6.687   5.450 -2.3165 -1.3801  0.0725
12199TIP3    H258013   0.989   6.545   5.494  1.3019 -2.1290  0.1899
12200TIP3   OH258014   1.949   1.188  12.263 -0.3539 -0.9080  0.2677
12200TIP3    H158015   1.957   1.208  12.356  1.9132 -0.9170  0.0917
12200TIP3    H258016   2.002   1.255  12.219 -2.8869  0.2492 -1.1819
12201TIP3   OH258017   6.197   2.139   0.938 -0.6194  0.2390 -0.7822
12201TIP3    H158018   6.133   2.116   0.871 -1.9982 -0.0237  0.5765
12201TIP3    H258019   6.144   2.161   1.015  0.9387 -0.7207  0.6102
12202TIP3   OH258020   6.141   3.875  16.026 -0.2408 -0.1970 -0.3739
12202TIP3    H158021   6.232   3.852  16.007 -0.0858 -0.7597  0.9876
12202TIP3    H258022   6.090   3.801  15.993 -0.1334 -0.2663 -0.3858
12203TIP3   OH258023   2.782   1.976  14.318 -0.2158 -0.0033  0.0521
12203TIP3    H158024   2.805   2.050  14.263  1.1572  0.5215  1.2774
12203TIP3    H258025   2.863   1.924  14.323 -1.2496 -1.7575 -1.0565
12204TIP3   OH258026   2.131   1.639  14.586 -0.0189 -0.7490 -0.1732
12204TIP3    H158027   2.192   1.619  14.515  0.0483  1.1296 -0.6593
12204TIP3    H258028   2.135   1.562  14.643  3.3714 -0.3789  0.2093
12205TIP3   OH258029   6.047   3.762  13.285 -0.8220 -0.2219 -0.2599
12205TIP3    H158030   5.987   3.829  13.316  2.2172  2.2621  0.5330
12205TIP3    H258031   6.053   3.699  13.356 -1.8662 -0.0940 -0.0533
12206TIP3   OH258032   3.739   2.560  16.969  0.3052  0.5239  0.1445
12206TIP3    H158033   3.692   2.510  16.902  0.7912  1.4492 -0.9139
12206TIP3    H258034   3.680   2.631  16.993  0.3692  0.5427  0.2497
12207TIP3   OH258035   2.649   6.767   2.630  0.5844  0.6980 -0.2839
12207TIP3    H158036   2.729   6.714   2.627 -0.0339 -0.1935 -2.0072
12207TIP3    H258037   2.669   6.843   2.575  0.7171  1.1709  0.4134
12208TIP3   OH258038   4.603   5.112  13.794 -0.2908  0.4578 -0.3714
12208TIP3    H158039   4.623   5.058  13.718  1.3866  1.1679 -0.4688
12208TIP3    H258040   4.519   5.152  13.774 -0.2889 -0.0688 -1.4565
12209TIP3   OH258041   3.413   4.357  16.657 -0.1030  0.2393 -0.1913
12209TIP3    H158042   3.398   4.269  16.622  0.8368  0.7889 -2.0564
12209TIP3    H258043   3.464   4.401  16.589  0.6967  1.7637  1.3600
12210TIP3   OH258044   1.570   2.124  11.843 -0.4356 -0.2536 -0.0458
12210TIP3    H158045   1.585   2.031  11.828 -0.0831 -0.4014  1.1867
12210TIP3    H258046   1.538   2.130  11.933  0.6094  0.9116  0.2676
12211TIP3   OH258047   2.489   1.650   2.361  0.0491  0.1647 -0.8639
12211TIP3    H158048   2.477   1.733   2.316  2.2367 -0.0349 -1.8819
12211TIP3    H258049   2.535   1.595   2.298  0.1863 -1.2344  0.4183
12212TIP3   OH258050   0.414   0.378  16.506  0.3940 -0.3410 -0.0935
12212TIP3    H158051   0.348   0.440  16.537 -0.9027 -1.3679 -0.7859
12212TIP3    H258052   0.483   0.381  16.572 -0.8656 -0.0993  1.2153
12213TIP3   OH258053   0.142   0.015  13.236  0.2533 -0.2273 -0.5074
12213TIP3    H158054   0.134   0.084  13.302 -2.3200 -1.7568  0.8455
12213TIP3    H258055   0.053   0.003  13.203  0.5604 -3.2909 -0.3098
12214TIP3   OH258056   2.013   3.895  11.470  0.1702 -0.0511 -0.0544
12214TIP3    H158057   2.081   3.829  11.455  1.5641  1.2191  0.6156
12214TIP3    H258058   1.931   3.850  11.449  1.1447 -1.8465 -0.0757
12215TIP3   OH258059   1.753   0.267   0.510  0.0111  0.4382  0.5233
12215TIP3    H158060   1.837   0.224   0.494 -0.2064  0.8022 -1.7426
12215TIP3    H258061   1.724   0.233   0.595  2.2614  0.0242  1.1480
12216TIP3   OH258062   2.847   0.434  14.208  0.2253  0.5027  0.0447
12216TIP3    H158063   2.878   0.483  14.132 -3.0108  0.6276 -1.2615
12216TIP3    H258064   2.828   0.346  14.174  1.1268 -0.1909  1.2791
12217TIP3   OH258065   5.874   1.618  12.057 -0.0289  0.2826 -0.3941
12217TIP3    H158066   5.832   1.571  12.129  1.3476  0.1658  0.3430
12217TIP3    H258067   5.805   1.676  12.023 -0.4143  1.0454  1.6333
12218TIP3   OH258068   2.070   2.721  17.221 -0.4368  0.4691 -0.3991
12218TIP3    H158069   1.990   2.683  17.183 -1.1172  1.0373  0.4565
12218TIP3    H258070   2.114   2.763  17.147 -1.8974  1.8103 -0.5349
12219TIP3   OH258071   2.786   6.524  16.175  0.6909  0.1180 -0.0025
12219TIP3    H158072   2.746   6.548  16.091 -2.6967  1.4408  1.8692
12219TIP3    H258073   2.795   6.429  16.171 -1.6280 -0.0933 -0.9839
12220TIP3   OH258074   3.594   4.446  16.481  0.0162 -0.0896 -0.3444
12220TIP3    H158075   3.587   4.526  16.429  0.9395 -0.0999 -0.5093
12220TIP3    H258076   3.683   4.450  16.518 -0.3128 -0.5144  0.5129
12221TIP3   OH258077   5.662   0.452   1.977  0.3422 -0.0385 -0.8267
12221TIP3    H158078   5.743   0.445   2.028  0.2819 -1.9831 -0.9591
12221TIP3    H258079   5.677   0.527   1.919  2.7066 -1.3000 -1.9447
12222TIP3   OH258080   4.750   3.425   1.724 -0.6892 -0.6231 -0.4790
12222TIP3    H158081   4.679   3.423   1.787 -0.6597 -0.9248 -0.4570
12222TIP3    H258082   4.819   3.372   1.763  0.5081  1.7172  0.6506
12223TIP3   OH258083   5.776   5.372  13.389 -0.6245  0.3814 -0.0643
12223TIP3    H158084   5.782   5.366  13.294  1.6523 -0.5280  0.1024
12223TIP3    H258085   5.835   5.444  13.412 -0.1637 -0.2396  0.7346
12224TIP3   OH258086   4.337   0.856   0.223  0.1187  0.5428 -0.4099
12224TIP3    H158087   4.298   0.943   0.227 -0.3379  0.3060  0.2764
12224TIP3    H258088   4.339   0.825   0.313  1.6015  0.4132 -0.4746
12225TIP3   OH258089   6.342   4.012   3.357 -0.1360 -0.6430  0.0623
12225TIP3    H158090   6.319   3.951   3.428 -1.1680 -0.2496  0.0842
12225TIP3    H258091   6.425   4.051   3.385 -1.4315  0.8626  1.9733
12226TIP3   OH258092   4.167   3.703   6.511  0.6888  0.3536 -0.2072
12226TIP3    H158093   4.133   3.630   6.460  1.9019 -0.3569 -0.0248
12226TIP3    H258094   4.258   3.712   6.482  0.6772  1.5018  0.0897
12227TIP3   OH258095   4.488   1.272   4.637 -0.6520  0.2615 -0.0684
12227TIP3    H158096   4.568   1.298   4.589 -0.6081  0.0011 -0.1368
12227TIP3    H258097   4.496   1.316   4.722 -1.1738  1.4706 -0.6332
12228TIP3   OH258098   3.013   4.244   3.857  0.0090  0.3987 -0.2204
12228TIP3    H158099   3.084   4.192   3.818 -0.1762 -0.9564  1.1883
12228TIP3    H258100   2.997   4.202   3.942 -1.6950  1.4055 -0.0315
12229TIP3   OH258101   0.623   0.035  16.397 -0.0865 -0.2782 -0.1036
12229TIP3    H158102   0.683   0.040  16.322  0.7523 -0.1210  0.5727
12229TIP3    H258103   0.647  -0.046  16.441  0.0908  0.1310  0.5575
12230TIP3   OH258104   5.278   6.565  14.428  0.0685 -0.2310  0.4314
12230TIP3    H158105   5.204   6.505  14.421  2.0051 -3.0508  2.7739
12230TIP3    H258106   5.326   6.554  14.346 -0.3984 -0.7970  0.2314
12231TIP3   OH258107   2.245   4.013  16.087  0.6901  0.1261 -0.1018
12231TIP3    H158108   2.244   3.967  16.003 -0.8983 -0.0297 -0.0014
12231TIP3    H258109   2.306   4.086  16.073 -0.6985  0.9829 -1.8756
12232TIP3   OH258110   5.586   2.945   5.490  0.3605 -0.5744  0.0572
12232TIP3    H158111   5.543   2.928   5.406 -1.5910 -0.6046  1.0373
12232TIP3    H258112   5.606   3.038   5.488 -1.1104 -0.2434  0.1902
12233TIP3   OH258113   6.006   2.655  11.482  0.7193  0.4236  0.0018
12233TIP3    H158114   5.952   2.693  11.552  1.7209 -0.2034  1.1337
12233TIP3    H258115   6.012   2.562  11.504  0.8016  0.1650 -1.0953
12234TIP3   OH258116   0.120   1.118  15.180 -0.0963 -0.4467  0.0306
12234TIP3    H158117   0.119   1.128  15.085 -0.2604  0.3743  0.1115
12234TIP3    H258118   0.030   1.138  15.207 -0.7869 -3.4753  0.1004
12235TIP3   OH258119   0.583   2.615   5.654  0.7432 -0.2181 -0.0937
12235TIP3    H158120   0.662   2.593   5.703  0.1833 -0.9084  0.5210
12235TIP3    H258121   0.553   2.698   5.691  0.3479 -0.7156  0.7259
12236TIP3   OH258122   1.733   0.110  16.721 -0.6354  0.2110  0.2747
12236TIP3    H158123   1.801   0.044  16.734 -1.1965 -0.8303 -1.9349
12236TIP3    H258124   1.708   0.135  16.810 -0.3416 -2.4991  1.1772
12237TIP3   OH258125   4.231   2.978  15.660 -0.6716  0.1298 -0.0415
12237TIP3    H158126   4.253   2.935  15.578  1.5042  2.0298 -0.5047
12237TIP3    H258127   4.284   2.932  15.726 -0.4332  0.2991 -0.1138
12238TIP3   OH258128   1.649   0.410   0.053 -0.3164  0.5168  0.3809
12238TIP3    H158129   1.675   0.489   0.005  2.6980 -0.9492 -0.5677
12238TIP3    H258130   1.702   0.411   0.133 -0.8353 -0.1191  0.7405
12239TIP3   OH258131   3.996   5.578   2.494 -0.1576 -0.1478  0.2100
12239TIP3    H158132   4.021   5.523   2.568 -1.3113 -2.2288 -0.8950
12239TIP3    H258133   4.032   5.533   2.417  0.0406  1.3636 -0.6175
12240TIP3   OH258134   1.970   3.238  16.476  0.7875  0.0122  0.1519
12240TIP3    H158135   1.885   3.226  16.434  0.6647 -2.2608  0.9752
12240TIP3    H258136   1.949   3.273  16.563  0.7881  0.8855 -0.2008
12241TIP3   OH258137   6.239   0.099   1.456 -0.2944 -0.6506 -0.0233
12241TIP3    H158138   6.195   0.096   1.371 -2.0069  0.5947  0.7884
12241TIP3    H258139   6.324   0.139   1.438 -0.7145 -0.2350 -1.1208
12242TIP3   OH258140   1.747   6.334  13.083 -0.1640  0.2563  0.0084
12242TIP3    H158141   1.725   6.413  13.034 -0.1503  1.3124  1.6836
12242TIP3    H258142   1.672   6.275  13.069 -0.3715  0.7222 -0.8755
12243TIP3   OH258143   6.478   1.671   3.679 -0.1902 -0.4035  0.0609
12243TIP3    H158144   6.485   1.586   3.636 -0.3700 -0.7301  0.6823
12243TIP3    H258145   6.551   1.721   3.643 -1.0504 -0.2648 -1.5399
12244TIP3   OH258146   0.758   1.081  16.833 -0.4029 -0.0374  0.0344
12244TIP3    H158147   0.802   1.004  16.868  0.4791  0.6174  0.3950
12244TIP3    H258148   0.829   1.132  16.793 -1.0845  0.2400 -0.8394
12245TIP3   OH258149   0.942   2.292   6.287  0.4708  0.0365 -0.4179
12245TIP3    H158150   0.920   2.236   6.361  0.0716 -1.7108 -1.8265
12245TIP3    H258151   0.866   2.287   6.229  1.5648 -0.2105 -1.8736
12246TIP3   OH258152   2.953   1.695  11.729 -0.0242  0.4048  0.1643
12246TIP3    H158153   3.010   1.619  11.737  0.0867  0.5248  0.4893
12246TIP3    H258154   2.973   1.730  11.642 -0.4524 -0.2425 -0.2034
12247TIP3   OH258155   2.632   6.263  14.820  0.5296  0.0298 -0.2354
12247TIP3    H158156   2.631   6.235  14.912 -1.2326  1.5626  0.2448
12247TIP3    H258157   2.619   6.183  14.770 -3.1029 -0.2378  1.0393
12248TIP3   OH258158   4.633   1.022   6.124 -0.1775  0.1173 -0.8874
12248TIP3    H158159   4.589   0.937   6.130 -0.1968  0.1416 -0.6789
12248TIP3    H258160   4.699   1.019   6.193  0.0857  0.1179 -1.1394
12249TIP3   OH258161   3.699   4.652   1.208  0.5591 -0.3124 -0.0958
12249TIP3    H158162   3.762   4.719   1.238 -0.4932  0.5869  0.1575
12249TIP3    H258163   3.663   4.688   1.127 -0.1174 -0.5043  0.1182
12250TIP3   OH258164   6.648   0.403  11.952  0.3288  0.1161 -0.3940
12250TIP3    H158165   6.584   0.412  11.881 -0.5767  0.2332  0.4197
12250TIP3    H258166   6.594   0.391  12.031  1.3270 -0.3591  0.2207
12251TIP3   OH258167   6.539   3.700  14.289 -0.0181  0.2224  0.2312
12251TIP3    H158168   6.554   3.700  14.194 -1.1669  0.6161  0.0441
12251TIP3    H258169   6.570   3.614  14.318  1.5322  0.5770 -0.3015
12252TIP3   OH258170   4.716   0.503   1.246 -0.1465  0.3304 -0.8548
12252TIP3    H158171   4.711   0.544   1.333  0.1713  0.5617 -0.9445
12252TIP3    H258172   4.678   0.416   1.258  0.3232  0.1913 -0.3801
12253TIP3   OH258173   4.243   1.394   6.032 -0.2285 -0.1453 -0.1657
12253TIP3    H158174   4.265   1.303   6.049 -0.6947 -0.4753 -1.2496
12253TIP3    H258175   4.182   1.418   6.102  0.1130 -0.5781  0.2811
12254TIP3   OH258176   0.846   3.229   3.460 -0.7667  0.2500 -0.3307
12254TIP3    H158177   0.893   3.296   3.510  1.8625 -2.3665  0.8246
12254TIP3    H258178   0.799   3.279   3.393 -0.1468  3.3817  1.4428
12255TIP3   OH258179   1.893   6.066   3.173 -0.1571 -0.0230 -0.3473
12255TIP3    H158180   1.986   6.043   3.173 -0.4526 -1.2971  0.4414
12255TIP3    H258181   1.849   5.985   3.201 -1.4420  0.7952  0.0251
12256TIP3   OH258182   2.212   3.685   4.771  0.2022  1.0145  0.1284
12256TIP3    H158183   2.165   3.619   4.822 -0.1162  0.5813 -0.7092
12256TIP3    H258184   2.250   3.744   4.836  0.6744 -0.1201  0.9086
12257TIP3   OH258185   1.723   3.780   5.161 -0.1426  0.6887 -0.3574
12257TIP3    H158186   1.691   3.767   5.251 -0.6499  0.7120 -0.5340
12257TIP3    H258187   1.644   3.785   5.108  0.2190 -1.0710 -1.0621
12258TIP3   OH258188   3.926   0.607  12.475  0.2804  0.2893  0.1793
12258TIP3    H158189   3.856   0.552  12.511 -0.6198 -0.3777 -2.5118
12258TIP3    H258190   3.887   0.694  12.466  1.0020  0.8630  2.2475
12259TIP3   OH258191   2.821   5.894  15.763  0.2948 -0.2977 -0.1678
12259TIP3    H158192   2.835   5.954  15.690  0.2061  0.2011  0.2187
12259TIP3    H258193   2.901   5.841  15.765 -0.2229 -1.1312 -1.3775
12260TIP3   OH258194   1.047   0.719  16.245 -0.4325 -0.1214  0.1112
12260TIP3    H158195   1.049   0.707  16.150 -3.4056  4.6271 -0.6890
12260TIP3    H258196   0.955   0.709  16.269 -0.2103  1.9513  1.9717
12261TIP3   OH258197   5.758   4.171  11.221  0.0080  0.5036 -0.1006
12261TIP3    H158198   5.773   4.119  11.300 -0.9019  0.8398  0.3015
12261TIP3    H258199   5.823   4.241  11.225 -0.5301  0.9569  0.7417
12262TIP3   OH258200   3.774   5.677  15.641  0.4258  0.2055  0.1834
12262TIP3    H158201   3.813   5.751  15.595 -0.0575 -0.0895 -0.7023
12262TIP3    H258202   3.820   5.600  15.607  0.5394  0.0394  0.6972
12263TIP3   OH258203   6.215   6.192  15.333 -0.1166 -0.4609  0.2072
12263TIP3    H158204   6.213   6.192  15.237 -0.8771  4.2081  0.1075
12263TIP3    H258205   6.127   6.163  15.359 -0.7845  0.8153 -0.5816
12264TIP3   OH258206   2.649   1.155   4.020 -0.3696  0.2488 -0.1388
12264TIP3    H158207   2.697   1.205   3.954 -0.6256  1.3238  0.4697
12264TIP3    H258208   2.686   1.067   4.016 -0.1585  0.3923 -1.4851
12265TIP3   OH258209   6.314   0.873  16.643 -0.2047  0.3281  0.1080
12265TIP3    H158210   6.368   0.930  16.698 -0.0209  1.2500 -1.0232
12265TIP3    H258211   6.349   0.785  16.658 -0.2062  0.5505  1.5221
12266TIP3   OH258212   6.194   6.435   4.163 -0.1288 -0.2460  0.2671
12266TIP3    H158213   6.251   6.371   4.119 -1.0587 -0.4393 -0.6677
12266TIP3    H258214   6.124   6.382   4.201  0.4996 -0.0446  1.7350
12267TIP3   OH258215   1.797   1.720   0.452 -0.2989  0.5955 -0.4267
12267TIP3    H158216   1.849   1.780   0.398  1.3025  1.6521  2.1718
12267TIP3    H258217   1.847   1.638   0.451 -0.1690  0.6730 -0.4083
12268TIP3   OH258218   0.431   0.161  15.953 -0.4896  0.1895 -0.0217
12268TIP3    H158219   0.416   0.091  16.016  0.2861 -0.6760 -0.7947
12268TIP3    H258220   0.391   0.130  15.872 -0.2007  0.6669 -0.3494
12269TIP3   OH258221   1.245   1.893   5.111 -0.4055  0.1804  0.0562
12269TIP3    H158222   1.241   1.817   5.169 -0.5262 -1.9508 -2.6795
12269TIP3    H258223   1.155   1.926   5.108 -0.6297 -0.4295  0.1047
12270TIP3   OH258224   2.874   2.295  12.758 -0.3807  0.3195  0.8618
12270TIP3    H158225   2.862   2.234  12.686 -2.1032  2.8548 -1.0834
12270TIP3    H258226   2.956   2.340  12.739 -0.4630  0.4813  0.8922
12271TIP3   OH258227   2.663   4.102   5.471 -0.2004  0.7141  0.1463
12271TIP3    H158228   2.668   4.074   5.380  1.8129  1.6877 -0.0768
12271TIP3    H258229   2.604   4.177   5.470 -2.6087 -1.0959  0.1669
12272TIP3   OH258230   2.499   0.559  13.592 -0.0818 -0.1901  0.1223
12272TIP3    H158231   2.543   0.482  13.556 -0.8842 -1.1144  1.0564
12272TIP3    H258232   2.569   0.618  13.617  0.5298 -0.2824 -1.3060
12273TIP3   OH258233   5.500   6.258   4.843 -0.4058 -0.2841 -0.0158
12273TIP3    H158234   5.431   6.321   4.867  0.9213  1.0387  0.4062
12273TIP3    H258235   5.561   6.309   4.790  1.0483 -1.0365  0.9209
12274TIP3   OH258236   5.153   0.561  10.523  0.0287  0.0528 -0.1506
12274TIP3    H158237   5.134   0.638  10.577 -1.6401 -0.7766  0.4870
12274TIP3    H258238   5.145   0.487  10.584  0.9710 -0.6750 -0.9012
12275TIP3   OH258239   2.182   5.355  12.878  0.2999  0.0277 -0.1266
12275TIP3    H158240   2.097   5.351  12.923  0.8286 -0.2223  0.8541
12275TIP3    H258241   2.241   5.396  12.942  0.8440  0.4871 -0.9183
12276TIP3   OH258242   6.665   3.379  14.589  0.0177  0.2408 -0.0062
12276TIP3    H158243   6.687   3.360  14.680 -1.8704  0.6125  0.5282
12276TIP3    H258244   6.641   3.294  14.552  1.3213 -0.0059 -0.3380
12277TIP3   OH258245   2.615   2.590   3.287 -0.0669  0.2008  0.1478
12277TIP3    H158246   2.523   2.571   3.267 -0.0746 -0.1892  0.5358
12277TIP3    H258247   2.629   2.550   3.373  0.2226  1.0126  0.4821
12278TIP3   OH258248   1.520   6.060  17.220 -1.1485  0.2767 -0.5123
12278TIP3    H158249   1.542   5.970  17.244  0.1637  1.2196  2.0009
12278TIP3    H258250   1.572   6.078  17.142 -1.3499 -1.1050 -0.9697
12279TIP3   OH258251   1.721   0.553   3.061 -0.0357 -0.0660  0.4930
12279TIP3    H158252   1.673   0.594   2.989  1.6981 -1.1513 -1.3143
12279TIP3    H258253   1.663   0.484   3.093 -0.5544  0.0149 -0.2756
12280TIP3   OH258254   2.482   4.048  12.961 -0.2253  0.4010  0.3235
12280TIP3    H158255   2.514   4.060  13.050 -2.2277  1.1560  0.9595
12280TIP3    H258256   2.420   3.975  12.968  0.4467 -0.2689 -0.6637
12281TIP3   OH258257   3.656   1.443  13.891  0.6254 -0.3555  0.0579
12281TIP3    H158258   3.589   1.460  13.958  1.2062 -0.1410  0.5899
12281TIP3    H258259   3.614   1.381  13.831  0.1412 -0.6569  0.6977
12282TIP3   OH258260   6.374   6.269   1.863 -0.0491  0.5835 -0.5033
12282TIP3    H158261   6.340   6.316   1.939  0.8446  2.0831 -1.0102
12282TIP3    H258262   6.321   6.300   1.790 -0.9886 -0.9472 -0.4895
12283TIP3   OH258263   4.457   3.254  15.613 -0.4767 -0.3387 -0.0756
12283TIP3    H158264   4.400   3.267  15.688 -1.6034 -0.5555 -0.8734
12283TIP3    H258265   4.485   3.342  15.589 -1.3515 -0.1115 -0.3172
12284TIP3   OH258266   1.421   4.552   4.439 -0.4735 -0.4493  0.4383
12284TIP3    H158267   1.357   4.485   4.462  0.7069 -0.8283  2.6425
12284TIP3    H258268   1.425   4.609   4.515  0.9679  0.2438 -0.1438
12285TIP3   OH258269   3.814   4.942   3.878 -0.1487 -0.4620  0.5385
12285TIP3    H158270   3.729   4.971   3.911 -0.7929 -0.6678 -0.9024
12285TIP3    H258271   3.794   4.872   3.816  0.9137  0.7418 -1.2370
12286TIP3   OH258272   5.885   1.988   5.106 -0.3667  0.0419  1.1310
12286TIP3    H158273   5.895   1.904   5.150 -0.2363  0.5644  2.1030
12286TIP3    H258274   5.959   2.041   5.136 -0.0358  0.2655 -0.0384
12287TIP3   OH258275   0.839   1.005   2.099 -0.2991  0.6141  0.4104
12287TIP3    H158276   0.857   0.914   2.125 -0.4644  0.7855  1.1359
12287TIP3    H258277   0.798   0.997   2.013 -1.1794 -0.0533  0.8817
12288TIP3   OH258278   2.068   2.714   2.553 -0.0864 -0.0654 -0.3198
12288TIP3    H158279   2.094   2.655   2.624  1.2153 -0.3964 -1.0435
12288TIP3    H258280   1.990   2.674   2.516 -0.4605 -0.1767  0.5876
12289TIP3   OH258281   5.146   6.710  13.763 -0.3934  0.4494  0.2687
12289TIP3    H158282   5.087   6.779  13.790  0.1122  0.4579  1.4039
12289TIP3    H258283   5.130   6.639  13.825  0.0135  0.0481 -0.0777
12290TIP3   OH258284   4.648   0.752  11.714  0.3305 -0.6787 -0.0092
12290TIP3    H158285   4.556   0.776  11.703 -0.2924 -2.5631  0.7696
12290TIP3    H258286   4.685   0.757  11.626 -0.0423  1.8517 -0.0547
12291TIP3   OH258287   3.002   5.064  12.414  0.1259  0.0442 -0.1649
12291TIP3    H158288   3.093   5.072  12.442 -0.5661  1.3941  1.8370
12291TIP3    H258289   2.964   5.000  12.475 -0.1002 -1.0322 -1.4304
12292TIP3   OH258290   3.834   0.964   2.365 -0.2991  0.5104 -0.5162
12292TIP3    H158291   3.913   0.967   2.312 -0.3252 -0.1458 -0.6029
12292TIP3    H258292   3.811   1.055   2.381  1.0701  0.7104  0.3915
12293TIP3   OH258293   0.495   2.948  11.818 -0.5414  0.2297 -0.5694
12293TIP3    H158294   0.554   2.888  11.863  1.3555  1.1851 -1.7242
12293TIP3    H258295   0.418   2.895  11.798  0.7984 -1.6444 -0.9272
12294TIP3   OH258296   2.742   3.623   6.795  0.0171 -0.4285  0.6807
12294TIP3    H158297   2.663   3.579   6.765  0.2115  0.7751 -1.7766
12294TIP3    H258298   2.786   3.559   6.851 -1.6198 -1.8843  0.3418
12295TIP3   OH258299   0.009   1.531   5.509 -0.6121 -0.3002 -0.9495
12295TIP3    H158300   0.048   1.491   5.432  0.5718  0.4583 -0.7768
12295TIP3    H258301   0.048   1.483   5.583  1.0751  1.3176 -0.7322
12296TIP3   OH258302   6.644   4.322  15.181 -0.3936  0.2467  0.5819
12296TIP3    H158303   6.735   4.325  15.209 -0.4963 -1.0774  1.0878
12296TIP3    H258304   6.604   4.256  15.237 -1.3735 -0.0826 -0.4983
12297TIP3   OH258305   2.287   1.838   5.530  0.4164  0.2423 -0.6258
12297TIP3    H158306   2.353   1.906   5.515  0.1946  0.5242 -0.3202
12297TIP3    H258307   2.331   1.773   5.584 -0.4508  1.8694  2.1389
12298TIP3   OH258308   5.029   0.558   3.800 -0.0868 -0.0216  0.2821
12298TIP3    H158309   5.113   0.521   3.770 -0.7455 -1.6526  0.4021
12298TIP3    H258310   5.007   0.622   3.733  0.5637 -0.6065 -0.5122
12299TIP3   OH258311   2.327   1.696   4.510 -0.3248  0.1038  0.1615
12299TIP3    H158312   2.315   1.710   4.604  0.6710  2.0939  0.0287
12299TIP3    H258313   2.411   1.652   4.503  0.1607  1.0291  0.1396
12300TIP3   OH258314   6.178   6.228  13.845 -0.3175 -0.1234 -0.0498
12300TIP3    H158315   6.243   6.229  13.916 -0.7990  1.0156  0.3797
12300TIP3    H258316   6.220   6.177  13.776  1.6979  1.8623 -0.3579
12301TIP3   OH258317   3.723   1.307  16.997  0.1489  0.5400  0.4683
12301TIP3    H158318   3.636   1.349  16.995 -0.1796  0.0854  3.1752
12301TIP3    H258319   3.734   1.272  16.909 -3.3911 -1.2995  0.6379
12302TIP3   OH258320   5.718   0.274  17.004 -0.0730  0.5967  0.1958
12302TIP3    H158321   5.651   0.211  16.976 -0.1844  0.2437  1.2507
12302TIP3    H258322   5.770   0.227  17.070  1.1792  0.8890 -0.5638
12303TIP3   OH258323   5.242   5.040   1.930 -0.1011  0.0542  0.0575
12303TIP3    H158324   5.213   5.015   1.843  0.6582 -3.8856  0.8291
12303TIP3    H258325   5.161   5.061   1.978 -0.7500 -0.4487 -0.8114
12304TIP3   OH258326   1.340   4.279  16.202  0.0571 -0.1796 -0.2099
12304TIP3    H158327   1.288   4.222  16.258  0.5224 -0.7425 -0.3489
12304TIP3    H258328   1.280   4.306  16.132 -0.8120  1.3293  1.1039
12305TIP3   OH258329   3.008   3.693  15.180 -0.0404  0.0400  0.0212
12305TIP3    H158330   2.962   3.775  15.199  1.5958  0.7212  1.1529
12305TIP3    H258331   2.947   3.643  15.126 -1.7500  1.2712  0.7836
12306TIP3   OH258332   4.413   1.030  14.343 -0.1155  0.0928  0.2563
12306TIP3    H158333   4.467   0.953  14.364  0.6578  0.1893 -1.2668
12306TIP3    H258334   4.327   1.011  14.380  0.0447 -1.5598 -0.1916
12307TIP3   OH258335   5.597   6.574  15.897 -0.1854 -0.5073 -0.3415
12307TIP3    H158336   5.661   6.645  15.898  1.7959 -2.2392  1.1047
12307TIP3    H258337   5.526   6.606  15.842  1.0185  2.2640 -0.3564
12308TIP3   OH258338   0.690   1.116   1.833 -0.0372 -0.3555 -0.3329
12308TIP3    H158339   0.687   1.126   1.738 -2.2861  2.8191 -0.0210
12308TIP3    H258340   0.720   1.201   1.865 -1.0775 -0.7684  1.8635
12309TIP3   OH258341   3.250   3.438   0.488  0.0649 -0.0249  0.1615
12309TIP3    H158342   3.178   3.493   0.460 -0.4222 -0.6027  0.2583
12309TIP3    H258343   3.236   3.425   0.582  1.2907  1.3189  0.5526
12310TIP3   OH258344   5.070   0.448  10.923 -0.4481  0.2231 -0.4603
12310TIP3    H158345   5.046   0.528  10.876  1.0141  0.0011 -1.5862
12310TIP3    H258346   5.106   0.390  10.856 -1.1567 -1.2516  0.4139
12311TIP3   OH258347   3.539   5.337  13.140 -0.0279  0.7198  0.5686
12311TIP3    H158348   3.587   5.408  13.097 -0.3202 -0.3145 -1.5352
12311TIP3    H258349   3.452   5.340  13.102 -0.5358  0.2635  1.6774
12312TIP3   OH258350   2.352   3.143  14.925  0.2343 -0.5924  0.4853
12312TIP3    H158351   2.359   3.174  14.835  1.0192 -1.4763  0.2357
12312TIP3    H258352   2.379   3.217  14.979 -0.3482 -0.0262  0.0030
12313TIP3   OH258353   6.121   6.260  11.960 -0.2046 -0.7991  0.0803
12313TIP3    H158354   6.214   6.269  11.940 -0.2741  0.7767  0.4754
12313TIP3    H258355   6.076   6.305  11.888 -0.6331 -0.7191  0.3937
12314TIP3   OH258356   6.105   3.521   0.003  0.3366 -0.6626  0.8395
12314TIP3    H158357   6.062   3.496   0.084 -0.9361 -0.2092  0.3146
12314TIP3    H258358   6.105   3.441  -0.050 -0.8484 -0.3941  0.4183
12315TIP3   OH258359   6.423   2.610  14.675  0.1677  0.6648 -0.4461
12315TIP3    H158360   6.477   2.677  14.633  1.0856 -1.1442 -2.2566
12315TIP3    H258361   6.373   2.657  14.741  1.5288  2.9545 -0.9953
12316TIP3   OH258362   0.953   2.971   4.889 -0.1737  0.2496 -0.1601
12316TIP3    H158363   1.011   2.902   4.919 -1.2039 -0.6126 -0.0971
12316TIP3    H258364   1.009   3.031   4.840  0.5932 -1.0219 -0.8458
12317TIP3   OH258365   3.158   2.712   6.219  0.7227 -0.3835 -0.1914
12317TIP3    H158366   3.243   2.673   6.240  0.3895 -1.6033 -1.0595
12317TIP3    H258367   3.109   2.709   6.301  1.0564 -0.8902 -0.0094
12318TIP3   OH258368   5.885   3.821   5.102  0.2346 -0.2499  0.2557
12318TIP3    H158369   5.938   3.848   5.177  1.1658 -0.4287 -0.3297
12318TIP3    H258370   5.903   3.887   5.035 -0.3672 -0.2562  0.0846
12319TIP3   OH258371   2.772   2.558  11.105  0.2456 -0.2283  0.1092
12319TIP3    H158372   2.794   2.601  11.022  0.7790  0.6631  0.7078
12319TIP3    H258373   2.784   2.465  11.087  0.3551 -0.0400 -0.8216
12320TIP3   OH258374   6.392   6.087   5.471 -0.4650  0.0506  0.4225
12320TIP3    H158375   6.347   6.068   5.388 -0.8660  0.4719  0.5426
12320TIP3    H258376   6.475   6.039   5.465 -0.6500 -0.2084 -0.0734
12321TIP3   OH258377   5.620   2.964   3.879 -0.3041  0.4553 -0.3974
12321TIP3    H158378   5.576   3.048   3.885 -0.6285  0.2761 -0.2130
12321TIP3    H258379   5.595   2.930   3.793 -0.1022  0.5845 -0.5081
12322TIP3   OH258380   1.789   4.570  15.254 -0.4923  0.2759 -0.5729
12322TIP3    H158381   1.876   4.530  15.246 -0.1631  0.3124  2.4191
12322TIP3    H258382   1.807   4.663  15.268 -1.1126  0.6803 -2.3478
12323TIP3   OH258383   6.752   5.356   2.479 -0.0242 -0.1749  0.6305
12323TIP3    H158384   6.750   5.262   2.497  0.0627 -0.0623  1.2410
12323TIP3    H258385   6.748   5.397   2.565  1.0454  0.3673  0.4329
12324TIP3   OH258386   4.678   1.047   1.401  0.8337  0.6061 -0.4172
12324TIP3    H158387   4.734   1.122   1.420 -1.2032  1.9302  0.4721
12324TIP3    H258388   4.589   1.082   1.400 -0.2213 -1.8927  0.6088
12325TIP3   OH258389   0.461   1.136  12.904  0.5245  0.3705 -0.2758
12325TIP3    H158390   0.373   1.163  12.932  1.0816  1.6308  0.3059
12325TIP3    H258391   0.450   1.115  12.811 -0.6128 -0.5137  0.0519
12326TIP3   OH258392   2.284   3.930   0.666 -0.1257  0.5559  0.0029
12326TIP3    H158393   2.347   3.989   0.625  0.8195 -1.0135 -0.8297
12326TIP3    H258394   2.338   3.871   0.720 -0.8890 -0.6625 -0.5512
12327TIP3   OH258395   4.169   4.167  15.335 -0.5528  0.0569 -0.2092
12327TIP3    H158396   4.240   4.146  15.396  0.5904  0.9079 -1.2157
12327TIP3    H258397   4.208   4.156  15.248 -1.6557  0.5125 -0.7676
12328TIP3   OH258398   4.774   1.771   5.905 -0.5973 -0.1894 -0.2448
12328TIP3    H158399   4.785   1.823   5.825 -0.8826 -0.7034 -0.6180
12328TIP3    H258400   4.793   1.833   5.976 -0.3151  0.2641 -0.7057
12329TIP3   OH258401   1.561   0.011  12.558  0.0266  0.1093 -0.0764
12329TIP3    H158402   1.591   0.090  12.514  1.3741 -0.5639 -0.3938
12329TIP3    H258403   1.594   0.018  12.648  0.1465 -0.0898 -0.1036
12330TIP3   OH258404   2.096   0.320   5.585  0.2655 -0.4299  0.4828
12330TIP3    H158405   2.067   0.411   5.575 -1.9559 -1.0123  1.1863
12330TIP3    H258406   2.172   0.312   5.527 -1.6172  0.9654 -2.2961
12331TIP3   OH258407   2.970   4.987   3.874  0.4398  0.9433  0.3237
12331TIP3    H158408   3.055   4.949   3.896 -0.4917 -1.5554 -0.2118
12331TIP3    H258409   2.914   4.963   3.947 -0.0850  1.5645  0.1238
12332TIP3   OH258410   2.027   4.762   1.560  0.1182 -0.4203  0.0497
12332TIP3    H158411   1.964   4.748   1.489 -1.9236 -1.8175  2.0753
12332TIP3    H258412   2.029   4.857   1.571 -1.1129 -0.3123 -0.5289
12333TIP3   OH258413   3.097   0.325  11.661 -0.1396 -0.5297 -0.1258
12333TIP3    H158414   3.110   0.375  11.581 -0.1084 -1.6655 -0.8391
12333TIP3    H258415   3.126   0.236  11.639  0.5314 -0.6920  1.3465
12334TIP3   OH258416   6.714   4.565   3.179 -0.4844  0.1715  0.2431
12334TIP3    H158417   6.765   4.579   3.259 -0.1848 -1.1856  0.3086
12334TIP3    H258418   6.650   4.636   3.178  2.2440  2.7135 -0.5251
12335TIP3   OH258419   3.444   3.843  14.434  0.2821  0.4443 -0.2405
12335TIP3    H158420   3.424   3.922  14.484  0.4435  0.8615 -0.8394
12335TIP3    H258421   3.528   3.813  14.470  0.0706  0.3700  0.1971
12336TIP3   OH258422   4.405   6.095   2.332 -0.6413  0.1098  0.3802
12336TIP3    H158423   4.405   6.035   2.406 -1.2402  1.7018  1.7206
12336TIP3    H258424   4.331   6.067   2.277  0.4408 -1.7109 -0.1623
12337TIP3   OH258425   1.812   4.943   0.045 -0.3988  0.2169  0.2062
12337TIP3    H158426   1.775   4.858   0.069 -0.1450  0.1183  0.2418
12337TIP3    H258427   1.745   4.983  -0.011  0.0145 -0.5157 -0.8173
12338TIP3   OH258428   0.638   6.061  14.754 -0.2072  0.3444  0.2081
12338TIP3    H158429   0.668   5.970  14.753  2.3843  1.1546  1.5858
12338TIP3    H258430   0.670   6.096  14.836 -2.7789  2.0265  0.5582
12339TIP3   OH258431   5.353   2.152  12.888  0.2056  0.3315 -0.4521
12339TIP3    H158432   5.377   2.220  12.826 -1.0500  0.1036 -1.2079
12339TIP3    H258433   5.427   2.092  12.888  0.6136  0.8245 -1.0100
12340TIP3   OH258434   1.868   6.134  16.770 -0.1775  0.4805  0.1950
12340TIP3    H158435   1.821   6.151  16.851  0.4004  0.6660  0.4958
12340TIP3    H258436   1.960   6.128  16.796 -0.1795 -1.3261 -0.1765
12341TIP3   OH258437   0.175   5.769  15.871  0.1908 -0.2469 -0.2885
12341TIP3    H158438   0.137   5.763  15.784  1.2543 -1.0699 -0.6945
12341TIP3    H258439   0.113   5.723  15.928 -0.4727  0.2476 -0.6071
12342TIP3   OH258440   6.230   2.139  11.094 -0.1406  0.0222  0.2998
12342TIP3    H158441   6.298   2.108  11.034  0.0153 -0.3369  0.6592
12342TIP3    H258442   6.231   2.234  11.084 -1.1507 -0.1275 -1.3810
12343TIP3   OH258443   2.444   0.407  12.609 -0.3301 -0.4717 -0.0075
12343TIP3    H158444   2.388   0.348  12.560 -0.9610 -0.3550  0.5677
12343TIP3    H258445   2.402   0.415  12.695  0.2128  0.1296  0.2090
12344TIP3   OH258446   4.673   2.648   6.009  0.6172  0.2218 -0.1983
12344TIP3    H158447   4.684   2.591   6.085 -0.2584  0.2385 -0.0586
12344TIP3    H258448   4.637   2.729   6.045  0.4837  0.3382 -0.5935
12345TIP3   OH258449   0.211   3.537   5.524  0.5048  0.3366 -0.3082
12345TIP3    H158450   0.160   3.570   5.598 -2.1381 -0.9047 -1.5024
12345TIP3    H258451   0.278   3.480   5.564 -0.8796 -0.3248  1.1324
12346TIP3   OH258452   5.581   4.375   3.899  0.2324 -0.0771 -0.0188
12346TIP3    H158453   5.564   4.315   3.971 -1.2779  2.1373  1.5260
12346TIP3    H258454   5.674   4.360   3.877  0.5523 -1.2036  1.9449
12347TIP3   OH258455   4.616   0.434   2.583  0.5084  0.6371  0.0348
12347TIP3    H158456   4.618   0.462   2.675 -0.6989  1.1472 -0.0795
12347TIP3    H258457   4.603   0.339   2.587  2.4669  0.3653  0.4044
12348TIP3   OH258458   0.786   0.682   3.550 -0.2714  0.7180 -0.1971
12348TIP3    H158459   0.768   0.721   3.465 -1.5719  1.3882  0.3799
12348TIP3    H258460   0.874   0.712   3.572  0.4337 -0.1682 -1.6879
12349TIP3   OH258461   5.874   3.455   0.157 -0.4597  0.0522  0.0405
12349TIP3    H158462   5.863   3.363   0.182  0.1685 -0.1077 -0.2658
12349TIP3    H258463   5.804   3.471   0.093 -0.6827 -0.1610  0.2321
12350TIP3   OH258464   2.519   6.227   0.738 -0.2902  0.0692 -0.2218
12350TIP3    H158465   2.511   6.301   0.677  2.0345 -1.1579 -2.1062
12350TIP3    H258466   2.473   6.155   0.695 -1.3870  0.0246  0.9888
12351TIP3   OH258467   2.431   3.756  14.694  0.0060 -0.2627  0.0711
12351TIP3    H158468   2.500   3.811  14.729  0.7173 -0.4722 -0.9711
12351TIP3    H258469   2.374   3.737  14.769 -0.8482  2.7496  0.2272
12352TIP3   OH258470   5.957   2.858   2.695  0.4485  0.6458  0.0857
12352TIP3    H158471   6.010   2.886   2.621  1.2457  0.0674  0.4297
12352TIP3    H258472   6.012   2.796   2.742 -0.3640  0.3759  0.7000
12353TIP3   OH258473   3.319   3.195   3.798  0.4681 -0.3812  0.0924
12353TIP3    H158474   3.300   3.112   3.755  0.3449  0.1900 -0.9873
12353TIP3    H258475   3.234   3.232   3.819  0.4623  0.3728 -1.2101
12354TIP3   OH258476   6.099   0.186  13.348  0.4397 -0.4956 -0.4017
12354TIP3    H158477   6.016   0.231  13.360  0.2880 -0.6239 -0.9549
12354TIP3    H258478   6.126   0.162  13.436  0.2471  0.1794 -0.1494
12355TIP3   OH258479   0.631   1.437   4.203 -0.2725 -0.1506 -0.2525
12355TIP3    H158480   0.681   1.368   4.159  0.6598  0.0780  0.4156
12355TIP3    H258481   0.551   1.394   4.233 -1.4627 -0.0400 -3.1327
12356TIP3   OH258482   2.080   6.603   2.921  0.5223 -0.5263  0.1982
12356TIP3    H158483   2.054   6.690   2.950  1.6041 -0.2180  0.2504
12356TIP3    H258484   2.161   6.585   2.968  1.0430 -0.9863 -0.8534
12357TIP3   OH258485   5.794   1.007  11.727  0.3104 -0.2150 -0.3692
12357TIP3    H158486   5.715   1.023  11.674 -0.9282 -0.0803  1.4629
12357TIP3    H258487   5.778   0.923  11.769  0.6679  0.3117  0.8467
12358TIP3   OH258488   3.492   4.719  16.413 -0.0617 -0.0200 -0.1575
12358TIP3    H158489   3.529   4.794  16.367  0.9630 -1.0746 -1.0643
12358TIP3    H258490   3.512   4.735  16.505 -0.9942  1.4560 -0.1885
12359TIP3   OH258491   0.598   4.716  16.892 -0.3123  0.0888  0.5832
12359TIP3    H158492   0.634   4.799  16.861  0.1731 -0.9572 -1.8156
12359TIP3    H258493   0.503   4.728  16.891 -0.4751 -0.5811 -3.6683
12360TIP3   OH258494   3.486   5.883  12.769 -0.9564 -0.6485 -0.4157
12360TIP3    H158495   3.466   5.957  12.710 -1.1924  0.0815  0.5660
12360TIP3    H258496   3.528   5.818  12.712 -0.3854  0.4004 -1.2186
12361TIP3   OH258497   0.350   4.521   0.039  0.1239 -0.1910  0.0618
12361TIP3    H158498   0.359   4.490   0.130  0.7398  0.4193  0.2166
12361TIP3    H258499   0.411   4.466  -0.011 -1.0579 -1.2943 -0.1716
12362TIP3   OH258500   3.804   4.453   4.049  0.2555  0.0988  0.6238
12362TIP3    H158501   3.833   4.436   3.959  2.2823 -0.8361  1.4186
12362TIP3    H258502   3.750   4.531   4.042  0.5553  0.1586 -1.3872
12363TIP3   OH258503   6.378   3.346  15.351  0.7128  0.3583  0.0118
12363TIP3    H158504   6.424   3.409  15.295 -0.1471  2.1492  1.3062
12363TIP3    H258505   6.289   3.379  15.357  0.7047  0.0205  2.1681
12364TIP3   OH258506   2.456   4.639   1.166  0.2187  0.5395 -0.1572
12364TIP3    H158507   2.363   4.638   1.187  0.2298  1.6308 -0.0428
12364TIP3    H258508   2.496   4.695   1.232  1.5183 -2.6618  1.9416
12365TIP3   OH258509   5.602   1.815   0.806  0.5155 -0.1039 -0.3591
12365TIP3    H158510   5.554   1.738   0.776 -2.0065  1.9444 -1.7677
12365TIP3    H258511   5.557   1.842   0.885  1.2971  0.0474  0.0425
12366TIP3   OH258512   0.874   5.096  17.136 -0.1789  0.1757 -0.7078
12366TIP3    H158513   0.879   5.006  17.102  0.5205  0.4819 -1.4273
12366TIP3    H258514   0.958   5.135  17.112  0.7363  0.0941  2.2811
12367TIP3   OH258515   4.704   0.322  14.408 -0.2602 -0.2820  0.2443
12367TIP3    H158516   4.674   0.246  14.457  0.1396 -1.8935 -1.9304
12367TIP3    H258517   4.787   0.293  14.368  1.4765  2.3054  1.8433
12368TIP3   OH258518   2.354   3.271  14.684 -0.0802 -0.2279  0.0441
12368TIP3    H158519   2.277   3.307  14.639 -0.2933 -0.5980  0.1094
12368TIP3    H258520   2.428   3.292  14.628 -0.1741  0.5470  0.2090
12369TIP3   OH258521   5.795   0.452  16.373 -0.4150  0.6819 -0.1773
12369TIP3    H158522   5.801   0.496  16.288  1.8474 -0.4242 -0.6376
12369TIP3    H258523   5.769   0.521  16.433 -2.6712  1.3556 -1.8446
12370TIP3   OH258524   4.056   6.525  15.686  0.0436 -0.1027  0.5857
12370TIP3    H158525   4.084   6.555  15.599 -0.5454  1.5307  0.9418
12370TIP3    H258526   4.117   6.453  15.707  1.5533  0.8964 -0.2607
12371TIP3   OH258527   2.549   4.282  15.169  0.6294 -0.5357  0.0492
12371TIP3    H158528   2.522   4.330  15.247 -3.2678 -1.3809 -0.6734
12371TIP3    H258529   2.626   4.329  15.137  0.1696  1.9190  2.4188
12372TIP3   OH258530   3.950   1.219   0.680 -0.0765 -0.7196 -0.1016
12372TIP3    H158531   4.008   1.147   0.654  0.2131 -0.3250 -0.5602
12372TIP3    H258532   3.998   1.265   0.749 -0.4534 -1.2279  0.5008
12373TIP3   OH258533   1.067   4.172   6.935  0.1327  0.4421 -0.3210
12373TIP3    H158534   1.141   4.153   6.877  0.9353  2.3415  0.0300
12373TIP3    H258535   0.995   4.191   6.875  0.5558  0.8800 -0.7014
12374TIP3   OH258536   4.861   0.010   1.333 -0.0559  0.0170  0.0281
12374TIP3    H158537   4.938  -0.046   1.333 -1.7664 -2.4084 -1.0466
12374TIP3    H258538   4.837   0.019   1.425  1.0844  0.2029  0.3092
12375TIP3   OH258539   0.924   2.227  16.278  0.6543 -0.9314 -0.5364
12375TIP3    H158540   0.928   2.195  16.368  0.5404 -0.4380 -0.3542
12375TIP3    H258541   1.003   2.193  16.236  0.6740 -1.2135 -0.2661
12376TIP3   OH258542   2.368   5.652  15.397 -0.1638  0.6903 -0.1820
12376TIP3    H158543   2.434   5.602  15.444  0.2809  0.6957 -0.7860
12376TIP3    H258544   2.331   5.590  15.334 -1.0689  0.5575  0.4676
12377TIP3   OH258545   5.062   6.704  10.869  0.1063  0.0093  0.0194
12377TIP3    H158546   5.016   6.695  10.952 -1.6998  1.2399 -0.7989
12377TIP3    H258547   5.152   6.725  10.893 -0.2288 -0.3607  1.6599
12378TIP3   OH258548   5.011   5.673   5.305 -0.4868 -0.2653 -0.7157
12378TIP3    H158549   5.010   5.754   5.356 -0.4056 -0.2943 -0.6692
12378TIP3    H258550   5.083   5.685   5.244 -0.8491 -0.0574 -1.1050
12379TIP3   OH258551   1.302   0.270   2.798 -0.8760  0.0109  0.0644
12379TIP3    H158552   1.386   0.316   2.792 -0.2619 -1.0555  0.2596
12379TIP3    H258553   1.242   0.324   2.747  0.5294 -0.5543 -2.3012
12380TIP3   OH258554   0.183   0.647  11.476 -0.3792  0.3488 -0.1131
12380TIP3    H158555   0.246   0.627  11.407  1.4145  0.3908  1.4818
12380TIP3    H258556   0.132   0.720  11.440  0.6842  0.5410 -1.2974
12381TIP3   OH258557   5.878   4.044  13.722 -0.2754 -0.1360 -0.3607
12381TIP3    H158558   5.884   4.118  13.783 -0.4410 -0.8710  0.5610
12381TIP3    H258559   5.968   4.011  13.716 -0.5142 -1.0186  0.7051
12382TIP3   OH258560   4.841   0.911   0.892 -0.1187 -0.6809 -0.2780
12382TIP3    H158561   4.790   0.915   0.811  0.1405 -1.6605 -0.4926
12382TIP3    H258562   4.932   0.901   0.863  0.2699  1.4081  0.0907
12383TIP3   OH258563   1.884   2.076   2.337 -0.0013 -0.1709 -0.1740
12383TIP3    H158564   1.801   2.031   2.321  0.0313  0.0773 -1.0298
12383TIP3    H258565   1.869   2.125   2.419  0.0382 -1.9030  0.8963
12384TIP3   OH258566   2.736   5.472   4.093  0.0595  0.3658 -0.2493
12384TIP3    H158567   2.726   5.561   4.059 -0.8818  0.2821 -0.1963
12384TIP3    H258568   2.747   5.418   4.014 -1.5710  0.2452 -0.4049
12385TIP3   OH258569   3.932   1.669   1.505 -0.1104 -0.5838  0.1067
12385TIP3    H158570   3.946   1.670   1.600 -1.1582 -0.7130  0.2700
12385TIP3    H258571   4.003   1.614   1.471 -0.1248 -1.0927  0.8823
12386TIP3   OH258572   0.598   3.789  15.556  0.2273 -0.5407  0.5362
12386TIP3    H158573   0.590   3.882  15.576 -1.6304 -0.3474 -0.9767
12386TIP3    H258574   0.680   3.782  15.507  0.3940  0.3024  0.7016
12387TIP3   OH258575   0.250   1.972   0.540 -0.4432  0.3917  0.3473
12387TIP3    H158576   0.280   2.009   0.458  0.6564 -0.8892  0.1674
12387TIP3    H258577   0.230   2.048   0.595 -0.9163  1.2439 -0.9879
12388TIP3   OH258578   4.379   0.019  14.187 -0.2235  0.0607 -0.5557
12388TIP3    H158579   4.333  -0.036  14.123 -1.5975  0.5498  0.0148
12388TIP3    H258580   4.448  -0.038  14.221  0.1362 -0.4025 -2.0253
12389TIP3   OH258581   0.405   0.700   3.665  0.6073 -0.2769 -0.5002
12389TIP3    H158582   0.452   0.780   3.689 -1.0138  0.4528  0.3302
12389TIP3    H258583   0.375   0.715   3.576 -0.3353  0.3422 -0.0771
12390TIP3   OH258584   6.781   0.811  13.248 -0.1373  0.3357 -0.4061
12390TIP3    H158585   6.793   0.761  13.168  0.3832  0.6839 -0.5435
12390TIP3    H258586   6.851   0.876  13.247  1.2730 -1.1003  1.4382
12391TIP3   OH258587   5.849   3.395   5.308 -0.0313 -0.2848 -0.4353
12391TIP3    H158588   5.889   3.341   5.376  0.9465  0.0410 -0.7485
12391TIP3    H258589   5.786   3.451   5.355 -0.8459 -1.4859 -0.0762
12392TIP3   OH258590   4.114   3.758   3.484  0.7526  0.0013  0.1644
12392TIP3    H158591   4.036   3.811   3.495  0.8819  0.1731  0.2626
12392TIP3    H258592   4.175   3.814   3.436  0.5050 -0.4406 -0.6698
12393TIP3   OH258593   5.413   3.874   0.930 -0.7277 -0.7524  0.5748
12393TIP3    H158594   5.505   3.884   0.953 -0.8890 -1.2266  1.4444
12393TIP3    H258595   5.408   3.901   0.838  0.2367 -0.5276  0.5863
12394TIP3   OH258596   1.643   6.765   2.396 -0.5432  0.3095  0.2707
12394TIP3    H158597   1.635   6.859   2.410 -0.0800  0.3828  0.0397
12394TIP3    H258598   1.703   6.735   2.465 -0.2942  0.2634  0.0348
12395TIP3   OH258599   1.607   5.903  11.636 -0.0512  0.2310  0.3968
12395TIP3    H158600   1.630   5.845  11.709  0.1177  0.8746  0.8597
12395TIP3    H258601   1.691   5.933  11.602 -0.1113 -0.5323 -0.4528
12396TIP3   OH258602   4.863   6.514   3.502  0.4711 -0.1662 -0.1353
12396TIP3    H158603   4.915   6.571   3.559 -0.6068  0.0032  0.7096
12396TIP3    H258604   4.810   6.575   3.450 -1.0893 -0.3595  1.1552
12397TIP3   OH258605   6.121   5.962  12.500 -0.4069  0.5352  0.6754
12397TIP3    H158606   6.057   5.903  12.461 -0.0449  0.3762  0.3039
12397TIP3    H258607   6.197   5.907  12.517  0.3003  1.0857 -0.6046
12398TIP3   OH258608   0.080   6.095  13.170 -0.4982  0.0291  0.5469
12398TIP3    H158609   0.143   6.130  13.108 -0.3704  0.0412  0.6834
12398TIP3    H258610   0.122   6.106  13.256 -0.5145 -0.3262  0.6020
12399TIP3   OH258611   2.412   4.774   2.921 -0.0361 -0.1155  0.1419
12399TIP3    H158612   2.419   4.841   2.989 -0.0598 -0.1709  0.1990
12399TIP3    H258613   2.488   4.788   2.864  0.0920 -0.1979  0.2938
12400TIP3   OH258614   5.216   1.703  12.157  0.8776  0.9303  0.1003
12400TIP3    H158615   5.227   1.793  12.127  2.1540  0.2519 -1.5223
12400TIP3    H258616   5.304   1.665  12.154  0.3677 -0.3419  0.8526
12401TIP3   OH258617   2.011   4.426  16.087 -0.0639 -0.0398 -0.1391
12401TIP3    H158618   2.092   4.390  16.051 -0.7381 -0.2817 -1.4555
12401TIP3    H258619   2.000   4.511  16.043 -0.3871  0.1133  0.2261
12402TIP3   OH258620   5.544   4.939   4.438  0.1649  0.1182  0.2492
12402TIP3    H158621   5.612   5.003   4.416 -1.1769  1.2874 -0.5780
12402TIP3    H258622   5.462   4.981   4.412 -0.7870 -1.7286  0.1813
12403TIP3   OH258623   6.440   2.194  14.831  0.1304 -0.4494  0.5003
12403TIP3    H158624   6.396   2.278  14.841  0.2004 -0.4880  1.1107
12403TIP3    H258625   6.479   2.176  14.916  1.0527 -0.5712  0.0615
12404TIP3   OH258626   1.269   5.227   6.488 -0.0741  0.1828  0.1561
12404TIP3    H158627   1.317   5.148   6.463 -0.9395 -0.3814  0.2533
12404TIP3    H258628   1.335   5.284   6.528  0.8867  0.2005 -1.4351
12405TIP3   OH258629   5.445   2.733   4.628 -0.5390 -0.6972 -0.0186
12405TIP3    H158630   5.503   2.808   4.636 -1.6574  0.2035 -0.2491
12405TIP3    H258631   5.371   2.765   4.575 -1.8033 -1.4832  1.2306
12406TIP3   OH258632   5.344   2.254  14.104 -0.3367 -0.1438  0.1400
12406TIP3    H158633   5.250   2.271  14.096 -0.7081 -1.7904  0.8013
12406TIP3    H258634   5.350   2.159  14.118  1.4253 -0.0513  0.1075
12407TIP3   OH258635   1.143   5.440  10.753 -0.1804  0.0673  0.7606
12407TIP3    H158636   1.080   5.434  10.680 -0.1768 -2.4369  0.8990
12407TIP3    H258637   1.119   5.519  10.799 -2.1085  0.1043 -0.2504
12408TIP3   OH258638   2.266   0.035   1.593 -0.0146 -0.0260  0.1702
12408TIP3    H158639   2.179   0.055   1.627  0.0907  1.0539 -0.1952
12408TIP3    H258640   2.252  -0.040   1.535 -0.1989 -1.9663  2.5737
12409TIP3   OH258641   4.482   3.996  12.922 -0.2851  0.0553 -0.4579
12409TIP3    H158642   4.544   3.930  12.891  1.0698  1.4543 -0.7551
12409TIP3    H258643   4.503   4.075  12.872 -0.1141  1.4717  1.7858
12410TIP3   OH258644   3.247   0.367   4.119 -0.0202 -0.1391 -0.2702
12410TIP3    H158645   3.235   0.462   4.122  1.6907  0.1468 -1.6722
12410TIP3    H258646   3.188   0.338   4.050 -1.8939 -0.3610  1.3669
12411TIP3   OH258647   2.612   4.356  16.170  0.0655 -0.3008 -0.5694
12411TIP3    H158648   2.633   4.438  16.125 -0.7367 -0.7417 -1.7669
12411TIP3    H258649   2.600   4.382  16.261 -1.3703  1.1327 -1.1405
12412TIP3   OH258650   0.490   2.480  15.968  0.0765  0.3259 -0.2457
12412TIP3    H158651   0.555   2.483  16.038 -0.0480 -0.7447 -0.0613
12412TIP3    H258652   0.493   2.566  15.928 -0.6427  1.3146  1.7934
12413TIP3   OH258653   4.431   3.833  11.058  0.5484 -0.3368  0.0762
12413TIP3    H158654   4.501   3.773  11.033 -0.7728 -0.7839 -2.8163
12413TIP3    H258655   4.403   3.871  10.975 -3.5530 -1.1839  0.9902
12414TIP3   OH258656   5.121   5.867   4.649 -0.6136  0.1571  0.4546
12414TIP3    H158657   5.051   5.932   4.654  0.0223  0.7695  1.6787
12414TIP3    H258658   5.109   5.813   4.728  0.1083  0.0952  0.5252
12415TIP3   OH258659   3.493   3.322   1.831  0.2197 -0.4983  0.4289
12415TIP3    H158660   3.435   3.330   1.756 -1.3372 -0.8344  1.5569
12415TIP3    H258661   3.515   3.412   1.855  0.8794 -0.3978 -0.5296
12416TIP3   OH258662   6.249   1.667   3.478 -0.1408  0.2440 -0.6894
12416TIP3    H158663   6.294   1.689   3.560 -1.6716 -0.2307  0.2987
12416TIP3    H258664   6.192   1.743   3.461  0.5206  0.5482 -1.5688
12417TIP3   OH258665   2.654   2.722   1.499 -0.8194  0.3192  0.4688
12417TIP3    H158666   2.713   2.647   1.487 -2.2179 -0.7355  0.1169
12417TIP3    H258667   2.665   2.773   1.418  0.1442  0.5229  0.7153
12418TIP3   OH258668   5.104   5.474   0.669 -0.4229  0.3420 -0.1531
12418TIP3    H158669   5.099   5.379   0.681  0.4978  0.1243 -1.3434
12418TIP3    H258670   5.193   5.497   0.694 -0.0080  0.5724 -1.7606
12419TIP3   OH258671   0.580   1.568  16.113 -0.1655  0.1531  0.3098
12419TIP3    H158672   0.525   1.605  16.044 -0.7391 -2.3853 -0.6825
12419TIP3    H258673   0.667   1.562  16.073 -0.0713  0.4834  0.4718
12420TIP3   OH258674   6.684   0.059  16.577 -0.2451 -0.3493 -0.0356
12420TIP3    H158675   6.764   0.064  16.629 -1.3104 -0.0310  1.6084
12420TIP3    H258676   6.714   0.058  16.486  1.6164 -0.3116  0.5649
12421TIP3   OH258677   5.950   6.703  14.089  0.2163  0.3875 -0.4716
12421TIP3    H158678   5.995   6.628  14.048 -1.4274 -0.6695 -0.3956
12421TIP3    H258679   5.871   6.714  14.037 -0.6656  0.6274  0.9114
12422TIP3   OH258680   6.265   0.155  15.587  0.1409  0.2879  0.3074
12422TIP3    H158681   6.186   0.105  15.607  0.0535  0.1962 -0.2652
12422TIP3    H258682   6.283   0.136  15.495 -0.0221  1.4929  0.0210
12423TIP3   OH258683   3.734   4.294  12.181 -0.7455  0.2524 -0.5241
12423TIP3    H158684   3.811   4.314  12.129 -0.0173  0.0548  0.4733
12423TIP3    H258685   3.767   4.246  12.257 -1.7506  0.7994  0.2803
12424TIP3   OH258686   0.096   6.171  16.701  0.2437  0.0644 -0.2958
12424TIP3    H158687   0.035   6.241  16.724 -0.4717  0.1063 -2.1943
12424TIP3    H258688   0.102   6.175  16.605  1.6184 -1.2817 -0.2870
12425TIP3   OH258689   6.336   6.240   2.550 -0.3305 -0.5548  0.2090
12425TIP3    H158690   6.361   6.256   2.641  0.8793  0.9406 -0.3616
12425TIP3    H258691   6.401   6.288   2.498 -1.6141 -0.5043 -1.4213
12426TIP3   OH258692   4.350   2.619  16.213  0.3514 -0.3164  0.3547
12426TIP3    H158693   4.401   2.687  16.171  0.7132 -1.3025 -0.8278
12426TIP3    H258694   4.412   2.573  16.270 -0.1941  1.1804  2.2065
12427TIP3   OH258695   0.080   2.954   1.779 -0.3568 -0.0765 -0.1773
12427TIP3    H158696   0.080   2.884   1.845  0.1918  0.5050  0.4515
12427TIP3    H258697   0.159   2.938   1.728 -1.6789 -1.5469 -1.8125
12428TIP3   OH258698   5.894   1.570   5.867 -0.0781  0.2604  0.4449
12428TIP3    H158699   5.950   1.501   5.834  0.8609  0.0070  2.4653
12428TIP3    H258700   5.858   1.535   5.949 -0.2660  1.8217  1.0501
12429TIP3   OH258701   0.390   3.401   5.681 -0.1621  0.3999  0.9989
12429TIP3    H158702   0.384   3.305   5.677  1.3325  0.2980  0.8987
12429TIP3    H258703   0.367   3.423   5.771 -2.7312  0.1504  0.4573
12430TIP3   OH258704   6.681   5.594   5.540  0.8131 -0.4434 -0.5718
12430TIP3    H158705   6.776   5.590   5.531  0.9387 -1.9569  1.1665
12430TIP3    H258706   6.659   5.526   5.603 -1.4256 -0.0275 -0.8286
12431TIP3   OH258707   0.331   4.062  12.584  0.0161  0.0042  0.0530
12431TIP3    H158708   0.242   4.053  12.550 -0.9608 -0.7104  2.6756
12431TIP3    H258709   0.351   3.975  12.620  1.3420  0.4906  0.5036
12432TIP3   OH258710   3.565   3.759  12.245  0.0442 -0.2465  0.0260
12432TIP3    H158711   3.628   3.744  12.315  0.1874 -0.4437 -0.1425
12432TIP3    H258712   3.618   3.761  12.165 -0.1326 -0.1544 -0.0891
12433TIP3   OH258713   6.705   3.224   2.595 -0.2474 -0.2239  0.1255
12433TIP3    H158714   6.791   3.214   2.555  0.6892 -0.1840  2.0820
12433TIP3    H258715   6.672   3.135   2.605  0.4344 -0.3631  1.1967
12434TIP3   OH258716   1.635   2.191   1.825 -0.1119 -0.6137  0.3085
12434TIP3    H158717   1.642   2.256   1.755  0.1862  0.0518  0.9482
12434TIP3    H258718   1.541   2.172   1.830 -0.0659 -1.1082 -0.6687
12435TIP3   OH258719   2.091   1.720   0.220  0.0515  0.3340  0.3294
12435TIP3    H158720   2.028   1.781   0.259  0.2620  1.2524 -0.7309
12435TIP3    H258721   2.074   1.725   0.126 -0.1831 -1.5582  0.2537
12436TIP3   OH258722   1.391   6.449  13.139 -0.3232 -0.2150  0.2675
12436TIP3    H158723   1.357   6.360  13.131  0.3215 -0.6811  2.3527
12436TIP3    H258724   1.445   6.447  13.218  0.8525  1.6710 -0.4485
12437TIP3   OH258725   3.008   1.089  15.325  0.1557  0.4763 -0.3683
12437TIP3    H158726   3.002   1.160  15.388  1.0799 -0.2070  0.5109
12437TIP3    H258727   2.923   1.046  15.329 -0.0694  0.9406 -0.1876
12438TIP3   OH258728   4.606   3.168  11.033 -0.0294  0.3269 -0.4082
12438TIP3    H158729   4.557   3.170  10.951  0.5081  0.1025 -0.7370
12438TIP3    H258730   4.688   3.213  11.013  0.5358 -0.6262 -0.2841
12439TIP3   OH258731   3.204   0.484   2.826 -0.2453  0.6459  0.0165
12439TIP3    H158732   3.213   0.566   2.875  1.8425  1.4727 -1.6478
12439TIP3    H258733   3.184   0.512   2.737  0.0850 -0.6622 -0.4745
12440TIP3   OH258734   5.324   3.171   0.581 -0.3465  0.7141  0.1013
12440TIP3    H158735   5.275   3.089   0.571  0.6480  0.3417 -1.7348
12440TIP3    H258736   5.256   3.237   0.598 -1.3678 -0.0483 -0.9787
12441TIP3   OH258737   5.603   6.088  16.668  0.5771 -0.0039 -0.5600
12441TIP3    H158738   5.664   6.106  16.597  1.2804 -0.1469  0.0018
12441TIP3    H258739   5.590   5.993  16.665 -0.0464  0.0943 -1.0205
12442TIP3   OH258740   5.850   6.162   5.144  0.2974 -0.0806  0.5033
12442TIP3    H158741   5.848   6.066   5.142  0.3124 -0.0630 -0.7009
12442TIP3    H258742   5.758   6.188   5.145  0.2901 -0.0849 -0.4003
12443TIP3   OH258743   0.183   3.559   1.890  0.1788 -0.4190 -0.1744
12443TIP3    H158744   0.100   3.603   1.908  0.4864  1.0433 -2.2676
12443TIP3    H258745   0.168   3.513   1.807  1.2894 -0.5816 -0.2857
12444TIP3   OH258746   3.859   1.600   2.097  0.8557  0.4049 -0.0957
12444TIP3    H158747   3.772   1.589   2.059  1.6049  1.8407 -2.3665
12444TIP3    H258748   3.860   1.541   2.172 -2.4349  1.1387  0.6255
12445TIP3   OH258749   0.894   2.435  11.541  0.3236 -0.1715  0.5107
12445TIP3    H158750   0.963   2.478  11.493  0.3742  0.2605  0.9643
12445TIP3    H258751   0.848   2.506  11.587 -0.5049 -0.4320  0.1038
12446TIP3   OH258752   2.839   1.504  16.606  0.5818 -0.2539 -0.0674
12446TIP3    H158753   2.926   1.503  16.646  0.1936  1.9193  0.9395
12446TIP3    H258754   2.804   1.590  16.629 -1.3695 -0.6506 -1.4717
12447TIP3   OH258755   6.392   2.541  12.496 -0.2316 -0.3404  0.1133
12447TIP3    H158756   6.388   2.458  12.448 -0.2525 -0.5716  0.5117
12447TIP3    H258757   6.337   2.601  12.445 -2.7473 -1.4211  1.4893
12448TIP3   OH258758   1.309   4.658  14.687 -0.3106 -0.1513  0.4702
12448TIP3    H158759   1.379   4.721  14.705 -0.7499  0.7137 -0.7350
12448TIP3    H258760   1.229   4.711  14.689 -0.5528 -0.3765 -2.0108
12449TIP3   OH258761   6.172   4.251   2.411 -0.0179 -0.6745 -0.3856
12449TIP3    H158762   6.237   4.189   2.377  1.8234  1.1008 -0.1445
12449TIP3    H258763   6.135   4.206   2.487  1.5957 -1.3420  0.0340
12450TIP3   OH258764   2.271   0.766   2.482  0.1672  0.1660  0.3893
12450TIP3    H158765   2.283   0.692   2.423 -0.7866 -0.4319  0.9472
12450TIP3    H258766   2.288   0.731   2.569  1.2873  0.9833  0.5106
12451TIP3   OH258767   1.702   6.201   2.493 -0.0890 -0.0504  0.3054
12451TIP3    H158768   1.746   6.283   2.514 -2.1023  0.6910  1.8743
12451TIP3    H258769   1.640   6.225   2.423  1.2174 -0.8469 -1.1481
12452TIP3   OH258770   3.833   0.404  14.243  0.4075  0.6363  0.6163
12452TIP3    H158771   3.753   0.443  14.280 -0.1636  1.5590 -1.4904
12452TIP3    H258772   3.815   0.400  14.149  2.7680  0.6074  0.1561
12453TIP3   OH258773   5.337   2.576  13.062 -0.4472  0.0465  0.3177
12453TIP3    H158774   5.289   2.558  12.981 -2.0253 -2.4039  1.7272
12453TIP3    H258775   5.273   2.619  13.119  0.4682  1.1683  0.5205
12454TIP3   OH258776   2.876   4.362   4.152 -0.0746 -0.0322 -0.6087
12454TIP3    H158777   2.870   4.398   4.063  1.2036  0.1071 -0.6418
12454TIP3    H258778   2.808   4.408   4.201 -0.5361  0.1613 -1.4180
12455TIP3   OH258779   5.726   6.589  17.011  0.2717 -0.0313  0.1443
12455TIP3    H158780   5.730   6.520  16.945  2.0656 -0.1867  0.3883
12455TIP3    H258781   5.799   6.570  17.070  1.6146  2.7999 -0.5025
12456TIP3   OH258782   0.856   1.544   3.015  0.4526 -0.6966 -0.1865
12456TIP3    H158783   0.946   1.571   3.031  0.1957 -0.6284  1.1661
12456TIP3    H258784   0.824   1.514   3.100 -1.1019  0.1762 -0.4366
12457TIP3   OH258785   3.080   0.459  11.349 -0.1597 -0.0018 -0.2161
12457TIP3    H158786   3.163   0.505  11.335 -0.0961 -0.3304 -0.9434
12457TIP3    H258787   3.083   0.385  11.289 -0.7628 -0.3040  0.1217
12458TIP3   OH258788   2.278   5.458  16.048  0.0179 -0.3091 -0.4729
12458TIP3    H158789   2.195   5.505  16.042  0.0700 -0.0982  0.4009
12458TIP3    H258790   2.305   5.445  15.957 -0.7961 -0.0649 -0.7490
12459TIP3   OH258791   6.717   4.298   4.364 -0.2931 -0.4399 -0.4710
12459TIP3    H158792   6.651   4.356   4.325 -2.5731 -1.9060  1.0497
12459TIP3    H258793   6.675   4.211   4.365  1.0146 -1.0960  1.9886
12460TIP3   OH258794   0.542   1.020   2.040 -0.3505 -0.1712  0.1939
12460TIP3    H158795   0.568   1.082   1.972  0.9004 -0.5078  0.3430
12460TIP3    H258796   0.574   0.936   2.009  0.5144 -0.2824  1.3173
12461TIP3   OH258797   3.248   3.525   1.961  0.0388 -0.3492 -0.8505
12461TIP3    H158798   3.165   3.571   1.967  0.4753  0.2820  0.3755
12461TIP3    H258799   3.314   3.594   1.959  0.5162 -0.8127 -2.5878
12462TIP3   OH258800   1.516   6.093  16.512 -0.5058  0.0738 -0.3577
12462TIP3    H158801   1.523   6.139  16.595  0.0820 -0.2540 -0.2156
12462TIP3    H258802   1.574   6.017  16.522  0.0400  0.3570 -1.2746
12463TIP3   OH258803   6.260   3.904  12.997 -0.0959  0.3127 -0.0687
12463TIP3    H158804   6.322   3.908  13.069  0.0930  0.7037 -0.2484
12463TIP3    H258805   6.226   3.993  12.990 -1.6381 -0.1915  0.8566
12464TIP3   OH258806   2.245   6.108   2.914 -0.5196 -0.4666  0.4215
12464TIP3    H158807   2.221   6.086   3.004 -1.3379  2.1486  0.8771
12464TIP3    H258808   2.304   6.183   2.922 -1.8755  0.8301 -1.2581
12465TIP3   OH258809   5.339   5.317   3.318 -0.1353 -0.3374  0.2167
12465TIP3    H158810   5.249   5.294   3.293  0.4144 -2.1659 -0.1212
12465TIP3    H258811   5.364   5.386   3.257 -0.5712 -1.2886 -1.0498
12466TIP3   OH258812   0.721   0.641  13.708  0.5386  0.1526  0.4885
12466TIP3    H158813   0.679   0.632  13.794 -0.2880  1.7790  0.2751
12466TIP3    H258814   0.657   0.603  13.647  0.4830  0.3291  0.4367
12467TIP3   OH258815   0.287   4.054   0.713 -0.0890 -0.3427 -0.2011
12467TIP3    H158816   0.305   4.013   0.628  0.1648 -0.1452 -0.2442
12467TIP3    H258817   0.203   4.018   0.740  1.0693 -2.4610  0.6998
12468TIP3   OH258818   5.456   1.649  16.000 -0.2888  0.0563  0.2378
12468TIP3    H158819   5.368   1.682  15.984 -0.9644 -1.2415  1.1708
12468TIP3    H258820   5.500   1.720  16.048 -0.9520  0.5557  0.1145
12469TIP3   OH258821   2.240   4.761  14.488 -0.0231  0.1271  0.4872
12469TIP3    H158822   2.218   4.818  14.414 -1.3604 -0.1750  0.6425
12469TIP3    H258823   2.159   4.711  14.505  0.5284 -0.4020  1.6150
12470TIP3   OH258824   0.908   3.879  11.151 -0.4850  0.1478  0.0128
12470TIP3    H158825   0.817   3.909  11.156 -1.3600 -2.0005 -2.2614
12470TIP3    H258826   0.906   3.789  11.183  0.9146  0.1743  0.2349
12471TIP3   OH258827   1.747   5.464   5.652 -0.2085 -0.0726  0.1327
12471TIP3    H158828   1.728   5.380   5.693  4.2165 -0.5844  1.4423
12471TIP3    H258829   1.745   5.527   5.724 -0.5992  0.4321 -0.3162
12472TIP3   OH258830   5.045   6.132  13.206  0.5267  0.1074  0.2497
12472TIP3    H158831   4.989   6.062  13.241 -1.0839  1.9404  1.4184
12472TIP3    H258832   5.127   6.088  13.184 -0.7302 -2.3037  0.1994
12473TIP3   OH258833   4.123   5.545  11.461 -0.4873 -0.1517  0.4889
12473TIP3    H158834   4.193   5.504  11.512 -0.3765 -2.3810 -1.3535
12473TIP3    H258835   4.042   5.514  11.500 -0.4022 -1.9464 -0.6862
12474TIP3   OH258836   1.291   0.894  16.301  0.1499 -0.3045 -0.0961
12474TIP3    H158837   1.332   0.842  16.370  0.9020 -0.8076 -0.9043
12474TIP3    H258838   1.250   0.829  16.244 -1.8705  0.1884  0.7313
12475TIP3   OH258839   0.855   4.979   0.798  0.3225  0.2493 -0.7298
12475TIP3    H158840   0.918   4.966   0.727  1.2772  0.4653  0.0830
12475TIP3    H258841   0.860   5.073   0.818  1.9025 -0.2632  1.3505
12476TIP3   OH258842   5.130   4.750  13.498  0.1238 -0.2576 -0.1020
12476TIP3    H158843   5.057   4.812  13.505 -0.4874 -0.7301 -2.0726
12476TIP3    H258844   5.207   4.805  13.482 -0.2787  0.0639 -0.9594
12477TIP3   OH258845   4.462   5.337   1.433 -0.2772  0.1248 -0.4326
12477TIP3    H158846   4.558   5.330   1.427 -0.4273 -1.0238 -1.9420
12477TIP3    H258847   4.443   5.321   1.525  0.8143 -2.4908 -0.5899
12478TIP3   OH258848   1.743   6.312  15.960  0.0907  0.3942  0.7204
12478TIP3    H158849   1.819   6.277  16.007 -0.0647  0.5546  1.0906
12478TIP3    H258850   1.763   6.406  15.950  1.0842 -0.0133 -1.3628
12479TIP3   OH258851   4.364   5.805  15.358 -0.2654  0.4579  0.5744
12479TIP3    H158852   4.395   5.896  15.356 -1.4163  0.8567  0.3456
12479TIP3    H258853   4.320   5.797  15.443  1.3964 -0.4160  1.3533
12480TIP3   OH258854   3.078   0.999   5.314 -0.2541  0.6014  0.1747
12480TIP3    H158855   3.055   0.919   5.267 -0.0288 -0.7204  2.2263
12480TIP3    H258856   3.127   0.968   5.391 -1.8302  2.5493  2.0196
12481TIP3   OH258857   1.186   4.018   5.616  0.1579 -0.3265 -0.1440
12481TIP3    H158858   1.155   4.063   5.695  0.3504 -1.0118  0.3257
12481TIP3    H258859   1.128   3.942   5.607  1.2538 -1.2479  0.3613
12482TIP3   OH258860   3.328   5.076  17.018  0.4110  0.4553  0.1395
12482TIP3    H158861   3.256   5.045  16.963  1.4339 -0.0872 -0.9392
12482TIP3    H258862   3.293   5.154  17.062 -1.0044 -0.1304  0.0770
12483TIP3   OH258863   4.064   2.401  11.511 -0.1325 -0.0536  0.3764
12483TIP3    H158864   4.061   2.490  11.476  0.4644 -0.7920 -1.6082
12483TIP3    H258865   4.126   2.355  11.455 -2.1778 -2.3483 -0.1089
12484TIP3   OH258866   1.568   4.507   5.258  0.1726 -0.6818  0.1114
12484TIP3    H158867   1.538   4.560   5.332  2.1888 -2.2361  2.1362
12484TIP3    H258868   1.662   4.522   5.255  0.5223 -2.8066 -0.3232
12485TIP3   OH258869   6.731   3.596   1.270  0.0730 -0.2117 -0.0951
12485TIP3    H158870   6.794   3.617   1.339  1.5227 -1.0796 -1.1202
12485TIP3    H258871   6.734   3.501   1.263 -2.5063 -0.4190  0.8689
12486TIP3   OH258872   4.739   4.486   5.627  0.6163 -0.0729 -0.6280
12486TIP3    H158873   4.711   4.498   5.718  0.9314  0.9623 -0.6584
12486TIP3    H258874   4.807   4.418   5.632  1.5282  0.8736  0.0848
12487TIP3   OH258875   1.768   3.603  13.402  0.4726 -0.0891  0.0418
12487TIP3    H158876   1.750   3.648  13.485 -0.7670  0.7576 -0.6770
12487TIP3    H258877   1.772   3.673  13.337  0.0207 -0.8894 -0.8497
12488TIP3   OH258878   3.678   0.079  11.682 -0.4460  0.3031 -0.3346
12488TIP3    H158879   3.764   0.120  11.685 -0.2520 -0.1563  0.5276
12488TIP3    H258880   3.665   0.055  11.591  1.9697 -3.1096  0.1581
12489TIP3   OH258881   0.965   2.757   6.152  0.5652 -0.2456  0.4780
12489TIP3    H158882   0.974   2.665   6.127  2.4630 -0.2809  1.2114
12489TIP3    H258883   0.931   2.754   6.241 -0.5570 -0.2050  0.0592
12490TIP3   OH258884   5.950   4.270  13.877  0.1639  0.1869 -0.4622
12490TIP3    H158885   6.020   4.241  13.937  0.0374  1.2566  0.2134
12490TIP3    H258886   5.889   4.318  13.933 -0.1428  0.8873 -1.3937
12491TIP3   OH258887   5.855   1.118  12.564  0.3986 -0.1235  0.5271
12491TIP3    H158888   5.880   1.087  12.651 -0.8710 -2.0591  0.2253
12491TIP3    H258889   5.822   1.207  12.579 -0.8019 -0.8281  2.2065
12492TIP3   OH258890   6.433   0.297   3.931  0.4762  0.2833 -0.2200
12492TIP3    H158891   6.393   0.213   3.953 -0.0393  0.5355 -0.1840
12492TIP3    H258892   6.422   0.350   4.010 -0.3420  0.8068 -0.6810
12493TIP3   OH258893   2.619   4.630   2.108 -0.5559 -0.3503 -0.1454
12493TIP3    H158894   2.694   4.633   2.167 -0.8887  0.2562  0.2549
12493TIP3    H258895   2.548   4.592   2.160 -0.6801 -0.3952 -0.3441
12494TIP3   OH258896   6.045   5.502   4.850  0.5765  0.4206  0.0310
12494TIP3    H158897   6.014   5.580   4.895  1.9881 -0.6481  2.9712
12494TIP3    H258898   5.970   5.442   4.850  0.9325 -0.0613  2.1835
12495TIP3   OH258899   3.329   0.615   4.641  0.7172  0.0802  0.1696
12495TIP3    H158900   3.349   0.628   4.548 -0.4958  0.7422  0.0003
12495TIP3    H258901   3.292   0.527   4.645  0.9097 -0.0087  0.0600
12496TIP3   OH258902   0.221   0.140  14.934  1.0042 -0.0382 -0.0578
12496TIP3    H158903   0.166   0.135  14.855  2.7022  1.3924 -1.3662
12496TIP3    H258904   0.159   0.159  15.004 -0.4797 -0.8357 -1.1055
12497TIP3   OH258905   2.921   2.042  13.002 -0.0716  0.8219 -0.2287
12497TIP3    H158906   2.860   2.004  12.939 -0.5485  1.1816  0.0206
12497TIP3    H258907   2.996   2.070  12.949 -0.0018  0.1460 -0.5006
12498TIP3   OH258908   3.421   2.742  15.669  0.5659  0.4002  1.1442
12498TIP3    H158909   3.425   2.680  15.742 -0.3270  0.0640  0.9168
12498TIP3    H258910   3.512   2.759  15.647  0.8444  0.5115  2.3474
12499TIP3   OH258911   2.374   5.657  16.691 -0.3091  0.1785  0.2238
12499TIP3    H158912   2.380   5.750  16.668 -0.1219 -0.3829 -2.0261
12499TIP3    H258913   2.452   5.641  16.744 -1.1068  1.6393  1.9246
12500TIP3   OH258914   6.684   0.701   1.385  1.0785 -0.3178 -0.2247
12500TIP3    H158915   6.677   0.624   1.441  0.0454  0.1097  0.2451
12500TIP3    H258916   6.707   0.772   1.445 -0.1048  0.1556 -0.3067
12501TIP3   OH258917   0.072   5.436   0.668  0.0924  0.1816  0.9018
12501TIP3    H158918   0.087   5.399   0.581  2.2112  0.7668  0.9937
12501TIP3    H258919   0.070   5.359   0.726  0.2082 -0.0968  0.5398
12502TIP3   OH258920   6.606   0.388   0.769 -0.7699  0.0071  0.5212
12502TIP3    H158921   6.652   0.368   0.687 -0.5709 -2.5228  1.1971
12502TIP3    H258922   6.673   0.428   0.825 -0.2585 -0.5503  0.3135
12503TIP3   OH258923   0.666   3.255  14.128 -0.3051  0.2258 -0.3642
12503TIP3    H158924   0.709   3.234  14.044  0.5646  1.0950 -0.1422
12503TIP3    H258925   0.643   3.170  14.164  0.4002 -0.2185 -0.9346
12504TIP3   OH258926   5.413   2.893   0.825  0.0094 -0.4693 -0.0938
12504TIP3    H158927   5.455   2.979   0.813 -1.8883  0.4846 -0.0008
12504TIP3    H258928   5.463   2.852   0.896  1.1344  0.4071 -0.3593
12505TIP3   OH258929   4.989   3.416  12.646 -0.1669 -0.0595  0.3082
12505TIP3    H158930   5.033   3.438  12.729 -0.0471  0.3928  0.1302
12505TIP3    H258931   4.904   3.381  12.673  0.5730 -1.6059  0.6768
12506TIP3   OH258932   2.035   5.467  15.760 -0.0489  0.0461 -0.0826
12506TIP3    H158933   2.020   5.556  15.791  2.1615  0.0905  1.0039
12506TIP3    H258934   2.124   5.468  15.725 -0.5114 -1.3929 -1.3784
12507TIP3   OH258935   1.339   4.916   6.230 -0.4827  0.8293  0.0833
12507TIP3    H158936   1.393   4.932   6.307  1.9544 -3.0357 -0.6932
12507TIP3    H258937   1.261   4.872   6.264 -1.3342  2.7953  0.7460
12508TIP3   OH258938   5.949   6.741   5.955 -0.0816  0.0876  0.2751
12508TIP3    H158939   6.024   6.799   5.963  0.0639 -0.2863  1.7547
12508TIP3    H258940   5.873   6.800   5.953  0.2487  0.4931 -1.7641
12509TIP3   OH258941   0.105   6.068  13.811 -0.3665 -0.3235  0.2564
12509TIP3    H158942   0.047   6.024  13.874 -1.9763 -1.2610 -1.8074
12509TIP3    H258943   0.064   6.153  13.797 -0.4578 -0.4383 -0.1589
12510TIP3   OH258944   0.591   6.168  13.622  0.0753 -0.1372 -0.3690
12510TIP3    H158945   0.642   6.245  13.648 -1.0264  0.6067 -0.3423
12510TIP3    H258946   0.633   6.136  13.543  1.1600 -0.1099  0.1991
12511TIP3   OH258947   2.518   5.401   2.834 -0.0336  0.2610 -0.1505
12511TIP3    H158948   2.464   5.474   2.865  0.3642  0.7576 -0.6186
12511TIP3    H258949   2.513   5.336   2.904  0.9646  1.4211  1.0252
12512TIP3   OH258950   4.832   0.436   1.760  0.1446  0.1383  0.3614
12512TIP3    H158951   4.847   0.519   1.805  4.1288  0.0844 -0.7041
12512TIP3    H258952   4.860   0.369   1.823  2.2890 -0.0960 -0.8074
12513TIP3   OH258953   5.743   1.069   1.584 -0.2774  0.1868 -0.2701
12513TIP3    H158954   5.684   1.142   1.603 -0.6944 -0.6306  1.7270
12513TIP3    H258955   5.820   1.086   1.638  0.7146  0.4913 -1.7628
12514TIP3   OH258956   3.449   2.550  14.591  0.1581  0.4391  0.0434
12514TIP3    H158957   3.478   2.459  14.584 -0.0872  0.3904 -0.3858
12514TIP3    H258958   3.389   2.562  14.517  0.7969  1.1749 -0.3725
12515TIP3   OH258959   3.344   5.670  11.604  0.1961  0.0908 -0.1188
12515TIP3    H158960   3.293   5.590  11.611 -0.4684  0.4940 -0.2531
12515TIP3    H258961   3.359   5.681  11.510  3.2090 -1.6706  0.1184
12516TIP3   OH258962   5.788   3.207   0.216  0.2591  0.1881  1.0155
12516TIP3    H158963   5.819   3.117   0.232 -0.2484  0.5002  4.0437
12516TIP3    H258964   5.700   3.195   0.179  0.5245 -0.5560  0.5975
12517TIP3   OH258965   6.615   6.337  14.576  0.0556 -0.7427 -0.1734
12517TIP3    H158966   6.612   6.292  14.491 -0.0595 -1.5293  0.2401
12517TIP3    H258967   6.697   6.386  14.574  1.3115 -2.7641  0.2607
12518TIP3   OH258968   2.566   0.459   5.306 -0.0688 -0.6078  0.6120
12518TIP3    H158969   2.630   0.420   5.246 -0.5449  0.1738 -0.4071
12518TIP3    H258970   2.570   0.553   5.287  0.5312 -0.2188  2.5317
12519TIP3   OH258971   4.200   0.502   4.475  0.6294  0.0691 -0.2247
12519TIP3    H158972   4.114   0.482   4.513  0.5512  0.7386 -0.0288
12519TIP3    H258973   4.180   0.550   4.395  0.8015  3.6547  1.7472
12520TIP3   OH258974   2.483   4.371  14.316  0.5087 -0.4880 -0.6363
12520TIP3    H158975   2.424   4.428  14.267  0.0959  0.2885  0.7067
12520TIP3    H258976   2.451   4.376  14.406  0.5373 -2.7917 -0.4810
12521TIP3   OH258977   0.746   2.098   2.779 -0.3651  0.1028  0.3666
12521TIP3    H158978   0.801   2.161   2.732 -0.4937 -0.2523 -0.2574
12521TIP3    H258979   0.672   2.149   2.810 -0.4348  0.2725 -0.0808
12522TIP3   OH258980   4.165   1.818   6.077 -0.2717 -0.1517  0.1901
12522TIP3    H158981   4.138   1.893   6.131  2.1376  0.7840  0.1572
12522TIP3    H258982   4.160   1.743   6.137 -1.0549  0.2919  0.6981
12523TIP3   OH258983   5.656   6.302  16.838  0.2089  0.0954 -0.1700
12523TIP3    H158984   5.616   6.230  16.788 -0.1240  0.8138 -0.9523
12523TIP3    H258985   5.595   6.319  16.909  1.1550 -1.5882  1.0717
12524TIP3   OH258986   0.761   5.774   1.051 -0.1345  0.2628  0.2199
12524TIP3    H158987   0.668   5.771   1.074 -0.0512  0.6287  0.6147
12524TIP3    H258988   0.795   5.849   1.099  0.3264  0.2443 -0.0760
12525TIP3   OH258989   4.592   4.282  12.084 -0.0340 -0.5987  0.3687
12525TIP3    H158990   4.621   4.291  11.994  1.1826  2.0099  0.9474
12525TIP3    H258991   4.610   4.191  12.107 -2.2414 -1.8721 -2.6002
12526TIP3   OH258992   5.313   5.937  11.939 -0.0166 -0.4824  0.2840
12526TIP3    H158993   5.334   5.844  11.943 -0.8576 -0.7207 -0.6821
12526TIP3    H258994   5.319   5.960  11.846 -0.3014  0.3068  0.4535
12527TIP3   OH258995   2.055   2.542   4.498 -0.2066  0.5886 -0.2637
12527TIP3    H158996   2.053   2.529   4.593  0.6605 -0.9634 -0.4430
12527TIP3    H258997   2.148   2.545   4.476 -0.3918 -0.3386 -1.2159
12528TIP3   OH258998   3.211   4.540   2.914 -0.0264  0.1624  0.5910
12528TIP3    H158999   3.267   4.616   2.898  0.0110  0.3920  1.7675
12528TIP3    H259000   3.216   4.526   3.009 -1.7732  0.0438  0.6752
12529TIP3   OH259001   3.382   4.076   2.663  0.6529  0.4339 -0.4500
12529TIP3    H159002   3.476   4.081   2.679  0.7052  3.4378 -1.2803
12529TIP3    H259003   3.342   4.095   2.748  0.8391  2.1488 -0.7298
12530TIP3   OH259004   5.047   2.082   3.971  0.7511  0.4173 -0.4586
12530TIP3    H159005   5.003   2.167   3.972 -0.7236 -0.3250 -0.6245
12530TIP3    H259006   5.127   2.095   4.022 -0.6819  1.2501  1.6078
12531TIP3   OH259007   0.816   6.198   1.327 -0.2821  0.1573 -0.1761
12531TIP3    H159008   0.871   6.247   1.266 -0.6747 -0.0281 -0.6825
12531TIP3    H259009   0.747   6.259   1.352 -0.5482 -0.0125 -0.5005
12532TIP3   OH259010   4.972   5.769   2.625 -0.0995 -0.5133  0.3200
12532TIP3    H159011   4.982   5.676   2.602 -1.3087 -0.7205  0.5972
12532TIP3    H259012   4.968   5.769   2.721 -1.3045 -0.3024  0.2703
12533TIP3   OH259013   4.091   5.544  13.755 -0.0121 -0.7290  0.3682
12533TIP3    H159014   4.155   5.502  13.696 -0.1184  0.4046 -0.5672
12533TIP3    H259015   4.025   5.580  13.697  1.5494  3.2710  0.9002
12534TIP3   OH259016   3.288   4.527  11.046 -0.0007  0.2870  0.3019
12534TIP3    H159017   3.319   4.601  10.994  1.7130  0.0631  0.9493
12534TIP3    H259018   3.363   4.503  11.101 -1.8896  0.7946  3.2158
12535TIP3   OH259019   3.902   4.146   4.749 -0.3723 -0.3088  0.3912
12535TIP3    H159020   3.941   4.225   4.785 -0.3880 -0.9385  1.8378
12535TIP3    H259021   3.858   4.174   4.669  0.6444  0.9164  0.2533
12536TIP3   OH259022   0.176   1.879   2.888 -0.0824 -0.1846 -0.6194
12536TIP3    H159023   0.103   1.877   2.950 -0.3655 -4.8892 -0.9462
12536TIP3    H259024   0.134   1.868   2.802  0.7660  0.5142 -1.1333
12537TIP3   OH259025   2.496   4.116   6.082  0.4209  0.8643 -0.1428
12537TIP3    H159026   2.475   4.129   6.174 -1.0639  1.5636 -0.5726
12537TIP3    H259027   2.412   4.094   6.041  0.6694  2.7596 -1.7171
12538TIP3   OH259028   5.125   4.257   0.748 -0.1400  0.2961 -0.1033
12538TIP3    H159029   5.082   4.322   0.692  0.2081 -1.4134 -2.4407
12538TIP3    H259030   5.055   4.197   0.773  0.4190 -1.3088 -2.2072
12539TIP3   OH259031   2.800   5.642  14.819  0.5886  0.0177 -0.4779
12539TIP3    H159032   2.768   5.651  14.729  0.3872 -0.9794 -0.5054
12539TIP3    H259033   2.894   5.660  14.813  0.4502  0.6921 -0.7570
12540TIP3   OH259034   5.983   5.344   1.565  0.0886 -0.9294  0.2508
12540TIP3    H159035   5.976   5.336   1.470 -0.1124  0.2711  0.1536
12540TIP3    H259036   5.892   5.350   1.595  0.1848 -0.1624  0.4031
12541TIP3   OH259037   3.906   5.750   3.877  0.2039 -0.4865 -0.0349
12541TIP3    H159038   3.831   5.809   3.878  1.1405  0.7283  0.9044
12541TIP3    H259039   3.888   5.689   3.806 -1.1013  0.5341 -0.6036
12542TIP3   OH259040   0.700   4.155   1.559  0.4776  0.0715  0.0016
12542TIP3    H159041   0.672   4.064   1.546 -1.3309  0.4988  0.7140
12542TIP3    H259042   0.755   4.175   1.484 -2.6359 -0.2462 -2.4379
12543TIP3   OH259043   1.919   5.717   1.678 -0.1303  0.7980  0.4753
12543TIP3    H159044   1.884   5.737   1.591  3.6181 -1.2258 -1.6390
12543TIP3    H259045   1.944   5.802   1.714 -1.2316  1.6123 -0.6097
12544TIP3   OH259046   1.188   0.365  14.508  0.0685  0.7081  0.2571
12544TIP3    H159047   1.134   0.440  14.484  0.3844  1.4649  1.7897
12544TIP3    H259048   1.259   0.404  14.560  0.5179 -0.5915  0.6154
12545TIP3   OH259049   5.402   4.959   4.178 -0.4369  0.2642 -0.1763
12545TIP3    H159050   5.437   4.892   4.237  4.0879  2.0278 -0.6893
12545TIP3    H259051   5.412   4.920   4.091 -0.7667  0.3897 -0.2712
12546TIP3   OH259052   5.928   5.286   3.644  0.1811 -0.2868  0.2801
12546TIP3    H159053   5.998   5.294   3.708  1.2391 -2.2272 -0.5639
12546TIP3    H259054   5.903   5.194   3.647  0.0034 -0.3463 -1.7985
12547TIP3   OH259055   0.117   1.054   2.678  0.0391 -0.0588  0.0499
12547TIP3    H159056   0.128   1.099   2.594  0.9409 -0.0497  0.1585
12547TIP3    H259057   0.198   1.002   2.687 -0.8490 -1.4630  0.0577
12548TIP3   OH259058   4.826   6.157  10.955  0.3006  0.0698  0.1587
12548TIP3    H159059   4.760   6.165  10.887  0.2292 -2.3520 -0.0811
12548TIP3    H259060   4.799   6.082  11.007  2.2878 -0.3150  0.6926
12549TIP3   OH259061   4.041   0.524  12.878 -0.1383 -0.5258 -0.6435
12549TIP3    H159062   4.135   0.540  12.885 -0.1288 -0.7070 -0.3217
12549TIP3    H259063   4.034   0.442  12.828 -0.0843 -1.1008  0.2801
12550TIP3   OH259064   4.458   0.429   1.864 -0.0244  0.8414  0.1118
12550TIP3    H159065   4.416   0.483   1.930  0.5082  0.2879  0.9179
12550TIP3    H259066   4.497   0.357   1.913 -0.1037  0.1153 -0.8669
12551TIP3   OH259067   5.506   5.140  17.061  0.3000 -0.2452 -0.8774
12551TIP3    H159068   5.473   5.052  17.046  0.2372 -0.4260  0.2972
12551TIP3    H259069   5.433   5.197  17.038  0.1562 -0.5200 -1.1093
12552TIP3   OH259070   1.633   0.272   3.912  0.5474  0.0408  0.0259
12552TIP3    H159071   1.677   0.204   3.962 -0.8212 -0.6773  0.2764
12552TIP3    H259072   1.637   0.241   3.821  2.1537  0.8631 -0.1945
12553TIP3   OH259073   3.343   6.215  16.318 -0.3008 -0.2822 -0.0887
12553TIP3    H159074   3.301   6.286  16.365  1.9938  0.6994  0.5039
12553TIP3    H259075   3.321   6.231  16.226 -0.6895  0.5475  0.1485
12554TIP3   OH259076   0.045   4.945   5.144 -0.1000 -0.0647  0.0575
12554TIP3    H159077  -0.038   4.987   5.167  0.8328  1.7260  0.1681
12554TIP3    H259078   0.112   5.004   5.177  1.2338 -0.9965 -0.9431
12555TIP3   OH259079   2.617   4.864   1.017  0.4508 -0.0829  0.3931
12555TIP3    H159080   2.564   4.941   0.997 -0.9150 -0.8529  0.9414
12555TIP3    H259081   2.706   4.888   0.990 -0.0288  1.5204  0.1748
12556TIP3   OH259082   5.125   0.152  15.296  0.0291 -0.0117 -0.0896
12556TIP3    H159083   5.199   0.193  15.252  0.2858 -1.3328 -0.8988
12556TIP3    H259084   5.132   0.182  15.387  0.3526  1.5223 -0.6027
12557TIP3   OH259085   2.423   0.000   4.322 -0.0114  0.2568 -0.7768
12557TIP3    H159086   2.382   0.051   4.252 -0.4405 -0.1954 -0.8567
12557TIP3    H259087   2.350  -0.038   4.370  0.2659  1.0020  0.2567
12558TIP3   OH259088   6.707   1.191   4.377  0.2689 -0.0682  0.2360
12558TIP3    H159089   6.627   1.143   4.397  1.0917 -1.2542  0.7029
12558TIP3    H259090   6.677   1.281   4.361 -1.1602 -0.5145  0.3030
12559TIP3   OH259091   2.443   3.235   5.968  0.0443  0.8150  0.2007
12559TIP3    H159092   2.407   3.297   5.904  0.3997  0.1975 -0.6068
12559TIP3    H259093   2.469   3.159   5.916 -1.7132 -0.6210  1.3433
12560TIP3   OH259094   3.654   0.174   0.382  0.5932  0.4652 -0.3153
12560TIP3    H159095   3.632   0.083   0.364  0.8317 -0.0161  1.6128
12560TIP3    H259096   3.570   0.218   0.394  0.5022  0.0860  0.5071
12561TIP3   OH259097   6.526   4.196   3.421  0.3934 -0.3745  0.0916
12561TIP3    H159098   6.458   4.261   3.403 -0.5868 -1.6851 -0.9740
12561TIP3    H259099   6.591   4.210   3.353  0.4515 -0.1423  0.1948
12562TIP3   OH259100   6.024   5.097   4.950 -0.3547  0.2819 -0.0194
12562TIP3    H159101   6.045   5.185   4.982 -2.6112  0.9705 -0.2993
12562TIP3    H259102   6.108   5.060   4.923  0.8107  1.8241  1.4025
12563TIP3   OH259103   2.961   5.005  11.273 -0.0550 -0.2946 -0.3017
12563TIP3    H159104   2.927   4.918  11.254 -0.5202  0.2769 -2.1520
12563TIP3    H259105   2.886   5.064  11.263  0.0799  0.2569  1.6720
12564TIP3   OH259106   3.306   3.607  14.022 -0.9008  0.2165 -0.4143
12564TIP3    H159107   3.386   3.656  14.040 -0.3252 -1.6087  2.3713
12564TIP3    H259108   3.237   3.656  14.068 -1.1694  0.9999 -1.6225
12565TIP3   OH259109   1.765   2.911  14.708 -0.0942 -0.1064 -0.3355
12565TIP3    H159110   1.826   2.899  14.635 -1.4058  2.1449 -1.8554
12565TIP3    H259111   1.775   2.832  14.760  3.7394 -0.0498 -0.8072
12566TIP3   OH259112   1.689   3.369   3.383 -0.9487 -0.1248  0.3924
12566TIP3    H159113   1.620   3.306   3.362  1.5923 -2.3506 -1.6393
12566TIP3    H259114   1.740   3.326   3.452 -0.8574  0.9279  0.9752
12567TIP3   OH259115   0.473   5.066  12.595 -0.2301  0.5821  0.1183
12567TIP3    H159116   0.516   5.049  12.678  0.9513 -0.7068 -0.7485
12567TIP3    H259117   0.468   5.161  12.590  0.1231  0.6799  1.4308
12568TIP3   OH259118   1.202   3.781  13.008  0.1147  0.8038 -0.2457
12568TIP3    H159119   1.249   3.857  13.041  1.4193  0.9966 -2.4313
12568TIP3    H259120   1.245   3.706  13.050 -0.4873  1.1879  1.0942
12569TIP3   OH259121   0.915   0.762   1.756 -0.0759 -0.1413  0.4807
12569TIP3    H159122   0.925   0.711   1.676  0.6118  1.8757 -0.7446
12569TIP3    H259123   0.820   0.768   1.769 -0.2083  0.2775 -0.6759
12570TIP3   OH259124   6.537   6.127   3.787  0.2670 -0.0203 -0.0405
12570TIP3    H159125   6.538   6.215   3.825  0.3771 -0.0720  0.0755
12570TIP3    H259126   6.608   6.081   3.830 -0.5289 -0.5268  0.7448
12571TIP3   OH259127   1.743   1.761   3.922 -0.3471 -0.1002  0.3418
12571TIP3    H159128   1.689   1.837   3.944 -0.9101 -0.2270 -0.5676
12571TIP3    H259129   1.833   1.791   3.935 -0.4708  1.3259 -1.7696
12572TIP3   OH259130   1.703   3.652   5.780  0.3582 -0.4052  0.3395
12572TIP3    H159131   1.784   3.702   5.778 -0.0642  0.2955  0.3704
12572TIP3    H259132   1.665   3.672   5.866 -0.6086  0.5191 -0.2924
12573TIP3   OH259133   1.970   5.146   3.316  0.2134  0.1634  0.4294
12573TIP3    H159134   1.957   5.235   3.282  0.2034  0.1996  0.5274
12573TIP3    H259135   1.941   5.150   3.407  1.9294  0.5379  0.9904
12574TIP3   OH259136   4.576   4.867  16.901 -0.2514 -0.3676  0.4419
12574TIP3    H159137   4.534   4.831  16.980 -0.3785  0.6899  0.8600
12574TIP3    H259138   4.663   4.827  16.900 -0.2183 -0.3155  1.1651
12575TIP3   OH259139   3.003   6.160  11.329 -0.2623  0.3687 -0.0631
12575TIP3    H159140   3.091   6.122  11.331 -0.2157  0.5325  2.4414
12575TIP3    H259141   2.957   6.112  11.260  1.7649  0.2504 -1.3630
12576TIP3   OH259142   6.120   1.427  12.850 -0.4410  0.0594  0.1709
12576TIP3    H159143   6.102   1.396  12.939  1.3983 -0.6743  0.3095
12576TIP3    H259144   6.042   1.403  12.801  0.0160 -2.8964  0.7796
12577TIP3   OH259145   3.665   3.524   1.698 -0.3425 -0.2587  0.3558
12577TIP3    H159146   3.682   3.559   1.611  0.8128  0.0602  0.6921
12577TIP3    H259147   3.684   3.430   1.691  0.6074 -0.0801  0.4743
12578TIP3   OH259148   0.872   4.154  12.211 -0.0162 -0.4810  0.1838
12578TIP3    H159149   0.943   4.152  12.275  0.8290 -0.5135 -0.7449
12578TIP3    H259150   0.821   4.074  12.229 -0.1054 -0.2142  1.1552
12579TIP3   OH259151   3.582   2.012   5.602 -0.3103  0.0102  0.3552
12579TIP3    H159152   3.505   1.982   5.649 -1.2684 -0.0170 -1.2011
12579TIP3    H259153   3.602   1.942   5.540 -0.0713  0.7619 -0.4351
12580TIP3   OH259154   3.159   2.684  14.204 -0.0025 -0.3863 -0.6851
12580TIP3    H159155   3.073   2.672  14.245  0.5467 -0.0409  0.5888
12580TIP3    H259156   3.139   2.717  14.117 -1.1694 -0.1699 -0.3420
12581TIP3   OH259157   5.520   6.377   2.771 -0.3937  0.3507  0.2336
12581TIP3    H159158   5.471   6.417   2.842  0.3740 -0.2241  1.1054
12581TIP3    H259159   5.612   6.397   2.791 -0.2398  1.2646 -1.2759
12582TIP3   OH259160   5.974   0.557  12.200  0.1148 -0.1298 -0.0478
12582TIP3    H159161   5.989   0.629  12.139 -1.2801  0.8604  0.7441
12582TIP3    H259162   6.060   0.541  12.240  0.0964  2.2569  1.0116
12583TIP3   OH259163   0.769   3.003  16.897 -0.3522 -0.6811  0.7107
12583TIP3    H159164   0.769   2.924  16.844 -2.0000 -0.3393  0.1809
12583TIP3    H259165   0.854   3.001  16.943  1.2019 -0.8433 -2.0790
12584TIP3   OH259166   1.532   3.402  13.232 -0.7087 -0.6849 -0.1914
12584TIP3    H159167   1.618   3.374  13.263  0.5212 -2.0023 -4.4535
12584TIP3    H259168   1.549   3.482  13.183 -2.0980 -0.2583  0.0080
12585TIP3   OH259169   3.669   4.866  11.904 -0.1781 -0.3631  0.0734
12585TIP3    H159170   3.602   4.866  11.835  0.9124  1.4936 -1.0490
12585TIP3    H259171   3.744   4.821  11.864 -0.7054 -2.3807  1.3020
12586TIP3   OH259172   3.168   4.379   0.677  0.8017 -0.0527  0.3139
12586TIP3    H159173   3.145   4.326   0.753 -0.7020 -0.9308 -0.7285
12586TIP3    H259174   3.123   4.337   0.603  2.0405  0.9105 -1.0304
12587TIP3   OH259175   6.003   6.696  13.321 -0.2293 -0.1264  0.7397
12587TIP3    H159176   6.025   6.654  13.404 -0.5069  1.6181  1.7196
12587TIP3    H259177   6.047   6.781  13.325 -0.4210  0.0588 -0.8168
12588TIP3   OH259178   3.342   3.999   4.279 -0.4563  0.3304 -0.5874
12588TIP3    H159179   3.352   4.077   4.335 -1.2552  1.5317 -2.0765
12588TIP3    H259180   3.289   3.939   4.332  1.0815  0.3444  1.0052
12589TIP3   OH259181   5.510   4.538  14.602 -0.0726 -0.4574 -0.3768
12589TIP3    H159182   5.510   4.569  14.512 -1.9060 -0.9631 -0.5896
12589TIP3    H259183   5.571   4.464  14.602  0.0971 -0.3240 -1.1658
12590TIP3   OH259184   4.187   6.309  17.136  0.4155  0.0273  0.0600
12590TIP3    H159185   4.178   6.363  17.057  1.0439 -0.5521 -0.4205
12590TIP3    H259186   4.215   6.223  17.102 -1.1788 -0.7830  0.7505
12591TIP3   OH259187   1.573   5.590   1.601 -0.0514 -0.3675 -0.3931
12591TIP3    H159188   1.544   5.616   1.688 -0.5755  0.4694 -0.7990
12591TIP3    H259189   1.520   5.514   1.579 -0.6085  0.0102 -0.3676
12592TIP3   OH259190   5.451   6.580   4.684  0.0048 -0.1500 -0.6952
12592TIP3    H159191   5.388   6.528   4.734 -0.2456  1.0618  0.2859
12592TIP3    H259192   5.492   6.637   4.749  1.1582  0.0039 -1.5487
12593TIP3   OH259193   3.878   4.060   0.946 -0.3880  0.6576 -0.2394
12593TIP3    H159194   3.795   4.027   0.980 -0.5703  1.1974 -0.1691
12593TIP3    H259195   3.944   4.005   0.988 -0.7073  0.1927 -0.3379
12594TIP3   OH259196   4.434   0.813  11.991  0.4610  0.0881 -0.1138
12594TIP3    H159197   4.362   0.764  11.952  1.0120 -0.5058 -0.4045
12594TIP3    H259198   4.465   0.869  11.921 -1.0604  1.8922  0.6177
12595TIP3   OH259199   5.368   1.519   3.979 -0.3804  0.0731 -0.0122
12595TIP3    H159200   5.345   1.437   3.936 -1.4640 -0.7001  2.0016
12595TIP3    H259201   5.362   1.585   3.910 -3.2991 -0.9442 -0.7798
12596TIP3   OH259202   0.149   0.040  14.206 -0.4861 -0.5413 -0.8421
12596TIP3    H159203   0.187  -0.046  14.190  0.5076 -0.5932  1.5787
12596TIP3    H259204   0.101   0.030  14.287 -0.9918  1.0004 -0.9412
12597TIP3   OH259205   1.958   6.306  14.598 -0.1889  1.0222 -0.7229
12597TIP3    H159206   1.940   6.390  14.641  0.2766 -0.0457  1.6231
12597TIP3    H259207   1.939   6.240  14.665  2.9258 -0.5846 -1.3258
12598TIP3   OH259208   6.755   0.108  12.046  0.0383  0.0034 -0.1637
12598TIP3    H159209   6.796   0.113  11.960 -0.1040 -0.8519 -0.2849
12598TIP3    H259210   6.749   0.199  12.075 -1.3032  0.4162 -1.6946
12599TIP3   OH259211   2.211   5.816   4.103 -0.2466 -0.9522 -0.0452
12599TIP3    H159212   2.263   5.889   4.070 -1.0482 -1.2837 -2.0564
12599TIP3    H259213   2.275   5.747   4.121  0.3899 -0.1424  0.8520
12600TIP3   OH259214   6.294   2.896  15.389 -0.1549 -0.4174  0.6534
12600TIP3    H159215   6.329   2.898  15.477 -0.3443  0.1091  0.7174
12600TIP3    H259216   6.256   2.808  15.380 -2.6696  0.4635  2.0976
12601TIP3   OH259217   5.028   6.331  10.951  0.2485 -0.1364 -0.1422
12601TIP3    H159218   4.942   6.292  10.963  0.0140  0.5960  0.6167
12601TIP3    H259219   5.036   6.346  10.857  0.7278 -2.8683 -0.5759
12602TIP3   OH259220   1.318   5.307  12.809  0.0418 -0.2107  0.2161
12602TIP3    H159221   1.394   5.259  12.842 -0.4611 -0.1048  1.5385
12602TIP3    H259222   1.341   5.399  12.819  0.4715 -0.1656 -1.0941
12603TIP3   OH259223   6.314   0.237   3.194  0.1444  0.2079 -0.1597
12603TIP3    H159224   6.390   0.275   3.237 -0.9252  0.1684  1.8003
12603TIP3    H259225   6.254   0.310   3.181  0.3215  0.1619 -1.3225
12604TIP3   OH259226   3.902   2.844  15.126  0.5478 -0.0987  0.0432
12604TIP3    H159227   3.972   2.884  15.075  0.6281  1.2543  1.1638
12604TIP3    H259228   3.943   2.820  15.209  0.1155 -1.0184 -0.0047
12605TIP3   OH259229   0.428   1.322  11.463  0.4273  0.0438 -0.8618
12605TIP3    H159230   0.513   1.366  11.470  0.4582 -0.0755 -0.4331
12605TIP3    H259231   0.385   1.340  11.547  0.0337  0.0956 -1.0750
12606TIP3   OH259232   3.396   5.226  15.630  0.0879 -0.6693 -0.3925
12606TIP3    H159233   3.452   5.199  15.557 -0.4226 -0.9800 -0.6671
12606TIP3    H259234   3.325   5.163  15.631  1.4645 -2.2607  2.0366
12607TIP3   OH259235   4.466   1.508  11.603  0.2207 -0.6765  0.6738
12607TIP3    H159236   4.403   1.484  11.535 -1.0496  0.2754  1.5169
12607TIP3    H259237   4.486   1.600  11.587  1.8300 -1.1033  0.0817
12608TIP3   OH259238   1.953   6.100   1.553 -0.1569 -0.1272 -0.2163
12608TIP3    H159239   2.024   6.043   1.583 -0.0033  0.7023  1.0283
12608TIP3    H259240   1.980   6.128   1.466  0.2733 -1.1098 -0.4048
12609TIP3   OH259241   1.178   3.530   2.657 -0.1076 -0.6171  0.3419
12609TIP3    H159242   1.205   3.547   2.566 -0.3109 -1.9868  0.0081
12609TIP3    H259243   1.104   3.588   2.671  1.3006  1.2246  0.3729
12610TIP3   OH259244   1.665   2.165   2.089  0.0642  0.0206 -0.5709
12610TIP3    H159245   1.637   2.210   2.010 -1.7943 -0.0426  0.0184
12610TIP3    H259246   1.681   2.075   2.061 -1.8447 -0.3084 -0.6418
12611TIP3   OH259247   1.541   6.075  13.913 -0.5966 -0.2948  0.2757
12611TIP3    H159248   1.445   6.072  13.921 -0.6472 -0.5216 -0.4097
12611TIP3    H259249   1.564   6.166  13.933 -0.7047 -0.8608  3.1924
12612TIP3   OH259250   2.198   5.438  12.113  0.2535  0.5506 -0.1064
12612TIP3    H159251   2.228   5.399  12.195 -0.9190 -0.0622  0.0355
12612TIP3    H259252   2.129   5.380  12.082 -0.3881  1.6373 -0.7370
12613TIP3   OH259253   4.839   4.451  14.666 -0.2563 -0.0192  0.0372
12613TIP3    H159254   4.883   4.532  14.641 -1.5113  0.4837 -0.5471
12613TIP3    H259255   4.774   4.477  14.731 -3.2448  0.0514 -2.8470
12614TIP3   OH259256   2.126   4.444   6.447  0.3800  0.3488  0.1271
12614TIP3    H159257   2.171   4.422   6.365 -0.3468  0.8440 -0.4064
12614TIP3    H259258   2.034   4.424   6.430  0.1760  0.7848  0.7052
12615TIP3   OH259259   3.327   4.288  11.332  0.2098 -0.1694  0.5732
12615TIP3    H159260   3.402   4.231  11.316 -0.9171 -1.1339 -1.4844
12615TIP3    H259261   3.251   4.230  11.327 -0.6964  0.7985  2.5777
12616TIP3   OH259262   1.614   2.469  15.563 -0.2965 -0.0523  0.2999
12616TIP3    H159263   1.612   2.377  15.538 -2.9837  0.5293 -1.9032
12616TIP3    H259264   1.569   2.472  15.648  1.9288 -1.0343  1.5492
12617TIP3   OH259265   5.177   2.279  13.515  0.2839  0.1905 -0.2544
12617TIP3    H159266   5.266   2.313  13.525  0.7438 -1.0135 -0.1787
12617TIP3    H259267   5.137   2.337  13.450  0.8272  1.2835  0.3631
12618TIP3   OH259268   5.578   4.473  15.417  0.3266  0.0804  0.5345
12618TIP3    H159269   5.641   4.427  15.361  1.1569  0.8798  0.8004
12618TIP3    H259270   5.495   4.428  15.402  0.4020  0.6481 -1.8282
12619TIP3   OH259271   3.834   1.838  10.696 -0.2269  0.8111  0.5073
12619TIP3    H159272   3.743   1.813  10.681  0.0583  0.3820 -0.5413
12619TIP3    H259273   3.882   1.799  10.623  0.8485  0.7411  1.2328
12620TIP3   OH259274   5.303   0.854  13.128 -0.3821 -0.1213 -0.3490
12620TIP3    H159275   5.367   0.907  13.082 -0.2513  1.1790  1.2812
12620TIP3    H259276   5.224   0.908  13.132 -0.5169 -0.3598  0.5748
12621TIP3   OH259277   3.854   4.476  15.160 -0.4970 -0.0249  0.4134
12621TIP3    H159278   3.851   4.406  15.224 -0.4849  0.2501  0.7132
12621TIP3    H259279   3.940   4.467  15.118 -0.0978  0.4168  1.1294
12622TIP3   OH259280   3.264   2.765  16.740 -0.1724  0.6996  0.1472
12622TIP3    H159281   3.198   2.808  16.686  1.8702  0.0655 -2.9589
12622TIP3    H259282   3.281   2.682  16.696 -0.0250 -0.8561  3.0135
12623TIP3   OH259283   2.332   5.012   1.366  0.4629 -0.7055  0.4606
12623TIP3    H159284   2.409   4.961   1.391  0.7407  0.3896  1.9041
12623TIP3    H259285   2.270   4.997   1.437 -0.1465 -0.5148 -0.0328
12624TIP3   OH259286   5.116   4.421  11.603  0.1468  0.1219  0.1117
12624TIP3    H159287   5.200   4.461  11.580  0.3654 -1.2322 -1.6302
12624TIP3    H259288   5.139   4.334  11.636 -0.4419  0.6230  1.8901
12625TIP3   OH259289   3.144   5.550   5.330 -0.0511 -0.2557 -0.4033
12625TIP3    H159290   3.068   5.518   5.282 -0.3378 -3.0567  1.7922
12625TIP3    H259291   3.112   5.564   5.419  1.2940  1.4616 -0.1757
12626TIP3   OH259292   2.821   5.645   1.614  0.2665 -0.3543 -0.0996
12626TIP3    H159293   2.909   5.619   1.640  0.7692  0.9481 -0.4243
12626TIP3    H259294   2.768   5.633   1.692  1.1410  0.6525  0.6708
12627TIP3   OH259295   2.117   3.570  15.582 -0.2300 -0.3784  0.0481
12627TIP3    H159296   2.046   3.598  15.640 -0.2575 -0.7857  0.2164
12627TIP3    H259297   2.074   3.543  15.502 -0.5636 -3.4039  1.1760
12628TIP3   OH259298   5.717   1.585   2.640 -0.0673  0.2922  0.4403
12628TIP3    H159299   5.773   1.585   2.718  0.6438 -0.4714 -0.0513
12628TIP3    H259300   5.754   1.653   2.584  1.2615 -1.1615 -0.4873
12629TIP3   OH259301   5.709   5.812  11.967 -0.2094 -0.0361 -0.2053
12629TIP3    H159302   5.665   5.732  11.995 -0.5192  1.4212  3.6331
12629TIP3    H259303   5.802   5.791  11.972 -0.2832 -0.0567  1.1285
12630TIP3   OH259304   1.902   1.807  13.212 -0.4547 -0.7008 -0.0220
12630TIP3    H159305   1.957   1.823  13.288  0.9769 -1.8117 -0.8031
12630TIP3    H259306   1.814   1.793  13.248 -0.1073  0.4276  1.2768
12631TIP3   OH259307   3.383   2.269   2.085 -0.0092 -0.3389 -0.5166
12631TIP3    H159308   3.352   2.358   2.102 -0.7728 -1.1570  2.5864
12631TIP3    H259309   3.303   2.219   2.071  0.3708 -0.7589 -1.1924
12632TIP3   OH259310   1.786   0.527   1.563 -0.1073  0.6812 -0.1599
12632TIP3    H159311   1.823   0.557   1.480 -0.0453  0.1199 -0.3386
12632TIP3    H259312   1.739   0.447   1.540  0.5477  0.1070  0.4842
12633TIP3   OH259313   1.535   4.093  10.850  0.1691  0.1216  0.7561
12633TIP3    H159314   1.594   4.018  10.841  0.1536 -0.0870  2.2556
12633TIP3    H259315   1.581   4.153  10.910 -0.8263  0.2523  1.4089
12634TIP3   OH259316   2.224   4.297  15.992  0.2201 -0.7500  0.4592
12634TIP3    H159317   2.296   4.361  15.996 -1.8613  1.6814  0.1120
12634TIP3    H259318   2.241   4.247  15.912  2.4544 -1.4066  1.2877
12635TIP3   OH259319   3.434   0.224  15.396 -0.1051 -0.4566 -0.4611
12635TIP3    H159320   3.396   0.175  15.324  0.9257 -1.6094 -0.2366
12635TIP3    H259321   3.525   0.194  15.400 -0.3202 -0.9268  1.7372
12636TIP3   OH259322   3.758   2.726   3.999 -0.6225  0.0637 -0.0876
12636TIP3    H159323   3.850   2.726   4.027 -1.0040  1.7529  1.2621
12636TIP3    H259324   3.732   2.818   4.003 -2.0467 -0.2615 -1.5900
12637TIP3   OH259325   0.900   4.295  17.050  0.4924 -0.2618 -0.3702
12637TIP3    H159326   0.960   4.243  16.996 -0.5410 -2.0120  0.1013
12637TIP3    H259327   0.831   4.233  17.074  0.6461  0.6093  2.4922
12638TIP3   OH259328   2.114   5.532  16.386 -0.1515  0.0802  0.1975
12638TIP3    H159329   2.060   5.610  16.375  1.9102  1.3896 -0.8961
12638TIP3    H259330   2.093   5.477  16.310  0.1452  0.6470 -0.2970
12639TIP3   OH259331   3.984   1.613   5.600  0.1352 -0.4759 -0.6357
12639TIP3    H159332   3.889   1.619   5.614  0.4312  0.4190  1.0181
12639TIP3    H259333   4.004   1.520   5.612 -0.5222 -0.6676 -0.9933
12640TIP3   OH259334   2.306   3.877  15.807  0.1523 -0.3920 -0.3050
12640TIP3    H159335   2.335   3.798  15.760  0.3104 -0.4874 -0.0520
12640TIP3    H259336   2.388   3.919  15.835  0.1102  0.5740 -1.5996
12641TIP3   OH259337   6.366   2.335  13.733  0.0621 -0.1563  0.3617
12641TIP3    H159338   6.278   2.351  13.768 -0.7522  0.1949 -1.7408
12641TIP3    H259339   6.376   2.240  13.733 -2.1790 -0.4878 -3.6110
12642TIP3   OH259340   1.195   3.270   0.321  0.0648  0.1836  0.4706
12642TIP3    H159341   1.262   3.234   0.263 -0.7395  1.2746 -1.1722
12642TIP3    H259342   1.215   3.363   0.327 -2.9083  1.1085 -2.3908
12643TIP3   OH259343   6.211   3.002  16.500  0.4231 -0.2610 -0.0975
12643TIP3    H159344   6.127   3.039  16.474 -0.0703 -0.9532  0.4688
12643TIP3    H259345   6.190   2.947  16.576  1.0294 -2.1123 -1.2356
12644TIP3   OH259346   1.326   1.081  13.828  0.7382  0.3517  0.2705
12644TIP3    H159347   1.244   1.040  13.856  1.3463  0.2785  2.0205
12644TIP3    H259348   1.299   1.150  13.768 -0.3027 -2.6041 -2.8053
12645TIP3   OH259349   2.476   4.880  15.485  0.3443 -0.1671  0.7749
12645TIP3    H159350   2.477   4.791  15.450  1.0298  0.1759 -0.0791
12645TIP3    H259351   2.423   4.873  15.564 -0.3091 -1.1624  0.2613
12646TIP3   OH259352   1.587   2.915  13.836 -0.2678 -0.6658 -0.1250
12646TIP3    H159353   1.675   2.916  13.798 -0.7850 -1.8300 -1.4114
12646TIP3    H259354   1.595   2.862  13.915  0.3140 -0.2541  0.0896
12647TIP3   OH259355   5.096   1.478   0.584  0.2093 -0.0609  0.0965
12647TIP3    H159356   5.059   1.505   0.668  2.2643  1.2448  0.6286
12647TIP3    H259357   5.020   1.453   0.531 -1.0901 -1.2554  2.4494
12648TIP3   OH259358   6.552   1.610  11.239 -0.0656 -0.1873 -0.1294
12648TIP3    H159359   6.620   1.677  11.228  1.2340 -1.1454  1.8339
12648TIP3    H259360   6.495   1.646  11.307  0.7031 -1.1312  1.0119
12649TIP3   OH259361   0.373   5.777  15.643  0.3986  0.0442 -0.1617
12649TIP3    H159362   0.329   5.694  15.628 -0.6623  0.6023 -0.2325
12649TIP3    H259363   0.370   5.788  15.739  0.7820 -0.1280 -0.1307
12650TIP3   OH259364   0.960   5.359  13.914  0.5718  0.9916 -0.4749
12650TIP3    H159365   0.966   5.281  13.859 -0.5502  0.5759 -0.0302
12650TIP3    H259366   0.965   5.433  13.853  0.7680  0.5517 -0.9853
12651TIP3   OH259367   4.086   1.986  11.097 -0.0907  0.3002 -0.1532
12651TIP3    H159368   4.069   2.055  11.161 -2.1466 -1.6404  1.4726
12651TIP3    H259369   4.000   1.951  11.075  0.9191 -1.9773 -0.6599
12652TIP3   OH259370   6.402   5.915  15.329  0.1757 -0.3770  0.2107
12652TIP3    H159371   6.316   5.915  15.373 -0.0592 -1.0027 -0.2352
12652TIP3    H259372   6.382   5.935  15.238  0.5881  0.2129  0.2497
12653TIP3   OH259373   0.036   3.833   1.178 -0.3999  0.1328 -0.0274
12653TIP3    H159374   0.017   3.741   1.201  1.5810 -0.3777 -0.3495
12653TIP3    H259375   0.106   3.858   1.237 -0.4704  1.2404 -0.4135
12654TIP3   OH259376   0.867   5.323   1.405  0.1713 -0.5864 -0.3699
12654TIP3    H159377   0.909   5.337   1.320  0.0876 -0.7689 -0.4422
12654TIP3    H259378   0.794   5.384   1.407  0.0082 -0.7762 -0.5439
12655TIP3   OH259379   3.292   1.282  11.741 -0.1953 -0.4815  0.0250
12655TIP3    H159380   3.321   1.205  11.789  0.6156 -0.2369 -0.0628
12655TIP3    H259381   3.265   1.249  11.656 -1.2952 -0.8682  0.5082
12656TIP3   OH259382   5.598   1.907  17.031  0.3507  0.3125 -0.4842
12656TIP3    H159383   5.625   1.817  17.013 -0.9901  0.1107 -1.5559
12656TIP3    H259384   5.663   1.939  17.094  1.6011 -0.9593 -1.0978
12657TIP3   OH259385   6.350   1.253  15.477 -0.3604 -0.5068 -0.1320
12657TIP3    H159386   6.350   1.343  15.509  0.8326 -0.5878  0.1213
12657TIP3    H259387   6.418   1.209  15.529  0.0164 -1.1994 -1.1974
12658TIP3   OH259388   2.614   6.212  15.789 -0.8856 -0.3199 -0.3706
12658TIP3    H159389   2.608   6.297  15.746  2.5020 -0.7657 -1.9182
12658TIP3    H259390   2.646   6.232  15.877 -1.5139  0.1033 -0.2339
12659TIP3   OH259391   4.952   6.482   2.640  0.2462  0.0781 -0.0858
12659TIP3    H159392   4.908   6.430   2.573  0.0106 -0.8936  0.8208
12659TIP3    H259393   4.944   6.431   2.720  2.2019  0.3047  0.2996
12660TIP3   OH259394   4.758   3.258   3.748 -0.2594 -0.2118 -0.2197
12660TIP3    H159395   4.670   3.252   3.785 -0.3186 -0.8496 -0.4524
12660TIP3    H259396   4.813   3.288   3.821 -0.5620 -0.4029  0.0871
12661TIP3   OH259397   4.053   0.012   1.145  0.4049 -0.0799  0.7303
12661TIP3    H159398   4.026  -0.003   1.054  0.8919 -0.2716  0.6170
12661TIP3    H259399   3.975  -0.006   1.197 -0.5671  2.2893  0.1700
12662TIP3   OH259400   4.343   0.039  13.294 -0.2539 -0.0864 -0.0821
12662TIP3    H159401   4.304   0.038  13.381  0.3589  1.1659  0.2295
12662TIP3    H259402   4.382  -0.048  13.284 -0.1031 -0.1528  1.0013
12663TIP3   OH259403   2.276   2.447  16.849  0.0380  0.4976 -0.2825
12663TIP3    H159404   2.236   2.392  16.917  0.3177  0.6356 -0.0047
12663TIP3    H259405   2.355   2.482  16.890  0.6793 -0.1257 -0.9719
12664TIP3   OH259406   4.298   2.979   0.082  0.1821 -0.1838  0.2122
12664TIP3    H159407   4.276   2.999   0.173 -0.2459 -1.8946  0.4936
12664TIP3    H259408   4.227   2.922   0.052  0.7941 -0.3585 -0.9202
12665TIP3   OH259409   3.382   3.155   5.349 -0.1305  0.6544 -0.3163
12665TIP3    H159410   3.424   3.073   5.376 -0.2258  0.7511  0.1343
12665TIP3    H259411   3.450   3.221   5.362  0.4465  0.4371 -2.1341
12666TIP3   OH259412   5.623   0.205   0.087  0.1406 -0.4849  0.1740
12666TIP3    H159413   5.708   0.195   0.045  1.1036  1.0525  1.7518
12666TIP3    H259414   5.588   0.286   0.051 -0.4522 -0.8424 -0.0720
12667TIP3   OH259415   5.608   6.685  13.076  0.0887  0.4359 -0.1660
12667TIP3    H159416   5.678   6.748  13.093  1.0698 -0.7231  0.1069
12667TIP3    H259417   5.622   6.657  12.985 -2.3819  3.1231 -1.4716
12668TIP3   OH259418   2.237   2.132  15.241  0.1701  0.3154  0.3796
12668TIP3    H159419   2.242   2.227  15.242  2.4880  0.2179  1.4893
12668TIP3    H259420   2.325   2.104  15.216 -0.8444 -1.5319 -1.3073
12669TIP3   OH259421   0.943   4.318   0.295  0.1682 -0.3116 -0.5505
12669TIP3    H159422   0.937   4.358   0.207  2.4370  1.1684 -0.0864
12669TIP3    H259423   1.033   4.287   0.301  0.0726 -0.2795  1.3244
12670TIP3   OH259424   6.599   0.004   5.212 -0.1087 -0.8041 -0.2718
12670TIP3    H159425   6.563   0.062   5.279  0.6893  0.2783 -0.7604
12670TIP3    H259426   6.524  -0.018   5.157 -0.7119 -1.4594  0.7859
12671TIP3   OH259427   4.980   3.510   5.727 -0.0159  0.3296 -0.0263
12671TIP3    H159428   4.897   3.485   5.686 -0.2426  3.5399 -1.6563
12671TIP3    H259429   5.043   3.445   5.696 -1.2398 -0.1682 -1.5225
12672TIP3   OH259430   4.255   3.218  15.825 -0.3998 -0.3695 -0.1077
12672TIP3    H159431   4.245   3.136  15.777 -1.4290 -0.0460 -0.4588
12672TIP3    H259432   4.190   3.276  15.786  0.7417  0.8118 -0.2847
12673TIP3   OH259433   0.441   2.053  14.521  0.0752  0.5361 -0.1576
12673TIP3    H159434   0.465   1.991  14.590  0.6041 -0.5696 -1.3138
12673TIP3    H259435   0.474   2.137  14.553  0.1571  0.0777  1.0152
12674TIP3   OH259436   4.066   4.724  13.406  0.3757  0.4610  0.3689
12674TIP3    H159437   4.045   4.654  13.345 -0.0416 -0.1345  1.1803
12674TIP3    H259438   4.141   4.769  13.367 -1.0470  1.2558 -1.4869
12675TIP3   OH259439   3.354   4.622  12.816 -0.5387 -0.2373 -0.6333
12675TIP3    H159440   3.444   4.592  12.834 -0.4448 -0.6259 -1.7436
12675TIP3    H259441   3.362   4.717  12.812 -0.5886 -0.1056  1.5048
12676TIP3   OH259442   6.726   1.242   3.532 -0.0809 -0.3217  0.0805
12676TIP3    H159443   6.722   1.148   3.552  0.1470  0.1629  2.5124
12676TIP3    H259444   6.819   1.261   3.526 -0.1052 -0.0948  0.4038
12677TIP3   OH259445   0.390   2.869   3.545 -0.1951  0.1681  0.1547
12677TIP3    H159446   0.426   2.915   3.620  1.1027 -0.2959 -0.1689
12677TIP3    H259447   0.459   2.874   3.478 -1.4991  0.9446 -1.1536
12678TIP3   OH259448   3.504   3.044  16.804 -0.1813 -0.8379 -1.0318
12678TIP3    H159449   3.419   3.051  16.762  0.3615  1.5651 -1.8031
12678TIP3    H259450   3.562   3.099  16.752  0.8195  1.1486  1.9919
12679TIP3   OH259451   2.928   0.223   2.712  0.0957 -0.0530 -0.0672
12679TIP3    H159452   2.857   0.282   2.689 -0.5148 -0.9185 -0.4407
12679TIP3    H259453   2.952   0.247   2.802 -0.6674  0.2418  0.0594
12680TIP3   OH259454   3.085   4.475   1.635 -0.2945 -0.0017 -0.7377
12680TIP3    H159455   3.147   4.503   1.702  0.6875 -0.7174 -1.3318
12680TIP3    H259456   3.034   4.406   1.676  0.7720 -0.9190 -0.9457
12681TIP3   OH259457   5.489   1.032  17.054 -0.1003  0.1061 -0.2096
12681TIP3    H159458   5.559   0.968  17.042  0.4786  0.5727  0.6514
12681TIP3    H259459   5.408   0.982  17.042  0.3780 -0.2344 -2.2035
12682TIP3   OH259460   6.004   2.103   3.659  0.5098 -0.3525  0.2583
12682TIP3    H159461   5.983   2.180   3.606 -0.1090 -1.6880 -1.4643
12682TIP3    H259462   6.036   2.139   3.742  0.4995  1.7566 -0.6327
12683TIP3   OH259463   0.081   1.103  16.120  0.0021 -0.1792 -0.7172
12683TIP3    H159464   0.027   1.157  16.062 -0.2408  0.2901 -0.0576
12683TIP3    H259465   0.022   1.034  16.151 -0.6433  1.2128  1.1992
12684TIP3   OH259466   2.382   0.589  15.484  0.0775  0.7560  0.2204
12684TIP3    H159467   2.344   0.584  15.397  1.4805  1.7022 -0.4658
12684TIP3    H259468   2.426   0.505  15.496 -0.7625  0.3284  0.3330
12685TIP3   OH259469   0.138   2.983   3.449  0.8612  0.3732  0.4089
12685TIP3    H159470   0.217   2.930   3.457  1.2373  0.8851  0.1304
12685TIP3    H259471   0.069   2.920   3.426  1.1538 -0.0950  0.8116
12686TIP3   OH259472   1.489   1.344   1.426 -0.4926 -0.5804  0.1527
12686TIP3    H159473   1.447   1.407   1.368 -0.5625 -1.4650 -0.7646
12686TIP3    H259474   1.583   1.360   1.417 -0.5200 -0.4546  0.0948
12687TIP3   OH259475   3.420   4.659   0.041  1.0048 -0.6976 -0.2998
12687TIP3    H159476   3.387   4.745   0.015  0.5339 -0.1816  1.8686
12687TIP3    H259477   3.502   4.678   0.087  2.2833 -1.6464 -2.1527
12688TIP3   OH259478   2.635   1.359  12.270 -0.0655 -0.3475  0.5570
12688TIP3    H159479   2.654   1.267  12.288 -0.3064 -0.5581 -0.2171
12688TIP3    H259480   2.714   1.406  12.297  0.5466 -0.9227 -0.1854
12689TIP3   OH259481   3.363   1.132  17.013 -0.4197  0.1228 -0.8122
12689TIP3    H159482   3.347   1.068  16.944 -1.7722 -0.6928  0.2325
12689TIP3    H259483   3.451   1.112  17.045  0.1633  0.4206 -2.1804
12690TIP3   OH259484   4.021   6.154   5.366  0.1719  0.2508 -0.1252
12690TIP3    H159485   3.947   6.100   5.339  0.4000 -1.7307  2.8657
12690TIP3    H259486   4.091   6.091   5.383  1.5833  1.8238  0.0109
12691TIP3   OH259487   2.397   5.029  15.715  0.3681  0.1906  0.1049
12691TIP3    H159488   2.465   5.089  15.746  1.0074 -0.2998 -0.3304
12691TIP3    H259489   2.331   5.029  15.784  0.5937  1.0336  0.3174
12692TIP3   OH259490   1.065   6.061   3.965  0.0627  0.2675  0.0100
12692TIP3    H159491   1.035   6.144   4.002  1.7133  0.5301  0.8225
12692TIP3    H259492   1.130   6.029   4.028  1.1276 -0.4993 -1.4547
12693TIP3   OH259493   0.072   1.850   4.951  0.3895 -0.1197 -0.3988
12693TIP3    H159494   0.048   1.879   4.863 -2.7786  1.0382  0.7716
12693TIP3    H259495   0.111   1.927   4.992 -0.2446  0.0024 -0.0315
12694TIP3   OH259496   4.145   6.781   5.377 -0.5375 -0.2630 -0.3054
12694TIP3    H159497   4.225   6.734   5.353 -0.4054  0.1553 -0.7024
12694TIP3    H259498   4.087   6.771   5.301 -0.1966  0.8899 -0.7338
12695TIP3   OH259499   6.582   4.811  12.065 -0.1849 -0.2604  0.0703
12695TIP3    H159500   6.645   4.795  11.995 -1.3200 -1.1130 -0.7764
12695TIP3    H259501   6.634   4.849  12.136  1.3558 -1.2833 -0.4774
12696TIP3   OH259502   4.547   5.565  14.872  0.1894  0.1361  0.1137
12696TIP3    H159503   4.588   5.533  14.952  0.6975 -1.4917 -0.7661
12696TIP3    H259504   4.501   5.645  14.898  1.5908  0.4490  1.7051
12697TIP3   OH259505   3.147   5.473   0.129  0.1492  0.0081 -1.0044
12697TIP3    H159506   3.142   5.568   0.139 -1.6912  0.0115 -1.6955
12697TIP3    H259507   3.237   5.450   0.154 -0.2977  1.5478  2.1632
12698TIP3   OH259508   5.690   1.620  14.667 -0.6489 -0.2632  0.0620
12698TIP3    H159509   5.655   1.673  14.739 -0.3750  0.2855 -0.2071
12698TIP3    H259510   5.668   1.530  14.691 -0.5266 -0.0882  0.8521
12699TIP3   OH259511   1.792   1.249   0.881 -0.1873 -0.0805 -0.5615
12699TIP3    H159512   1.789   1.284   0.970 -1.6108  0.9535 -1.0002
12699TIP3    H259513   1.724   1.182   0.879  1.2553 -1.5924 -0.2811
12700TIP3   OH259514   6.497   2.073   2.894 -0.0381 -0.1629  0.5980
12700TIP3    H159515   6.406   2.042   2.902  1.0401 -4.0998 -0.9081
12700TIP3    H259516   6.494   2.142   2.828 -1.7855 -1.0088 -0.2357
12701TIP3   OH259517   6.343   2.829  12.778 -0.7629 -0.2582  0.1552
12701TIP3    H159518   6.266   2.875  12.744 -2.0225 -1.1039  1.8375
12701TIP3    H259519   6.313   2.740  12.794  1.0766 -1.1159 -0.9215
12702TIP3   OH259520   1.051   1.605   3.759 -0.0598 -0.1793 -0.0657
12702TIP3    H159521   0.975   1.548   3.770  0.3996 -0.3567  2.4762
12702TIP3    H259522   1.023   1.669   3.693 -1.0942 -2.4266 -1.8554
12703TIP3   OH259523   2.726   6.748  15.685 -0.3467  0.2986  0.8343
12703TIP3    H159524   2.805   6.779  15.730 -0.7524  1.1405  0.9761
12703TIP3    H259525   2.740   6.771  15.594 -0.2586  0.0962  0.7968
12704TIP3   OH259526   0.553   0.399  15.647 -0.2319 -0.4138  0.1814
12704TIP3    H159527   0.610   0.415  15.722  1.6132 -0.0857 -1.2426
12704TIP3    H259528   0.590   0.322  15.604 -1.0311 -0.3596 -0.6200
12705TIP3   OH259529   4.241   6.714   3.428 -0.6035 -0.1543 -0.5119
12705TIP3    H159530   4.321   6.700   3.377 -0.1794 -0.9110  0.3467
12705TIP3    H259531   4.239   6.641   3.489 -1.6231  0.2188 -0.0971
12706TIP3   OH259532   1.701   3.763   1.257 -0.7960  0.4462  0.8183
12706TIP3    H159533   1.711   3.695   1.323 -1.7827  0.5774  1.1050
12706TIP3    H259534   1.766   3.829   1.281  1.7220 -1.3653 -0.7463
12707TIP3   OH259535   3.690   5.135  15.776  0.1567  0.3518  0.2571
12707TIP3    H159536   3.771   5.151  15.825  1.5894  1.1241 -2.2400
12707TIP3    H259537   3.718   5.079  15.703 -1.3747  1.3424 -1.1178
12708TIP3   OH259538   0.064   2.583  16.586  0.1166 -0.0390 -0.6502
12708TIP3    H159539   0.008   2.506  16.574 -1.9223  1.3244 -0.1359
12708TIP3    H259540   0.127   2.578  16.515 -1.0525 -1.2893 -1.6319
12709TIP3   OH259541   6.083   1.516   0.801 -0.1306 -0.1561 -0.4192
12709TIP3    H159542   6.174   1.495   0.824 -0.0462  0.0570 -0.5570
12709TIP3    H259543   6.058   1.447   0.739 -0.3276 -0.6749  0.2269
12710TIP3   OH259544   4.810   2.434   0.267 -0.4779 -0.0786  0.5015
12710TIP3    H159545   4.772   2.418   0.180 -0.8669  0.8337  0.4983
12710TIP3    H259546   4.759   2.507   0.302 -2.3576 -2.4118  2.7705
12711TIP3   OH259547   2.400   4.896   3.475 -0.3071 -0.2655  0.1761
12711TIP3    H159548   2.321   4.924   3.520  0.6568 -1.7994  2.9453
12711TIP3    H259549   2.471   4.942   3.518  0.4533  0.1440 -1.4539
12712TIP3   OH259550   4.170   4.278   6.405 -0.5528 -0.4069 -0.2546
12712TIP3    H159551   4.175   4.187   6.376 -0.6206 -0.9411  1.3342
12712TIP3    H259552   4.090   4.281   6.458 -0.3501  0.4858  0.0097
12713TIP3   OH259553   6.003   6.300   3.109 -0.0015 -0.1543  0.1237
12713TIP3    H159554   5.966   6.212   3.100 -1.9271  0.3305  2.7400
12713TIP3    H259555   5.936   6.359   3.073 -0.3443  0.4878  1.7830
12714TIP3   OH259556   6.627   4.856   0.156 -0.0336 -0.2727  0.1962
12714TIP3    H159557   6.657   4.808   0.233 -0.1692  1.2378  1.1963
12714TIP3    H259558   6.707   4.870   0.104  0.1009 -1.0400  0.1850
12715TIP3   OH259559   6.073   5.250   2.530 -0.0270 -0.0651 -0.4881
12715TIP3    H159560   6.038   5.179   2.477 -0.1390 -0.1660 -0.2771
12715TIP3    H259561   6.112   5.207   2.606 -0.0872  0.0988 -0.3637
12716TIP3   OH259562   3.747   0.777   1.016  0.1931  0.1320  0.6544
12716TIP3    H159563   3.662   0.734   1.020 -0.4644  1.3703  0.0553
12716TIP3    H259564   3.729   0.869   1.033  1.5945  0.1952  1.9787
12717TIP3   OH259565   3.076   0.175   2.499  0.0055 -0.3769 -0.4033
12717TIP3    H159566   3.021   0.199   2.574 -2.6251 -0.4396 -2.2255
12717TIP3    H259567   3.149   0.237   2.501  0.0913 -0.5083  2.2910
12718TIP3   OH259568   1.358   0.763  12.752  0.4515  0.1487 -0.1082
12718TIP3    H159569   1.323   0.789  12.666  0.2676 -0.6128 -0.2691
12718TIP3    H259570   1.422   0.696  12.732 -0.9248 -1.3687  0.4757
12719TIP3   OH259571   3.871   4.726   6.798  0.0811 -0.7088 -0.2955
12719TIP3    H159572   3.885   4.728   6.892 -0.3828 -0.5240 -0.2286
12719TIP3    H259573   3.952   4.762   6.761 -0.3927  0.8123  0.1049
12720TIP3   OH259574   1.209   1.509   2.855 -0.4513  0.7704  0.0816
12720TIP3    H159575   1.179   1.487   2.767  1.1338 -1.2438  0.0232
12720TIP3    H259576   1.294   1.467   2.863 -0.2732  1.4965  2.3508
12721TIP3   OH259577   5.828   3.428  16.257  0.6241  0.0028  0.5469
12721TIP3    H159578   5.913   3.470  16.251  1.0802 -1.1253 -1.2678
12721TIP3    H259579   5.825   3.368  16.182 -0.7364 -1.8559  2.0160
12722TIP3   OH259580   0.574   1.606  12.313  0.2509 -0.0533  0.1139
12722TIP3    H159581   0.543   1.622  12.402  0.5363  0.1803  0.1743
12722TIP3    H259582   0.668   1.589  12.324  0.4607  0.8511 -0.2281
12723TIP3   OH259583   5.852   1.556   4.393 -0.1910  0.6431  0.4894
12723TIP3    H159584   5.765   1.522   4.371  0.1001  0.6545 -0.6960
12723TIP3    H259585   5.908   1.479   4.396 -0.1323  0.6951  0.7295
12724TIP3   OH259586   1.021   2.070  12.409  0.5579  0.2637  0.5900
12724TIP3    H159587   1.009   2.133  12.338  1.9386 -0.2919 -0.1602
12724TIP3    H259588   1.089   2.108  12.464  0.3021  0.1490  0.9876
12725TIP3   OH259589   6.377   4.275   1.735  0.2842  0.2247 -0.1928
12725TIP3    H159590   6.430   4.326   1.674 -0.8219  2.5912  0.7404
12725TIP3    H259591   6.437   4.210   1.771  2.4793  2.5416  0.5177
12726TIP3   OH259592   1.300   4.887   4.629  0.5445 -0.3638 -0.2138
12726TIP3    H159593   1.361   4.944   4.582 -1.1429 -0.3018 -2.3957
12726TIP3    H259594   1.338   4.800   4.621  0.5424 -0.2772 -1.2776
12727TIP3   OH259595   5.935   3.211   2.463  0.1869 -0.3185 -0.4684
12727TIP3    H159596   5.876   3.282   2.488 -0.3398 -0.8459 -0.1883
12727TIP3    H259597   5.988   3.195   2.541 -1.5869 -2.0940  0.4497
12728TIP3   OH259598   5.744   3.101  16.222  0.2822  0.1295  0.4613
12728TIP3    H159599   5.824   3.051  16.233  1.1828  1.6527  0.9435
12728TIP3    H259600   5.761   3.158  16.147  0.2901  1.6400  1.5753
12729TIP3   OH259601   1.415   0.686  17.184  0.4621 -0.3103 -0.0509
12729TIP3    H159602   1.335   0.719  17.225  0.1911 -1.4906  0.3938
12729TIP3    H259603   1.398   0.693  17.090 -0.9535 -2.3688  0.0256
12730TIP3   OH259604   4.471   2.343   3.594  0.2389 -0.3257  0.0549
12730TIP3    H159605   4.538   2.284   3.559  0.8297  1.0538 -1.2335
12730TIP3    H259606   4.397   2.286   3.614  1.9315 -1.9422  1.9110
12731TIP3   OH259607   1.706   3.152   1.053  0.1535  0.1987 -1.1013
12731TIP3    H159608   1.742   3.072   1.015  1.0821  0.0466  0.0880
12731TIP3    H259609   1.719   3.143   1.147  0.4096  1.8077 -0.9541
12732TIP3   OH259610   0.769   0.559  11.267 -0.3837 -0.0459 -0.0974
12732TIP3    H159611   0.815   0.639  11.242  0.1129 -0.5682 -0.8745
12732TIP3    H259612   0.812   0.531  11.348 -0.5065  0.4279  0.1352
12733TIP3   OH259613   1.237   4.034  15.616  0.0951  0.0991 -0.0161
12733TIP3    H159614   1.236   3.957  15.559  0.2820 -0.2592  0.4675
12733TIP3    H259615   1.324   4.034  15.655 -0.0284  0.3569  0.2598
12734TIP3   OH259616   4.405   2.781  13.705  0.0860 -0.2144 -0.0637
12734TIP3    H159617   4.395   2.754  13.796 -2.6656  1.8366  0.3052
12734TIP3    H259618   4.497   2.806  13.697  0.0442  0.9023  2.5450
12735TIP3   OH259619   5.844   0.831   3.464  0.4802 -0.3742  0.0390
12735TIP3    H159620   5.810   0.745   3.490  2.0326 -0.9192  0.3061
12735TIP3    H259621   5.913   0.811   3.401 -0.0270  0.7427 -0.8859
12736TIP3   OH259622   3.469   5.299  16.402 -0.2708 -0.0683  0.2762
12736TIP3    H159623   3.546   5.338  16.443 -1.1799  3.2847 -1.0166
12736TIP3    H259624   3.504   5.241  16.335  1.1417 -0.8158  1.6277
12737TIP3   OH259625   2.581   5.599   4.967 -0.2358  0.6118  0.5185
12737TIP3    H159626   2.585   5.507   4.993  0.6671  0.7294  0.8252
12737TIP3    H259627   2.636   5.605   4.889 -0.0405  0.9537  0.6806
12738TIP3   OH259628   2.118   1.459  13.119  0.0057  0.3689  0.3165
12738TIP3    H159629   2.111   1.365  13.106  0.2345  0.5795 -1.4668
12738TIP3    H259630   2.042   1.495  13.073 -1.0015  0.9638  2.3652
12739TIP3   OH259631   5.248   0.120  16.266  0.1032  0.2299 -0.0788
12739TIP3    H159632   5.330   0.164  16.286  1.4969 -2.3396  0.1284
12739TIP3    H259633   5.267   0.069  16.187 -1.2730 -0.4008 -0.0206
12740TIP3   OH259634   1.440   3.654   2.757 -0.3044  0.3713 -0.3170
12740TIP3    H159635   1.464   3.632   2.667 -0.8972  3.2581 -1.2262
12740TIP3    H259636   1.516   3.700   2.792 -1.0798  1.6287 -0.2517
12741TIP3   OH259637   2.574   2.240  11.132  0.4133  0.4556  0.2772
12741TIP3    H159638   2.486   2.266  11.103  0.2077 -0.7228 -0.2123
12741TIP3    H259639   2.631   2.263  11.059  0.1043 -1.1954 -0.5230
12742TIP3   OH259640   2.566   5.490  13.322  0.3527  0.3057  0.0563
12742TIP3    H159641   2.502   5.444  13.376  0.2784  0.9319  0.5071
12742TIP3    H259642   2.649   5.446  13.341 -0.2268 -1.8952 -2.0956
12743TIP3   OH259643   4.591   6.334  11.596  0.4457  0.9743 -0.6828
12743TIP3    H159644   4.629   6.262  11.546  0.8789  0.8773 -0.2145
12743TIP3    H259645   4.555   6.393  11.529 -2.6344 -1.1399 -0.9726
12744TIP3   OH259646   3.328   5.001   5.049  0.0998 -0.3257  0.0488
12744TIP3    H159647   3.343   4.914   5.014 -1.6125 -0.2438 -0.9652
12744TIP3    H259648   3.321   5.057   4.972  0.1344  0.5277  0.6582
12745TIP3   OH259649   6.160   5.810   1.422  0.5158  0.0937 -0.1184
12745TIP3    H159650   6.180   5.872   1.492  0.8110  1.0943 -1.0818
12745TIP3    H259651   6.216   5.735   1.440  0.6706  0.3896  0.6512
12746TIP3   OH259652   2.803   2.069  12.011  0.5000 -0.0489  0.1824
12746TIP3    H159653   2.870   2.052  11.944 -0.1009 -0.2663 -0.3775
12746TIP3    H259654   2.773   1.982  12.037 -0.0873  0.0583 -0.1157
12747TIP3   OH259655   1.620   4.294  13.279 -0.1284 -0.6302  0.7880
12747TIP3    H159656   1.653   4.325  13.194  1.6909 -1.4547  1.1760
12747TIP3    H259657   1.561   4.222  13.257 -1.7325  0.8626  0.0825
12748TIP3   OH259658   3.300   2.443  16.794 -0.4609  0.5100 -0.2603
12748TIP3    H159659   3.262   2.465  16.709 -1.5181  0.1568  0.1220
12748TIP3    H259660   3.269   2.355  16.813 -0.1153  0.5293  0.4347
12749TIP3   OH259661   2.132   2.813   1.935  0.3454 -0.1451  0.0687
12749TIP3    H159662   2.091   2.875   1.874  1.2732 -0.3149 -0.7363
12749TIP3    H259663   2.058   2.767   1.975 -0.2586 -0.6509 -1.5878
12750TIP3   OH259664   0.114   6.422   5.895 -0.1289 -0.1261 -0.5483
12750TIP3    H159665   0.024   6.406   5.924  0.0734  0.5157  0.4336
12750TIP3    H259666   0.123   6.369   5.815 -1.9453  1.1989 -1.6663
12751TIP3   OH259667   4.304   4.866  16.248  0.2873 -0.1484 -0.2559
12751TIP3    H159668   4.386   4.861  16.297  0.0627 -0.6823  0.0598
12751TIP3    H259669   4.329   4.843  16.158  0.3960 -0.8219 -0.0593
12752TIP3   OH259670   4.531   2.250   6.506 -0.3269  0.3548 -0.6418
12752TIP3    H159671   4.556   2.202   6.428 -1.8070 -2.5540  0.6047
12752TIP3    H259672   4.611   2.256   6.558  0.3531  1.1688 -1.7473
12753TIP3   OH259673   6.733   2.556  11.945  0.0463  0.0011 -0.9370
12753TIP3    H159674   6.704   2.513  12.025 -0.3461  0.2724 -0.9269
12753TIP3    H259675   6.652   2.569  11.895  0.3895 -0.8824 -1.7293
12754TIP3   OH259676   2.403   6.011  13.647 -0.0563  0.6298  0.3494
12754TIP3    H159677   2.339   6.075  13.615  0.0837  1.4174  1.6009
12754TIP3    H259678   2.480   6.024  13.591 -1.3208 -1.0494 -1.8647
12755TIP3   OH259679   5.622   3.746  11.511  0.2146  0.9319  0.5062
12755TIP3    H159680   5.599   3.731  11.419 -1.4607  0.8311  0.9368
12755TIP3    H259681   5.557   3.808  11.543 -0.3979 -0.5260  2.1671
12756TIP3   OH259682   1.532   2.087  14.206  0.3429 -0.0224 -0.0646
12756TIP3    H159683   1.628   2.092  14.201  0.3418 -0.4115 -0.5884
12756TIP3    H259684   1.504   2.178  14.212  0.8219  0.0206  1.7242
12757TIP3   OH259685   1.086   4.391   2.907  0.2358  0.4426  0.1009
12757TIP3    H159686   1.074   4.480   2.874 -1.9657 -0.2331 -1.0565
12757TIP3    H259687   1.035   4.337   2.847 -0.0762 -1.3763  1.9591
12758TIP3   OH259688   0.022   1.305   1.850 -0.3560 -0.3173 -0.3588
12758TIP3    H159689   0.034   1.395   1.879 -0.9604  0.2897 -1.9869
12758TIP3    H259690  -0.067   1.282   1.877 -0.8277  0.1642 -1.4727
12759TIP3   OH259691   1.211   4.421  13.221 -0.2698  0.1771 -0.2419
12759TIP3    H159692   1.187   4.368  13.145  0.1234 -0.0655 -0.1952
12759TIP3    H259693   1.203   4.511  13.190  1.7128  0.0607 -1.1363
12760TIP3   OH259694   2.471   0.224  10.478 -0.2091  0.2181 -0.3136
12760TIP3    H159695   2.385   0.215  10.518 -0.5094 -2.7320 -1.5377
12760TIP3    H259696   2.526   0.262  10.547 -2.3832  1.8422  0.5712
12761TIP3   OH259697   4.546   5.194   4.681  0.0715 -0.9179 -0.2839
12761TIP3    H159698   4.573   5.270   4.631  0.7041 -0.9951 -0.0632
12761TIP3    H259699   4.602   5.123   4.650 -0.8382 -1.4040 -0.8284
12762TIP3   OH259700   6.275   4.265   4.381  0.5260  0.6653  0.9960
12762TIP3    H159701   6.350   4.290   4.327  0.2443  0.4287  0.4926
12762TIP3    H259702   6.199   4.279   4.325  0.2181  0.5779  1.3874
12763TIP3   OH259703   6.033   1.281  13.704  0.0469 -0.1929  0.4405
12763TIP3    H159704   6.114   1.231  13.699  0.8692  1.1095  0.4769
12763TIP3    H259705   5.992   1.253  13.786  1.5716  0.7595  1.5459
12764TIP3   OH259706   4.128   4.183  16.739 -0.2187  0.6982 -0.1907
12764TIP3    H159707   4.043   4.181  16.783 -0.6799  1.0603 -1.0524
12764TIP3    H259708   4.189   4.212  16.807 -0.3855 -1.7637  1.0392
12765TIP3   OH259709   1.465   5.582  11.290 -0.3195  0.1409  0.3025
12765TIP3    H159710   1.447   5.634  11.212  1.2852  0.6507  0.2732
12765TIP3    H259711   1.455   5.644  11.363 -1.5916 -0.2823  0.5159
12766TIP3   OH259712   2.663   4.889  17.230 -0.9012 -0.1663  0.1675
12766TIP3    H159713   2.588   4.910  17.285 -1.3816 -1.2096 -0.0724
12766TIP3    H259714   2.626   4.870  17.144 -0.2787  0.1958 -0.1822
12767TIP3   OH259715   5.246   3.237   4.462 -0.0360  0.5471 -0.2397
12767TIP3    H159716   5.333   3.196   4.463 -0.3202 -0.2040 -2.4905
12767TIP3    H259717   5.223   3.246   4.554  1.1368 -2.0852  0.3764
12768TIP3   OH259718   4.752   2.886   2.803  0.4286 -0.2417 -0.4649
12768TIP3    H159719   4.713   2.877   2.890  1.1060  0.4925 -0.0809
12768TIP3    H259720   4.677   2.892   2.744 -0.0359 -0.2538  0.1183
12769TIP3   OH259721   6.484   1.092  15.684 -0.4499  0.4667 -0.0693
12769TIP3    H159722   6.518   1.178  15.707  0.4417  0.1260 -0.1095
12769TIP3    H259723   6.503   1.037  15.761 -1.0491  0.3126 -0.0253
12770TIP3   OH259724   3.624   4.092   3.833  0.0916  0.2003  0.0396
12770TIP3    H159725   3.635   4.007   3.875  0.0435 -0.3724 -1.0896
12770TIP3    H259726   3.712   4.120   3.810  0.1027  0.4473  0.3648
12771TIP3   OH259727   0.297   2.145  17.182  0.1058 -0.2064  0.3746
12771TIP3    H159728   0.341   2.074  17.228  4.2199  0.9700 -1.4739
12771TIP3    H259729   0.292   2.216  17.246 -0.5393 -0.8639  1.0617
12772TIP3   OH259730   3.608   3.070   2.811  0.0670 -0.0916  0.7735
12772TIP3    H159731   3.612   3.031   2.724  2.0941  0.0372  0.7865
12772TIP3    H259732   3.517   3.101   2.820  0.3135  1.5323 -1.9685
12773TIP3   OH259733   3.220   1.493   0.640  0.5116 -0.2869  0.0616
12773TIP3    H159734   3.262   1.408   0.653 -1.5798 -1.1801  1.0788
12773TIP3    H259735   3.209   1.528   0.729 -1.4150 -0.3121 -0.1608
12774TIP3   OH259736   0.395   5.958  11.091  0.1067  0.1654 -0.2496
12774TIP3    H159737   0.332   5.891  11.063  0.2784  0.7974 -2.1920
12774TIP3    H259738   0.476   5.934  11.048  0.0377  1.9146 -1.3870
12775TIP3   OH259739   4.523   2.658   4.160  0.4238  0.1702  0.2163
12775TIP3    H159740   4.587   2.705   4.213 -1.1138  0.7967  1.5632
12775TIP3    H259741   4.438   2.693   4.188 -0.5250 -0.8089 -1.3619
12776TIP3   OH259742   4.326   5.656   5.757  0.3633  0.0648  0.4512
12776TIP3    H159743   4.295   5.700   5.836  0.1506  1.0006 -0.1352
12776TIP3    H259744   4.421   5.671   5.757  0.3429  0.1945  0.4537
12777TIP3   OH259745   5.987   2.367  13.262 -0.1381  0.2134 -0.5538
12777TIP3    H159746   5.944   2.416  13.191 -0.6453 -0.9563 -1.0740
12777TIP3    H259747   6.071   2.341  13.225 -0.9252 -1.4808 -1.1903
12778TIP3   OH259748   5.609   5.472   5.111  0.0357 -0.4446  0.1881
12778TIP3    H159749   5.524   5.432   5.095 -0.1885  0.3164 -0.4842
12778TIP3    H259750   5.598   5.564   5.089  1.7120 -0.7962 -2.3775
12779TIP3   OH259751   6.332   1.445   0.298 -0.5242  0.3737  0.3873
12779TIP3    H159752   6.372   1.433   0.212  1.6457  0.9219  1.2899
12779TIP3    H259753   6.244   1.409   0.289 -1.1010  2.4237 -2.6705
12780TIP3   OH259754   1.037   6.010   3.246 -0.0039  0.1589 -0.0881
12780TIP3    H159755   1.039   6.073   3.318 -0.9321 -0.8384  0.8318
12780TIP3    H259756   1.080   6.055   3.173  2.2465  0.6698  1.4991
12781TIP3   OH259757   5.387   2.919   4.862  0.3340 -0.3476  0.1407
12781TIP3    H159758   5.368   2.834   4.822  2.2677 -1.2211  0.9914
12781TIP3    H259759   5.459   2.901   4.922  0.3300  1.7823  0.8178
12782TIP3   OH259760   3.149   1.069   5.703 -0.5945  0.6673 -0.0111
12782TIP3    H159761   3.237   1.106   5.712 -1.4704  3.4241 -2.0059
12782TIP3    H259762   3.158   1.002   5.635 -0.3032  2.0305 -1.3481
12783TIP3   OH259763   0.187   2.706   3.635 -0.5698  0.2130 -0.2865
12783TIP3    H159764   0.111   2.723   3.579 -0.4015  0.2811 -0.4939
12783TIP3    H259765   0.254   2.768   3.605 -0.2711 -0.1751 -0.4254
12784TIP3   OH259766   4.735   5.047  13.029  0.0016  0.5123 -0.1077
12784TIP3    H159767   4.709   4.960  13.058  0.3548  0.7993  1.0958
12784TIP3    H259768   4.829   5.051  13.045 -0.3746  1.8949  1.9218
12785TIP3   OH259769   5.359   2.143  14.916 -0.5898  0.0782  0.2633
12785TIP3    H159770   5.394   2.134  14.827  0.9086  1.0693  0.7436
12785TIP3    H259771   5.287   2.080  14.919 -1.1514  0.5507 -1.9033
12786TIP3   OH259772   0.247   3.755  10.770 -0.6617  0.5085  0.0505
12786TIP3    H159773   0.208   3.704  10.840 -1.2546  0.7070 -0.1321
12786TIP3    H259774   0.339   3.729  10.770 -1.3807 -2.2594 -1.4979
12787TIP3   OH259775   5.595   1.872  16.223 -0.0165  0.2230 -0.6950
12787TIP3    H159776   5.682   1.837  16.207 -0.6138 -1.5664 -0.1718
12787TIP3    H259777   5.586   1.874  16.319 -1.0407 -0.8854 -0.7563
12788TIP3   OH259778   5.285   0.262  14.367 -0.1662 -0.1753  0.4038
12788TIP3    H159779   5.221   0.202  14.330  0.1837  0.1352 -0.7359
12788TIP3    H259780   5.296   0.233  14.457 -1.5242 -0.5405  0.4607
12789TIP3   OH259781   5.162   2.570  16.664 -0.3005  0.4740  0.6470
12789TIP3    H159782   5.202   2.591  16.580  0.6435  0.4330  1.0713
12789TIP3    H259783   5.085   2.518  16.642  1.4381 -1.8907 -0.0883
12790TIP3   OH259784   0.789   0.253  10.903  0.0112 -0.0670 -0.0011
12790TIP3    H159785   0.847   0.317  10.860  0.7509 -0.2535  0.7107
12790TIP3    H259786   0.811   0.170  10.861 -0.8440  0.1121 -0.8185
12791TIP3   OH259787   5.072   1.633  12.370 -0.0267  0.2608 -0.3056
12791TIP3    H159788   5.121   1.651  12.290  0.1334 -0.4935 -0.3893
12791TIP3    H259789   5.071   1.537  12.376  0.1095  0.3098  0.6809
12792TIP3   OH259790   5.323   2.308   3.819  0.5693  0.3062  0.3955
12792TIP3    H159791   5.300   2.323   3.910  1.0830  0.6699  0.4729
12792TIP3    H259792   5.334   2.396   3.782  1.9861  0.1534  0.4133
12793TIP3   OH259793   4.543   2.316   2.228  0.6467  0.2401  0.8261
12793TIP3    H159794   4.472   2.377   2.211  0.8057 -0.2178 -1.7279
12793TIP3    H259795   4.500   2.233   2.246  0.4854 -0.1223 -1.0801
12794TIP3   OH259796   0.060   1.784   2.661  0.0010 -0.3158  0.2037
12794TIP3    H159797   0.060   1.702   2.611 -0.4061 -0.7273  0.8562
12794TIP3    H259798  -0.032   1.799   2.682  0.1029  0.1868  0.2846
12795TIP3   OH259799   5.875   3.006  11.470  0.6833 -0.1832 -0.5451
12795TIP3    H159800   5.854   2.913  11.464  0.4030 -0.2438  1.1592
12795TIP3    H259801   5.850   3.030  11.559  0.2588  1.6522 -1.1471
12796TIP3   OH259802   3.748   1.572   0.680 -0.6894 -0.3342  0.4691
12796TIP3    H159803   3.825   1.626   0.661  0.8966 -1.9108  2.1829
12796TIP3    H259804   3.710   1.552   0.594  0.6257  0.7498 -0.3703
12797TIP3   OH259805   5.517   6.338  17.091 -0.2042  0.4384 -0.2704
12797TIP3    H159806   5.536   6.363  17.181 -0.2523 -1.8689  0.4126
12797TIP3    H259807   5.428   6.370  17.075 -1.4948 -2.0329  1.6533
12798TIP3   OH259808   6.356   4.100   0.746  0.4759 -0.4072  0.5387
12798TIP3    H159809   6.371   4.008   0.768 -0.2624 -0.1395  2.2663
12798TIP3    H259810   6.355   4.145   0.831 -0.4730  0.9923 -0.1970
12799TIP3   OH259811   5.007   2.796  12.078 -0.3236  0.3042 -0.3160
12799TIP3    H159812   4.923   2.766  12.043  0.0248  0.6231 -1.4779
12799TIP3    H259813   5.016   2.885  12.043  0.0123  0.6543  0.6612
12800TIP3   OH259814   1.452   3.239  12.953  0.6019  0.0158 -0.4009
12800TIP3    H159815   1.416   3.322  12.922  0.2829  1.0942  2.6801
12800TIP3    H259816   1.544   3.259  12.974  1.1043 -0.9560 -1.5690
12801TIP3   OH259817   1.795   0.249   2.929 -0.0857 -0.2354 -0.1123
12801TIP3    H159818   1.800   0.246   3.025 -1.5117  0.9065 -0.0007
12801TIP3    H259819   1.883   0.224   2.900  0.2149 -1.0811  1.4769
12802TIP3   OH259820   1.744   4.475   1.399 -0.2587 -0.3069  0.0981
12802TIP3    H159821   1.773   4.507   1.313 -1.4556 -0.7952 -0.5005
12802TIP3    H259822   1.649   4.470   1.391 -0.3295 -0.8761  1.2861
12803TIP3   OH259823   3.604   0.218   0.841 -0.1710  0.5125  0.3521
12803TIP3    H159824   3.521   0.223   0.794  0.8740  2.3207 -1.3709
12803TIP3    H259825   3.588   0.267   0.922 -1.7805 -2.0720  1.6561
12804TIP3   OH259826   2.634   5.964   0.616  0.4955  0.3817 -0.3203
12804TIP3    H159827   2.571   5.896   0.593 -0.4310  1.2068 -0.2830
12804TIP3    H259828   2.684   5.928   0.688 -0.8780  0.2480  0.5780
12805TIP3   OH259829   3.896   5.183   1.835  0.5504  0.3451  0.1809
12805TIP3    H159830   3.852   5.140   1.908  1.0510  0.5449  0.6023
12805TIP3    H259831   3.841   5.164   1.759 -0.2040  0.5110  0.6865
12806TIP3   OH259832   4.188   0.153  14.337  0.0936  0.3686 -0.2202
12806TIP3    H159833   4.149   0.072  14.369 -1.3679  0.1874 -2.3457
12806TIP3    H259834   4.254   0.125  14.273 -1.1283  0.8605 -1.7178
12807TIP3   OH259835   3.706   4.124   5.187 -0.0631 -0.2733  0.0486
12807TIP3    H159836   3.645   4.056   5.215  2.7399 -2.1788  1.8454
12807TIP3    H259837   3.689   4.197   5.246  1.1598 -1.7948  2.3839
12808TIP3   OH259838   1.110   2.285  11.789  0.2668  0.6113  0.2313
12808TIP3    H159839   1.058   2.242  11.722  0.0656 -1.2272  1.5359
12808TIP3    H259840   1.199   2.250  11.778  0.3621  0.7446  0.5519
12809TIP3   OH259841   1.231   3.438  15.596  0.0498 -1.1558 -0.0594
12809TIP3    H159842   1.325   3.422  15.585  0.5461  0.4939  1.4862
12809TIP3    H259843   1.224   3.482  15.681 -1.7840  1.6015 -1.5760
12810TIP3   OH259844   2.010   0.751  15.504 -0.1999 -0.1759 -0.1347
12810TIP3    H159845   2.050   0.665  15.488  0.2796 -0.5514  2.8031
12810TIP3    H259846   2.084   0.811  15.509 -0.4864  0.2917 -1.4442
12811TIP3   OH259847   6.089   4.223  11.780 -0.1748  0.3470  0.4442
12811TIP3    H159848   6.148   4.154  11.811 -2.8488 -1.6042  1.3625
12811TIP3    H259849   6.035   4.180  11.714 -1.5325  1.7186  0.6577
12812TIP3   OH259850   0.722   3.793   4.290 -0.5784 -0.4365 -0.0841
12812TIP3    H159851   0.683   3.709   4.266 -1.8814  0.4176 -1.1037
12812TIP3    H259852   0.801   3.771   4.338  0.7798 -2.2663 -3.0469
12813TIP3   OH259853   4.134   0.561   2.913 -0.1691 -0.4282  0.2778
12813TIP3    H159854   4.065   0.619   2.881  1.6867  0.7861 -1.7330
12813TIP3    H259855   4.142   0.582   3.006 -0.6736  1.3447 -0.0531
12814TIP3   OH259856   4.974   0.753  14.481  0.3303 -0.2162  0.3824
12814TIP3    H159857   4.893   0.799  14.503 -0.0012 -0.0976 -0.9996
12814TIP3    H259858   4.949   0.692  14.412  1.3640 -0.3482  0.1123
12815TIP3   OH259859   3.301   6.015  14.018 -0.3256 -0.1626  0.0009
12815TIP3    H159860   3.292   6.069  14.097  1.1553 -0.5215  0.4308
12815TIP3    H259861   3.217   6.025  13.973 -0.9590  0.5507  1.2977
12816TIP3   OH259862   5.632   6.166  13.102 -0.0841 -0.0786 -0.1185
12816TIP3    H159863   5.717   6.210  13.101 -0.1181 -0.0203 -1.3767
12816TIP3    H259864   5.606   6.163  13.010 -1.1234 -0.7227  0.1932
12817TIP3   OH259865   4.086   2.015  15.907 -0.0044 -0.4749  0.1667
12817TIP3    H159866   4.057   1.924  15.908 -0.0235 -0.4706  2.7392
12817TIP3    H259867   4.006   2.066  15.918  0.0349 -0.1344 -1.0459
12818TIP3   OH259868   4.499   1.920  15.178  0.0959  0.2946 -0.2657
12818TIP3    H159869   4.582   1.887  15.142  0.0474 -0.1941  0.0560
12818TIP3    H259870   4.522   2.002  15.221  0.0630  1.1215 -1.8267
12819TIP3   OH259871   2.605   4.623  13.128  0.0764  0.8377  1.0276
12819TIP3    H159872   2.674   4.586  13.183 -0.4050  1.0565  1.7890
12819TIP3    H259873   2.551   4.549  13.103 -0.5366  0.9386  2.0473
12820TIP3   OH259874   0.117   2.546   4.930 -0.0991  0.0517  0.6823
12820TIP3    H159875   0.107   2.458   4.894  0.8112  0.5455 -0.8373
12820TIP3    H259876   0.140   2.532   5.022  0.5911 -1.3117  0.3142
12821TIP3   OH259877   2.246   6.296   0.893 -0.1076 -0.6512  0.2959
12821TIP3    H159878   2.325   6.282   0.841 -0.1564 -2.2557  0.6323
12821TIP3    H259879   2.180   6.321   0.828  0.3826 -0.4502 -0.1315
12822TIP3   OH259880   2.548   3.384   1.778  0.2668  0.2517 -0.6754
12822TIP3    H159881   2.587   3.377   1.865 -1.7410  0.4508  0.2494
12822TIP3    H259882   2.455   3.369   1.791 -0.3304  2.0621 -2.5269
12823TIP3   OH259883   0.550   4.299   4.848  0.1367 -0.1101  0.4215
12823TIP3    H159884   0.464   4.314   4.889  0.6718 -0.8704  1.8588
12823TIP3    H259885   0.600   4.377   4.869  0.0318  0.0157  0.2057
12824TIP3   OH259886   6.013   1.747  16.574  0.5960  0.6945  0.1098
12824TIP3    H159887   5.977   1.812  16.634 -0.7008  0.4366 -0.3741
12824TIP3    H259888   5.968   1.665  16.596  2.2304 -0.0628  0.7278
12825TIP3   OH259889   1.402   0.951  11.226 -0.1555 -0.1293  0.6677
12825TIP3    H159890   1.427   1.043  11.241  1.0320 -0.4335  0.6059
12825TIP3    H259891   1.335   0.956  11.158 -1.4682  0.8312  1.9986
12826TIP3   OH259892   4.464   2.580  12.020 -0.0415  0.1855 -0.1768
12826TIP3    H159893   4.498   2.496  12.051  0.2576  0.7711  1.1261
12826TIP3    H259894   4.501   2.590  11.933  0.6731 -0.6121  0.0260
12827TIP3   OH259895   1.276   0.615  15.936  0.2090  0.4325 -0.2147
12827TIP3    H159896   1.283   0.692  15.992 -1.7784  0.3440  0.1949
12827TIP3    H259897   1.303   0.645  15.849 -4.8441  2.8465 -1.1191
12828TIP3   OH259898   2.544   2.767  11.976 -1.0283  0.2738  0.1233
12828TIP3    H159899   2.607   2.696  11.959  1.2275  2.4641 -1.0142
12828TIP3    H259900   2.480   2.759  11.906  1.1184  1.3817 -2.0497
12829TIP3   OH259901   0.413   2.172   4.075 -0.1773  0.1047 -0.0157
12829TIP3    H159902   0.426   2.078   4.088 -1.7511 -0.0038  0.8626
12829TIP3    H259903   0.326   2.179   4.035 -0.3658  1.2221  0.5699
12830TIP3   OH259904   5.444   6.711   4.145  0.3658 -0.0305  0.2198
12830TIP3    H159905   5.465   6.678   4.233 -2.6705  0.9558  1.3548
12830TIP3    H259906   5.422   6.803   4.158  0.6396  0.3463 -1.7337
12831TIP3   OH259907   6.031   4.820  15.784 -0.6036  0.5718 -0.1813
12831TIP3    H159908   5.976   4.832  15.861 -2.9569  0.1520 -1.7139
12831TIP3    H259909   5.973   4.779  15.720  1.4723  0.2938 -1.9434
12832TIP3   OH259910   2.224   0.254  16.204  0.8663  0.0996 -0.5160
12832TIP3    H159911   2.189   0.340  16.226  0.0192 -0.4492  0.3345
12832TIP3    H259912   2.147   0.204  16.174  1.1080 -0.7939  0.3515
12833TIP3   OH259913   3.211   4.260  12.292  0.2412  0.2679  0.4738
12833TIP3    H159914   3.183   4.196  12.227  2.2166  1.6085 -1.7729
12833TIP3    H259915   3.234   4.208  12.369 -0.9987 -1.4476 -0.2890
12834TIP3   OH259916   1.434   1.060  15.420 -0.1045  0.1776 -0.2456
12834TIP3    H159917   1.498   1.122  15.383 -1.2448  0.8067 -1.2274
12834TIP3    H259918   1.415   1.095  15.507 -0.7181  1.2198 -0.7814
12835TIP3   OH259919   1.005   2.197   4.204  0.1572 -0.1381  0.4168
12835TIP3    H159920   0.963   2.112   4.197  1.8180 -0.9196 -0.3028
12835TIP3    H259921   0.933   2.259   4.216 -1.1989 -1.3955 -1.1460
12836TIP3   OH259922   1.246   6.324   1.115  0.5615 -0.6758  0.5466
12836TIP3    H159923   1.177   6.346   1.177  0.6968 -1.2201  0.8990
12836TIP3    H259924   1.326   6.359   1.154  0.7421 -1.5708  0.9986
12837TIP3   OH259925   1.404   0.068   2.661 -0.0738  0.2950 -0.2048
12837TIP3    H159926   1.476   0.132   2.666  0.9412 -0.6932 -1.7061
12837TIP3    H259927   1.338   0.101   2.722  2.0414  0.7355  1.9199
12838TIP3   OH259928   5.855   6.145   0.687 -0.0587  0.4434  0.1610
12838TIP3    H159929   5.767   6.174   0.711 -0.1315  0.0558  0.3645
12838TIP3    H259930   5.841   6.078   0.620  0.0562 -0.0556  0.6347
12839TIP3   OH259931   5.134   6.738   5.725  0.2400  0.8371  0.2137
12839TIP3    H159932   5.063   6.695   5.677 -0.5866  0.1674  2.0076
12839TIP3    H259933   5.101   6.747   5.814  2.0110  1.4759  0.8278
12840TIP3   OH259934   3.625   2.516   5.512  0.4931  0.0431  0.5089
12840TIP3    H159935   3.677   2.574   5.568  1.1167  0.3629 -0.3875
12840TIP3    H259936   3.534   2.536   5.534  0.6960  1.7723 -0.2153
12841TIP3   OH259937   6.301   1.030  11.914  0.2518 -0.5774  0.7839
12841TIP3    H159938   6.318   0.938  11.895 -2.0695 -1.3949  2.4172
12841TIP3    H259939   6.205   1.037  11.914  0.3867  1.7053  1.3095
12842TIP3   OH259940   6.126   0.137   3.686 -0.0475 -0.3407 -0.4901
12842TIP3    H159941   6.187   0.097   3.748 -0.4451 -0.4329 -0.1573
12842TIP3    H259942   6.173   0.214   3.653 -0.4200  0.5911  1.0852
12843TIP3   OH259943   3.518   5.965   2.940  0.0585 -0.2430 -0.2016
12843TIP3    H159944   3.473   5.984   2.857 -0.8002  0.5873  0.4474
12843TIP3    H259945   3.605   6.005   2.929  0.6665 -1.8337 -1.4436
12844TIP3   OH259946   4.229   3.468  11.754 -0.6352  0.1633 -0.2662
12844TIP3    H159947   4.270   3.525  11.688 -1.3271 -0.1587 -0.9773
12844TIP3    H259948   4.242   3.379  11.720 -0.4923 -0.0475  0.3231
12845TIP3   OH259949   6.752   6.158   2.646 -0.6094  0.0667 -0.0066
12845TIP3    H159950   6.828   6.103   2.666 -3.1925 -3.4458  0.7284
12845TIP3    H259951   6.690   6.141   2.718 -1.8151  3.4528 -0.1376
12846TIP3   OH259952   3.162   2.158   4.273 -0.5686 -0.1921 -0.0369
12846TIP3    H159953   3.097   2.126   4.335 -2.6119 -0.6011 -2.3427
12846TIP3    H259954   3.227   2.088   4.267 -2.5942 -2.0072 -1.5392
12847TIP3   OH259955   4.050   6.308   1.587 -0.0887  0.2513 -0.0376
12847TIP3    H159956   4.081   6.396   1.565 -2.0667  1.1483  0.6555
12847TIP3    H259957   4.028   6.312   1.680  0.6175 -1.2266  0.2119
12848TIP3   OH259958   3.588   5.300  11.259 -0.5245 -0.4471 -0.1869
12848TIP3    H159959   3.546   5.367  11.204 -0.6767  0.7320  1.3267
12848TIP3    H259960   3.665   5.274  11.209 -1.1917 -0.1186 -1.4180
12849TIP3   OH259961   4.279   2.938   1.108  0.1274 -0.2181 -0.5512
12849TIP3    H159962   4.211   3.003   1.090  0.4233  1.1927  3.1746
12849TIP3    H259963   4.234   2.870   1.159  0.4134 -1.7650 -2.2976
12850TIP3   OH259964   1.823   2.608  12.490 -0.5070  0.2743 -0.5099
12850TIP3    H159965   1.919   2.606  12.498 -0.4516 -0.0589 -1.1759
12850TIP3    H259966   1.793   2.655  12.568  0.3403  2.4026 -1.4418
12851TIP3   OH259967   6.156   2.714   5.460 -0.1034  0.0740  0.1389
12851TIP3    H159968   6.123   2.804   5.457 -1.2542 -0.3577 -0.3057
12851TIP3    H259969   6.079   2.660   5.476  0.2431 -1.0107 -1.6452
12852TIP3   OH259970   2.871   1.688   2.892  0.2765  0.3197 -0.2142
12852TIP3    H159971   2.782   1.722   2.885  0.1770  0.5746  1.9960
12852TIP3    H259972   2.866   1.600   2.857 -1.4818 -0.6661  2.3439
12853TIP3   OH259973   1.440   6.319   3.516  0.3980  0.3483  0.0211
12853TIP3    H159974   1.493   6.294   3.440  1.7289  1.1689  0.6678
12853TIP3    H259975   1.423   6.412   3.503 -0.0337  0.3122  0.3289
12854TIP3   OH259976   1.200   1.100   2.763 -0.5254 -0.5894 -0.3152
12854TIP3    H159977   1.207   1.171   2.699  0.4392 -1.1926 -0.8775
12854TIP3    H259978   1.184   1.022   2.711  0.8413 -1.1769  0.1386
12855TIP3   OH259979   5.398   4.866   5.831  0.7661 -0.5858  0.1007
12855TIP3    H159980   5.355   4.936   5.882  0.6750 -0.2049 -0.4972
12855TIP3    H259981   5.327   4.806   5.809  0.9205 -1.1179  1.0088
12856TIP3   OH259982   5.264   0.781   5.425  0.1309  0.2528  0.3444
12856TIP3    H159983   5.303   0.850   5.478  0.3707 -0.3753  0.9873
12856TIP3    H259984   5.263   0.704   5.482  0.2523 -0.3868 -0.5071
12857TIP3   OH259985   3.102   5.084   2.693  0.1177 -0.0856  0.2734
12857TIP3    H159986   3.083   5.067   2.601 -0.5206  0.4992  0.2888
12857TIP3    H259987   3.195   5.067   2.703  0.3998  0.8328 -0.7219
12858TIP3   OH259988   1.474   1.715   0.284 -0.1574  0.1598  0.2279
12858TIP3    H159989   1.499   1.723   0.192 -0.5292  3.0596  0.3358
12858TIP3    H259990   1.553   1.682   0.327  0.2677 -0.4763 -1.0098
12859TIP3   OH259991   4.479   4.803   2.853  0.4325 -0.4234  0.2553
12859TIP3    H159992   4.427   4.862   2.909 -0.1965 -1.4842  0.7993
12859TIP3    H259993   4.493   4.853   2.773  0.4670  0.7280  0.9688
12860TIP3   OH259994   3.109   3.215   6.012  0.4659 -0.0977 -0.1136
12860TIP3    H159995   3.015   3.216   5.992  0.8466 -1.2897 -2.0610
12860TIP3    H259996   3.121   3.136   6.065  0.9652 -2.0258 -3.0397
12861TIP3   OH259997   6.029   5.279   1.967  0.4364  0.3440 -0.4657
12861TIP3    H159998   6.009   5.306   2.056 -1.7646 -3.1214  0.1763
12861TIP3    H259999   6.017   5.359   1.915 -0.1313  1.9511  2.0401
12862TIP3   OH260000   0.054   6.020   0.946 -0.3630 -0.0751 -0.2942
12862TIP3    H160001   0.099   6.027   0.861  0.7644 -0.7769  0.2378
12862TIP3    H260002   0.054   6.109   0.981 -2.1285  0.5017 -1.6753
12863TIP3   OH260003   2.915   5.118   5.099  0.2508  0.1296  0.0296
12863TIP3    H160004   3.008   5.125   5.121  0.3371  1.9632 -0.9117
12863TIP3    H260005   2.872   5.104   5.184  1.4619 -1.8331  0.3626
12864TIP3   OH260006   3.504   0.095   4.315  0.3987  0.0579  1.0055
12864TIP3    H160007   3.526   0.137   4.232  1.0862 -1.6090  0.3022
12864TIP3    H260008   3.431   0.037   4.293 -0.5057  0.8315  1.9414
12865TIP3   OH260009   4.625   0.896  13.393 -0.0427 -0.2483  0.0564
12865TIP3    H160010   4.600   0.902  13.485 -1.2235 -1.6313 -0.1453
12865TIP3    H260011   4.581   0.816  13.362  1.3980 -0.5115 -1.3692
12866TIP3   OH260012   3.004   1.200  14.056  0.1608  0.0779  0.7179
12866TIP3    H160013   2.913   1.227  14.060  0.0026 -0.4992  1.0334
12866TIP3    H260014   3.027   1.205  13.964 -0.8409 -1.9063  0.3320
12867TIP3   OH260015   6.591   1.649  11.995 -0.3034  0.4655  0.9159
12867TIP3    H160016   6.509   1.659  11.946  1.2368  1.0663 -1.6626
12867TIP3    H260017   6.599   1.730  12.044 -1.1839  0.4627  1.0809
12868TIP3   OH260018   2.386   0.166   3.456 -0.8197 -0.0254  0.3852
12868TIP3    H160019   2.458   0.159   3.518 -0.0658 -0.6354 -0.5429
12868TIP3    H260020   2.360   0.075   3.438 -0.9043  0.1322 -0.3250
12869TIP3   OH260021   3.894   3.014   0.140 -0.4666 -0.0912  0.5390
12869TIP3    H160022   3.972   3.070   0.145 -0.5669 -0.1386  4.2331
12869TIP3    H260023   3.821   3.074   0.155 -0.8703 -0.5904  0.5637
12870TIP3   OH260024   3.999   0.874  12.838 -0.4247 -0.5271  0.1539
12870TIP3    H160025   4.059   0.913  12.775  1.9859 -1.0294  2.0641
12870TIP3    H260026   4.017   0.780  12.832 -2.1080 -0.8353 -0.3103
12871TIP3   OH260027   1.803   4.889   5.571 -0.4979  0.6492  0.2147
12871TIP3    H160028   1.766   4.927   5.651 -2.0523  2.1239 -1.1502
12871TIP3    H260029   1.773   4.948   5.502  0.6333 -0.7447 -1.4807
12872TIP3   OH260030   1.150   4.152  15.129  0.5848 -0.3148  0.3750
12872TIP3    H160031   1.116   4.135  15.041 -0.0121 -1.8529  0.8794
12872TIP3    H260032   1.243   4.130  15.122  0.5202 -0.5293  0.1495
12873TIP3   OH260033   4.501   6.004   5.472  0.1211 -0.0045  0.0847
12873TIP3    H160034   4.474   5.913   5.462 -0.6823  0.0865  1.3352
12873TIP3    H260035   4.453   6.052   5.405  1.0281 -0.5802 -0.9967
12874TIP3   OH260036   5.102   5.272  15.009 -0.8908 -0.0571 -0.1095
12874TIP3    H160037   5.090   5.294  14.916  0.8222  0.2734 -0.2777
12874TIP3    H260038   5.092   5.355  15.055 -1.0795 -0.0981 -0.0804
12875TIP3   OH260039   2.672   6.672  12.570 -0.5981 -0.5116  0.0532
12875TIP3    H160040   2.598   6.632  12.615 -0.1601 -0.7424  0.5653
12875TIP3    H260041   2.643   6.761  12.551 -1.1034 -0.6816  0.0169
12876TIP3   OH260042   6.000   4.604  17.130  0.4124 -0.0922 -0.0253
12876TIP3    H160043   5.973   4.677  17.074 -0.0435  0.8722  1.4270
12876TIP3    H260044   5.956   4.528  17.093  0.6659  0.4208 -1.3877
12877TIP3   OH260045   1.422   3.073   6.665 -0.0196  0.1345  0.1672
12877TIP3    H160046   1.366   3.009   6.707  0.2979  0.9442  1.8562
12877TIP3    H260047   1.365   3.148   6.647  0.0913  0.2120  0.1324
12878TIP3   OH260048   0.170   4.752   5.753 -0.0262 -0.0386  0.0146
12878TIP3    H160049   0.231   4.815   5.715  0.8822 -0.1764  1.2332
12878TIP3    H260050   0.203   4.736   5.841 -1.6789 -0.3193  0.6012
12879TIP3   OH260051   0.721   4.349  15.648 -0.0197 -0.0318 -0.3482
12879TIP3    H160052   0.742   4.276  15.707  1.4203  0.6956  0.0752
12879TIP3    H260053   0.777   4.335  15.572 -0.1273  0.3315 -0.4936
12880TIP3   OH260054   1.758   2.657  15.242  0.0047 -0.0690 -0.1876
12880TIP3    H160055   1.819   2.584  15.256 -1.8384 -2.0231 -1.9687
12880TIP3    H260056   1.674   2.624  15.273 -1.1489  0.7600 -2.3379
12881TIP3   OH260057   1.770   4.573   0.489  0.0669 -0.1458 -0.2887
12881TIP3    H160058   1.834   4.557   0.419 -0.1112 -1.1498 -0.2379
12881TIP3    H260059   1.822   4.573   0.569  0.0196 -0.8861 -0.2547
12882TIP3   OH260060   5.841   3.756  14.641 -0.2035  0.6306  0.6568
12882TIP3    H160061   5.834   3.781  14.733 -1.6968  1.4255  0.3371
12882TIP3    H260062   5.752   3.763  14.607  0.4165  0.8453 -0.9764
12883TIP3   OH260063   5.457   5.732  13.455  0.6918  0.2322 -0.1123
12883TIP3    H160064   5.498   5.704  13.536  1.3959  2.7568  0.4480
12883TIP3    H260065   5.517   5.703  13.386  0.3327 -1.4809  0.2660
12884TIP3   OH260066   5.104   2.199   0.837  0.0462  0.0495  0.0178
12884TIP3    H160067   5.190   2.196   0.880  0.4659 -0.4572 -0.8451
12884TIP3    H260068   5.096   2.289   0.806  0.7973 -0.2070 -0.9528
12885TIP3   OH260069   0.869   4.689   2.783  0.1116  0.2011  0.1082
12885TIP3    H160070   0.963   4.674   2.788  0.2490  1.2152  0.7738
12885TIP3    H260071   0.838   4.676   2.873 -0.0344  1.9879  0.3461
12886TIP3   OH260072   0.768   4.021   1.290 -0.6672 -0.2172  0.0070
12886TIP3    H160073   0.725   3.998   1.207  0.0930 -1.1327 -0.1468
12886TIP3    H260074   0.727   3.963   1.355  1.6556 -2.4871 -0.4827
12887TIP3   OH260075   2.818   1.207  15.578  0.0185 -0.2002  0.2579
12887TIP3    H160076   2.815   1.142  15.648 -0.1094 -2.7710 -2.0732
12887TIP3    H260077   2.726   1.225  15.557  0.0579  0.4758  0.6332
12888TIP3   OH260078   0.747   6.693   3.497 -0.1118  0.5057  0.4522
12888TIP3    H160079   0.657   6.723   3.505 -0.6207 -0.5083 -1.1485
12888TIP3    H260080   0.800   6.766   3.528 -1.4189  1.8127 -0.3383
12889TIP3   OH260081   2.981   2.110   3.401 -0.2420 -0.3719  0.0039
12889TIP3    H160082   2.973   2.159   3.483 -1.6961 -0.0174 -0.3364
12889TIP3    H260083   3.051   2.154   3.353 -1.4586  1.3282 -0.2520
12890TIP3   OH260084   4.008   1.812  16.552  0.4713 -0.3928 -0.3297
12890TIP3    H160085   4.101   1.811  16.575  0.1843  1.1936  1.0583
12890TIP3    H260086   3.970   1.873  16.615 -1.2474  0.1782 -1.9142
12891TIP3   OH260087   1.978   5.425   1.066 -0.2657 -0.1254  0.1414
12891TIP3    H160088   2.000   5.383   0.983 -1.4191  1.3753 -0.9591
12891TIP3    H260089   2.002   5.360   1.133  1.6148 -0.9676 -1.2823
12892TIP3   OH260090   2.186   0.486  11.944 -0.1046  0.7971 -0.0820
12892TIP3    H160091   2.094   0.511  11.940  0.0703  1.3513 -0.7962
12892TIP3    H260092   2.231   0.566  11.973  0.0390  0.2430  1.2720
12893TIP3   OH260093   2.110   1.849  14.244  0.1965  0.5447 -0.1678
12893TIP3    H160094   2.202   1.837  14.218  0.6952  3.6160  0.0082
12893TIP3    H260095   2.071   1.899  14.173 -0.7039  1.3615  0.8902
12894TIP3   OH260096   4.633   4.257   5.911  0.2428 -0.4673 -0.2431
12894TIP3    H160097   4.667   4.288   5.995  0.3910  1.3320 -0.9552
12894TIP3    H260098   4.542   4.234   5.929  1.0187 -2.7317  1.0391
12895TIP3   OH260099   4.282   0.151  15.425  0.5235 -0.2350 -0.0556
12895TIP3    H160100   4.266   0.143  15.519  0.0994 -2.1715 -0.2781
12895TIP3    H260101   4.377   0.139  15.416  0.5480 -0.1707  0.1153
12896TIP3   OH260102   2.388   5.213  13.765 -0.1401 -0.0215  0.1399
12896TIP3    H160103   2.384   5.155  13.689  2.4297 -0.2360  0.1438
12896TIP3    H260104   2.456   5.175  13.821 -1.0486  0.8986  1.9115
12897TIP3   OH260105   0.548   4.384  11.065 -1.2187  0.3184  0.6679
12897TIP3    H160106   0.630   4.336  11.055  0.7043  3.5735 -0.0936
12897TIP3    H260107   0.480   4.318  11.052  1.2506 -1.7088 -2.9506
12898TIP3   OH260108   3.958   3.839   5.742  0.0466  0.2863 -0.2317
12898TIP3    H160109   3.958   3.760   5.687 -0.4224 -1.2746  1.9308
12898TIP3    H260110   4.048   3.870   5.739  0.4879 -0.9753 -0.2014
12899TIP3   OH260111   1.688   5.745  11.874 -0.2491 -0.2779 -0.1432
12899TIP3    H160112   1.747   5.698  11.933  0.3054 -1.1558 -1.3789
12899TIP3    H260113   1.601   5.735  11.914  0.2501 -0.0833  1.0011
12900TIP3   OH260114   4.406   3.703   3.190 -0.1651  0.2297 -0.4714
12900TIP3    H160115   4.496   3.733   3.202  0.2968 -1.1347 -0.4388
12900TIP3    H260116   4.413   3.629   3.130 -1.3780  0.7371 -1.2554
12901TIP3   OH260117   0.278   6.442   0.525  0.0659  0.4786  0.1550
12901TIP3    H160118   0.352   6.449   0.465 -0.6202 -0.6373 -0.8395
12901TIP3    H260119   0.220   6.515   0.500 -1.9650 -2.1008 -3.0371
12902TIP3   OH260120   1.478   6.577   5.403 -0.1004 -0.3028 -0.0966
12902TIP3    H160121   1.399   6.612   5.362 -0.5188  2.1520  2.6114
12902TIP3    H260122   1.550   6.624   5.360 -0.5220  2.0899  1.7032
12903TIP3   OH260123   2.891   0.625   3.005 -0.1981 -0.2078  0.1042
12903TIP3    H160124   2.927   0.701   3.050 -0.8783  0.2098 -0.0410
12903TIP3    H260125   2.849   0.573   3.074  0.8876 -0.8213  0.3097
12904TIP3   OH260126   2.688   5.795   0.839 -0.2595 -0.0171 -0.0378
12904TIP3    H160127   2.769   5.806   0.889 -0.5725  0.2705  0.4027
12904TIP3    H260128   2.618   5.806   0.903 -0.7163  2.2273 -0.8923
12905TIP3   OH260129   1.331   3.976  16.442 -0.5155 -0.3983 -0.2895
12905TIP3    H160130   1.392   3.904  16.459 -1.4013 -1.2667 -0.7430
12905TIP3    H260131   1.333   3.986  16.346 -0.9300 -0.2973 -0.2853
12906TIP3   OH260132   5.157   5.477  13.334 -0.1557 -0.2537  0.4067
12906TIP3    H160133   5.080   5.434  13.295 -0.3104 -0.3612  0.8277
12906TIP3    H260134   5.200   5.521  13.260 -0.1851 -0.8504  0.0266
12907TIP3   OH260135   1.556   2.283  12.650 -0.0235  0.2494  0.0272
12907TIP3    H160136   1.649   2.271  12.666 -0.0654  0.5227  0.4745
12907TIP3    H260137   1.547   2.377  12.633 -0.2389  0.2420  0.1031
12908TIP3   OH260138   2.895   1.943   5.310  0.4593  0.3325  0.2398
12908TIP3    H160139   2.896   2.036   5.287 -0.6342  0.6412  1.4219
12908TIP3    H260140   2.820   1.907   5.263  2.4114 -0.5583 -2.3756
12909TIP3   OH260141   6.517   2.512  15.713  0.3285  0.1961  0.0283
12909TIP3    H160142   6.571   2.474  15.645 -2.0974  0.6384 -2.2403
12909TIP3    H260143   6.576   2.568  15.763  2.0651  0.1722 -1.9553
12910TIP3   OH260144   1.258   6.084  13.909  0.3161  0.1914 -0.2359
12910TIP3    H160145   1.246   6.114  13.999  1.8750 -1.6615  0.6300
12910TIP3    H260146   1.194   6.014  13.899  0.3440  0.2014 -0.4769
12911TIP3   OH260147   1.023   1.814  13.396 -0.5267  0.1996 -0.0148
12911TIP3    H160148   0.965   1.827  13.321 -0.0876  1.5392 -0.1301
12911TIP3    H260149   1.027   1.719  13.407 -1.0599  0.0155 -1.3244
12912TIP3   OH260150   6.239   2.958   0.931  0.0286  0.3242  0.3978
12912TIP3    H160151   6.253   2.936   0.838 -1.0132 -1.9961  0.7493
12912TIP3    H260152   6.151   2.994   0.935  0.4476  1.3603  0.3427
12913TIP3   OH260153   1.038   3.938   1.333  0.1488 -0.3482  0.1730
12913TIP3    H160154   1.010   3.869   1.393  1.8497 -2.3850 -1.2754
12913TIP3    H260155   0.956   3.976   1.301 -0.8078 -0.7952  1.9976
12914TIP3   OH260156   0.664   2.611  13.492 -0.5055 -0.2556 -0.0640
12914TIP3    H160157   0.607   2.639  13.420 -2.1320 -0.6690  1.0478
12914TIP3    H260158   0.635   2.663  13.567 -0.2330 -1.3594  0.8075
12915TIP3   OH260159   3.056   5.105   5.818 -0.1269 -0.1704  0.0450
12915TIP3    H160160   3.027   5.190   5.783 -0.4346 -0.3101 -0.0499
12915TIP3    H260161   3.016   5.100   5.905 -3.7135 -2.0436 -1.5663
12916TIP3   OH260162   2.797   2.293  13.954 -0.2181  0.6674 -0.8862
12916TIP3    H160163   2.864   2.361  13.950  1.2168 -0.5892  1.0368
12916TIP3    H260164   2.839   2.215  13.919 -0.3978 -0.3316  1.0453
12917TIP3   OH260165   1.906   3.134   0.188  0.7659  1.0024 -0.2289
12917TIP3    H160166   1.962   3.087   0.126  0.9477  1.2076 -0.2212
12917TIP3    H260167   1.835   3.073   0.207  2.5124 -0.4106  1.9812
12918TIP3   OH260168   5.516   5.149  14.504 -0.1237 -0.7378 -0.1309
12918TIP3    H160169   5.549   5.110  14.423  0.2700  1.3412 -1.0047
12918TIP3    H260170   5.537   5.242  14.496  2.0270 -0.8148  3.3825
12919TIP3   OH260171   2.025   0.464  11.648  0.0319  0.0576 -0.0462
12919TIP3    H160172   2.107   0.419  11.627 -0.2315 -1.7508  2.4987
12919TIP3    H260173   2.053   0.551  11.676  1.3082 -1.1193  2.5189
12920TIP3   OH260174   1.340   3.890  16.178  0.0763  0.0250 -0.0940
12920TIP3    H160175   1.282   3.866  16.105  2.1430  0.1932 -1.8338
12920TIP3    H260176   1.397   3.814  16.188 -0.6365 -0.2758  1.8461
12921TIP3   OH260177   0.526   1.013   5.373 -0.0688 -0.4222 -0.2637
12921TIP3    H160178   0.468   1.067   5.320  0.2886 -1.0507 -1.3095
12921TIP3    H260179   0.494   0.924   5.360  0.5192 -0.6673 -0.0545
12922TIP3   OH260180   0.922   6.061  16.138 -0.3631 -0.1303  0.3619
12922TIP3    H160181   0.976   5.993  16.096 -0.5968 -0.0272 -0.1071
12922TIP3    H260182   0.855   6.012  16.185  0.2053 -0.2635  1.0389
12923TIP3   OH260183   5.646   4.072   2.007 -0.5686 -0.4038 -0.3401
12923TIP3    H160184   5.596   4.072   2.089  0.0825 -2.0114  0.0762
12923TIP3    H260185   5.584   4.041   1.941 -0.0546 -2.8627  0.2596
12924TIP3   OH260186   4.285   3.845   1.891 -0.0233 -0.2527  0.3928
12924TIP3    H160187   4.300   3.914   1.955  1.8700 -1.6456  1.4884
12924TIP3    H260188   4.192   3.853   1.870  0.2408  2.8882  0.1516
12925TIP3   OH260189   5.726   2.524   2.783 -0.1761  0.3535 -0.4983
12925TIP3    H160190   5.676   2.470   2.845 -3.5151  2.1316 -1.5134
12925TIP3    H260191   5.678   2.607   2.780  2.5875  1.9582 -1.9813
12926TIP3   OH260192   6.239   0.526  14.702 -0.5652  0.6337 -0.1980
12926TIP3    H160193   6.307   0.578  14.745 -0.3489 -0.2160  0.5003
12926TIP3    H260194   6.211   0.463  14.769  0.3272 -1.2367 -1.5433
12927TIP3   OH260195   0.988   4.061   1.804 -0.5026 -0.5447  0.4164
12927TIP3    H160196   0.964   3.970   1.787 -0.7864 -0.3910 -0.0025
12927TIP3    H260197   0.935   4.085   1.881  1.5585 -1.5601  2.2305
12928TIP3   OH260198   1.793   3.047   2.144  0.7507  0.2846 -0.0385
12928TIP3    H160199   1.877   3.002   2.138  0.8895  0.3660  1.2494
12928TIP3    H260200   1.749   3.006   2.218 -0.7801 -0.4534 -1.3130
12929TIP3   OH260201   2.784   2.283  14.247  0.4281  0.3059  0.2944
12929TIP3    H160202   2.691   2.262  14.247  1.0031 -2.4222  1.2447
12929TIP3    H260203   2.804   2.305  14.156 -0.8799 -0.2828 -0.1385
12930TIP3   OH260204   6.223   1.110   4.160 -0.0311 -0.3444  0.5566
12930TIP3    H160205   6.304   1.061   4.174 -0.0971 -0.2111  1.4067
12930TIP3    H260206   6.253   1.201   4.147  0.0866 -0.5774 -0.9487
12931TIP3   OH260207   0.436   1.203  11.217  0.4565 -0.3846  0.6137
12931TIP3    H160208   0.414   1.283  11.265  1.8608  0.9845 -0.9559
12931TIP3    H260209   0.364   1.142  11.237 -1.8027  2.0017  0.1220
12932TIP3   OH260210   3.030   0.808   1.861  0.0055 -0.9333  0.0823
12932TIP3    H160211   3.076   0.724   1.863  1.4005 -0.2052 -0.2512
12932TIP3    H260212   2.942   0.786   1.831  0.6986 -2.1384 -1.1619
12933TIP3   OH260213   2.019   0.339  11.141  0.0342 -0.3086  0.0287
12933TIP3    H160214   1.927   0.340  11.165 -0.7409 -1.2809 -2.6904
12933TIP3    H260215   2.035   0.249  11.111  1.4161  0.3000 -1.1413
12934TIP3   OH260216   3.072   1.578   1.293  0.4256  0.5773 -0.5327
12934TIP3    H160217   3.061   1.531   1.211  2.2177 -0.0732 -0.4126
12934TIP3    H260218   2.983   1.588   1.327 -0.3212  0.7881 -2.5065
12935TIP3   OH260219   3.866   1.322   5.007  0.4767  0.2586 -0.7064
12935TIP3    H160220   3.811   1.364   4.940 -1.3138  1.4003  1.3939
12935TIP3    H260221   3.855   1.377   5.085  1.7045 -1.5884  0.8303
12936TIP3   OH260222   3.999   6.378  13.828  0.3316  0.8746 -0.3551
12936TIP3    H160223   4.023   6.333  13.746 -1.9627 -0.7214 -0.1914
12936TIP3    H260224   3.926   6.327  13.863 -1.1599  3.7072  0.8059
12937TIP3   OH260225   3.096   3.304   4.239  0.1131  0.6807  0.4951
12937TIP3    H160226   3.043   3.310   4.319  0.4139  1.6262  0.6244
12937TIP3    H260227   3.048   3.355   4.174  0.0606  0.2185  0.1612
12938TIP3   OH260228   4.462   3.649  13.972  0.0724  0.0271  0.6663
12938TIP3    H160229   4.381   3.680  14.011 -0.0611  0.5759 -0.0597
12938TIP3    H260230   4.512   3.729  13.954  0.4905 -0.2750  0.4875
12939TIP3   OH260231   1.070   0.569   5.600 -0.3994 -0.6520  0.1280
12939TIP3    H160232   1.066   0.658   5.566 -1.5528 -1.1819 -1.1147
12939TIP3    H260233   1.160   0.561   5.632 -0.3020  0.9788  0.3427
12940TIP3   OH260234   1.287   1.920  13.128  0.1944  0.0042 -0.3913
12940TIP3    H160235   1.380   1.903  13.112 -0.0933 -1.2727 -0.7285
12940TIP3    H260236   1.254   1.840  13.168 -0.8862  0.2494 -0.7718
12941TIP3   OH260237   2.513   2.669  15.947 -0.7910  0.1013  0.5313
12941TIP3    H160238   2.530   2.603  15.880 -0.6813  0.3811  0.2803
12941TIP3    H260239   2.500   2.619  16.027 -0.0959 -0.1925  0.4659
12942TIP3   OH260240   5.865   1.919  12.553 -0.2507  0.4329  0.0987
12942TIP3    H160241   5.948   1.959  12.577  0.5704 -0.9184 -0.4163
12942TIP3    H260242   5.808   1.933  12.628  0.6201  0.8873  0.6710
12943TIP3   OH260243   3.106   2.843  14.764 -0.1091  0.0030  0.3013
12943TIP3    H160244   3.075   2.805  14.682  2.1573  0.0397 -0.6235
12943TIP3    H260245   3.027   2.875  14.807 -1.4032 -0.5181 -1.6034
12944TIP3   OH260246   4.621   6.400   0.366 -0.2209  0.1408  0.3748
12944TIP3    H160247   4.580   6.441   0.290  0.1469  0.5331  0.3902
12944TIP3    H260248   4.682   6.336   0.329  0.8676  1.2014  0.3216
12945TIP3   OH260249   6.320   1.878  16.257  0.1344  0.4465 -0.0356
12945TIP3    H160250   6.285   1.901  16.344 -1.3357 -1.5425 -0.0586
12945TIP3    H260251   6.411   1.856  16.274  0.2688  1.5268  0.7482
12946TIP3   OH260252   2.965   1.871   2.110 -0.5107  0.1783  0.2435
12946TIP3    H160253   3.058   1.856   2.095 -0.7669 -1.7128  0.3077
12946TIP3    H260254   2.961   1.938   2.178  0.8431 -0.9589  1.4837
12947TIP3   OH260255   1.387   1.042   3.591  0.0837  0.0258 -0.2528
12947TIP3    H160256   1.455   1.077   3.533 -0.7347  1.6864 -0.2452
12947TIP3    H260257   1.314   1.020   3.532 -0.6742  1.5311  0.0855
12948TIP3   OH260258   4.735   4.414   0.867 -0.7029  0.2601  0.0726
12948TIP3    H160259   4.767   4.331   0.904  0.1902  1.1721  1.3725
12948TIP3    H260260   4.670   4.387   0.802 -1.5556 -1.4140  1.5704
12949TIP3   OH260261   5.549   5.081   4.733  0.1658 -0.0889  0.0117
12949TIP3    H160262   5.576   5.165   4.696  1.5539 -0.9432 -0.9242
12949TIP3    H260263   5.456   5.074   4.709  0.4763  0.4021 -1.3831
12950TIP3   OH260264   3.716   1.092   5.005 -0.2036 -0.0993 -0.1845
12950TIP3    H160265   3.742   1.056   4.920 -0.4091  0.5300 -0.5229
12950TIP3    H260266   3.768   1.172   5.014 -0.2855 -0.0919  0.2153
12951TIP3   OH260267   1.620   0.818  16.842 -0.1792 -0.5493  0.4597
12951TIP3    H160268   1.666   0.800  16.760  0.6749  1.4773  0.4810
12951TIP3    H260269   1.688   0.814  16.909 -0.9301 -2.5496  1.1461
12952TIP3   OH260270   5.518   4.132  13.721  0.1753 -0.9549  0.1863
12952TIP3    H160271   5.599   4.157  13.765  0.0363 -0.4671  0.1605
12952TIP3    H260272   5.517   4.183  13.640 -0.3881 -0.6087  0.4093
12953TIP3   OH260273   4.720   2.314  16.552 -0.0508 -0.8357  0.1952
12953TIP3    H160274   4.700   2.222  16.533 -0.9447 -0.7674  0.8084
12953TIP3    H260275   4.640   2.361  16.529 -1.0019 -0.6834  3.6402
12954TIP3   OH260276   2.820   5.594   1.164 -0.0060  0.0467 -0.2345
12954TIP3    H160277   2.865   5.585   1.248 -0.1154  0.8189 -0.0929
12954TIP3    H260278   2.750   5.657   1.181 -0.9601 -0.9271 -0.5273
12955TIP3   OH260279   1.807   1.086  13.546 -0.1645 -0.3108 -0.4646
12955TIP3    H160280   1.733   1.093  13.607  0.2182 -0.9613  0.0740
12955TIP3    H260281   1.766   1.086  13.459 -0.6876  0.9361 -0.2252
12956TIP3   OH260282   1.373   4.301  10.674  0.4622 -0.7451  0.2397
12956TIP3    H160283   1.305   4.363  10.699 -0.0456 -0.3358 -2.0917
12956TIP3    H260284   1.448   4.356  10.651  1.3539 -1.1647  2.0795
12957TIP3   OH260285   1.150   5.167  10.808 -0.4188  0.0604  0.0364
12957TIP3    H160286   1.228   5.121  10.841  0.3916  0.2112 -1.6333
12957TIP3    H260287   1.175   5.259  10.809 -1.6267  0.4112  2.2478
12958TIP3   OH260288   6.697   0.515  16.950 -0.6628  0.5653  0.5195
12958TIP3    H160289   6.777   0.471  16.923 -0.3023 -0.0407  2.4786
12958TIP3    H260290   6.697   0.598  16.902 -0.5850 -0.8730 -2.0560
12959TIP3   OH260291   0.623   4.553  16.669  0.3192  0.4009 -0.1610
12959TIP3    H160292   0.715   4.575  16.652  0.5896 -0.3290  0.3184
12959TIP3    H260293   0.610   4.576  16.761  0.4492 -0.8665  0.1913
12960TIP3   OH260294   3.983   6.165  15.278 -0.5841 -0.2541  0.2162
12960TIP3    H160295   3.989   6.200  15.189  0.4370 -0.2834  0.2598
12960TIP3    H260296   3.939   6.234  15.328  0.7985  0.7161  0.1503
12961TIP3   OH260297   4.216   2.486   0.996  0.5351 -0.1742 -0.0110
12961TIP3    H160298   4.268   2.551   0.948  0.7792  0.4944  1.1340
12961TIP3    H260299   4.279   2.417   1.018  0.5793 -0.1368 -0.0195
12962TIP3   OH260300   1.929   4.313  15.698  0.5581 -0.1431  0.1486
12962TIP3    H160301   2.006   4.301  15.643 -0.9467  0.1896 -2.0956
12962TIP3    H260302   1.935   4.403  15.730  0.1652  0.4995 -1.5340
12963TIP3   OH260303   0.119   3.257   1.971 -0.6063  0.1072  0.1841
12963TIP3    H160304   0.029   3.230   1.952 -1.5194  1.5678  2.2119
12963TIP3    H260305   0.121   3.351   1.949 -0.0758  0.4708  1.7541
12964TIP3   OH260306   3.943   6.394  10.831  0.5404 -0.4796  0.6040
12964TIP3    H160307   3.868   6.450  10.847 -0.0889 -1.0610 -0.2438
12964TIP3    H260308   4.016   6.455  10.819  0.1999  0.0894  1.3750
12965TIP3   OH260309   0.283   2.651  16.734  0.2635 -0.1251 -0.3665
12965TIP3    H160310   0.346   2.581  16.752  0.1634  0.1999  1.3105
12965TIP3    H260311   0.200   2.607  16.722  0.6207 -0.4754 -1.6035
12966TIP3   OH260312   4.874   0.911  13.221  0.3108  0.2961  0.0465
12966TIP3    H160313   4.856   0.892  13.129  0.2550 -0.6262  0.2397
12966TIP3    H260314   4.790   0.900  13.265  0.5099 -0.1178  0.3345
12967TIP3   OH260315   4.521   2.734  11.335 -0.0212 -0.0988 -0.1154
12967TIP3    H160316   4.574   2.791  11.278 -0.5472  1.0096  0.4947
12967TIP3    H260317   4.488   2.666  11.276 -1.9427  1.9732 -1.5285
12968TIP3   OH260318   1.044   2.442  16.486 -0.1678  0.0598  0.0040
12968TIP3    H160319   1.130   2.483  16.499  0.5897 -1.0657 -1.2692
12968TIP3    H260320   1.065   2.354  16.454 -1.7739 -0.9814  1.7363
12969TIP3   OH260321   3.887   1.318  15.552  0.3142 -0.1331 -0.3784
12969TIP3    H160322   3.821   1.249  15.557  1.7002 -1.4237  0.7826
12969TIP3    H260323   3.970   1.270  15.543  1.2786  1.4008  0.2231
12970TIP3   OH260324   6.286   2.654  15.108 -0.1968  0.2763  0.0670
12970TIP3    H160325   6.276   2.632  15.200 -1.3714  2.0640  0.4011
12970TIP3    H260326   6.346   2.730  15.108 -0.1595  0.2492 -0.6408
12971TIP3   OH260327   0.996   6.382   4.384 -0.3631 -0.5116  0.6748
12971TIP3    H160328   0.920   6.408   4.332  0.4186 -1.4181 -0.9537
12971TIP3    H260329   0.981   6.423   4.469 -2.7125 -0.7249  0.4136
12972TIP3   OH260330   6.312   2.417   1.959 -0.1759  0.5022 -0.4217
12972TIP3    H160331   6.335   2.505   1.989  0.4642 -0.5253  2.1761
12972TIP3    H260332   6.391   2.366   1.971 -1.0016 -0.7962 -0.4445
12973TIP3   OH260333   4.387   0.158  17.085  0.8628  0.8739  0.0348
12973TIP3    H160334   4.352   0.244  17.108 -1.8418 -0.5783  1.7378
12973TIP3    H260335   4.315   0.114  17.040  1.4315 -1.2366  1.1069
12974TIP3   OH260336   1.367   6.128   1.803  0.7955  0.0567 -0.0335
12974TIP3    H160337   1.398   6.157   1.717 -0.2441  1.3762  0.0144
12974TIP3    H260338   1.288   6.078   1.784  1.0175 -0.3401  0.0921
12975TIP3   OH260339   1.220   3.176  12.025  0.3935 -0.2055 -0.3900
12975TIP3    H160340   1.277   3.249  11.999  2.1810 -0.5202  2.3906
12975TIP3    H260341   1.147   3.179  11.963  1.9365  2.0771 -2.1893
12976TIP3   OH260342   0.775   0.835   0.320 -0.3216  0.4402 -0.0825
12976TIP3    H160343   0.866   0.854   0.298 -0.5385  1.9476  0.3205
12976TIP3    H260344   0.777   0.745   0.353  0.9867  0.3941 -0.2610
12977TIP3   OH260345   3.850   2.690  10.735 -0.9296 -0.0931  0.2593
12977TIP3    H160346   3.927   2.706  10.790 -0.4266 -1.8607  0.1106
12977TIP3    H260347   3.822   2.777  10.706  0.5194  0.6287  0.9965
12978TIP3   OH260348   1.405   4.790  16.228 -0.5143 -0.1063  0.1113
12978TIP3    H160349   1.459   4.715  16.204  1.3099  0.6550  1.6174
12978TIP3    H260350   1.380   4.829  16.144  1.3063 -0.5002 -0.6558
12979TIP3   OH260351   3.979   3.820   2.850  0.2869  0.2706 -0.2003
12979TIP3    H160352   3.945   3.885   2.788 -0.2775 -1.0370 -1.3143
12979TIP3    H260353   4.029   3.759   2.795 -2.6177 -2.5578  0.0905
12980TIP3   OH260354   4.457   4.466  16.424 -0.5851 -0.8830 -0.0595
12980TIP3    H160355   4.417   4.394  16.375 -2.1864 -0.4951  0.6484
12980TIP3    H260356   4.390   4.534  16.427  0.5067  0.1993  0.2655
12981TIP3   OH260357   6.701   1.175  13.198  0.8433  0.1246  0.3915
12981TIP3    H160358   6.627   1.143  13.249 -0.1112  1.1514 -0.3227
12981TIP3    H260359   6.778   1.136  13.240 -0.0646 -0.6456  1.3716
12982TIP3   OH260360   1.478   1.853   1.296  0.3787 -0.0743  0.0852
12982TIP3    H160361   1.389   1.882   1.276  0.3253 -0.5784 -0.4350
12982TIP3    H260362   1.477   1.832   1.389  0.5232  1.9614  0.5614
12983TIP3   OH260363   5.637   4.051  13.286  0.0330  0.2145  0.4380
12983TIP3    H160364   5.591   4.127  13.324 -2.6276 -1.3787  0.5118
12983TIP3    H260365   5.607   4.048  13.195  0.2846 -0.6322  0.3810
12984TIP3   OH260366   0.123   4.721   3.837  0.0562 -0.3844  0.3040
12984TIP3    H160367   0.042   4.704   3.789 -1.8936 -0.9986  3.6900
12984TIP3    H260368   0.141   4.814   3.822 -1.8454  0.0004  0.3821
12985TIP3   OH260369   3.253   4.809   3.934 -0.2024  0.2143 -0.2989
12985TIP3    H160370   3.263   4.715   3.917 -3.1586  0.1873 -2.3384
12985TIP3    H260371   3.318   4.850   3.878 -0.7656 -0.5438 -1.5412
12986TIP3   OH260372   2.708   6.470  12.064 -0.5162 -0.3180 -0.7634
12986TIP3    H160373   2.789   6.421  12.053 -1.0523 -1.1833 -0.8806
12986TIP3    H260374   2.668   6.471  11.977 -0.1828  0.9042 -0.9078
12987TIP3   OH260375   0.132   6.150  17.005 -0.2783 -0.9905  0.3028
12987TIP3    H160376   0.155   6.119  16.918  0.0252 -2.8615  1.0417
12987TIP3    H260377   0.205   6.125  17.061 -0.0471  0.9869  0.9556
12988TIP3   OH260378   1.676   4.091  13.583  0.3639 -0.1415 -0.6188
12988TIP3    H160379   1.737   4.140  13.638  0.0473 -1.0471  0.5526
12988TIP3    H260380   1.724   4.076  13.502  1.7918 -0.9937  0.3416
12989TIP3   OH260381   3.190   0.609   0.458  0.3533 -0.1760  0.3519
12989TIP3    H160382   3.168   0.679   0.520  0.9751  0.7306 -0.4384
12989TIP3    H260383   3.285   0.604   0.459  0.3419 -0.5787 -0.0667
12990TIP3   OH260384   4.316   2.655   3.919 -0.1245 -0.3032 -0.0810
12990TIP3    H160385   4.344   2.707   3.994  0.8235  0.2489 -0.7987
12990TIP3    H260386   4.283   2.574   3.957 -3.0960  1.4280  1.1463
12991TIP3   OH260387   6.673   2.557   5.177 -0.0182  0.4326  0.1760
12991TIP3    H160388   6.765   2.540   5.197  0.1194  1.3042  0.3278
12991TIP3    H260389   6.668   2.652   5.167 -0.9070  0.3945  0.1911
12992TIP3   OH260390   3.633   2.229   2.011  0.0582  0.3708 -0.0775
12992TIP3    H160391   3.547   2.237   2.052  0.7978  0.4359  1.5074
12992TIP3    H260392   3.626   2.152   1.954 -1.0693  0.4417 -0.0365
12993TIP3   OH260393   4.518   3.036  15.457  0.6505  0.6263 -0.3461
12993TIP3    H160394   4.481   3.094  15.525  1.1429  1.1363 -0.5118
12993TIP3    H260395   4.602   3.008  15.492 -0.1250 -0.9923  0.2779
12994TIP3   OH260396   0.358   4.796   1.914 -0.0777 -0.4346 -0.5446
12994TIP3    H160397   0.340   4.777   1.822 -0.7318 -0.9259 -0.3219
12994TIP3    H260398   0.338   4.889   1.923 -2.0894 -0.8535 -0.4239
12995TIP3   OH260399   2.955   6.040   4.255 -0.0902  1.1716  0.2507
12995TIP3    H160400   2.970   6.041   4.349 -2.9974 -0.5499  0.7816
12995TIP3    H260401   2.892   6.111   4.239 -0.3332  0.8523 -0.2466
12996TIP3   OH260402   6.636   6.638  16.859  0.7310 -0.4258 -0.2109
12996TIP3    H160403   6.725   6.673  16.873 -0.0884  1.0680  1.5053
12996TIP3    H260404   6.597   6.636  16.946 -2.0310  2.0147 -1.3043
12997TIP3   OH260405   2.690   5.689  15.073 -0.4110  0.5316  0.0499
12997TIP3    H160406   2.762   5.738  15.114 -0.5701 -0.1123  1.1108
12997TIP3    H260407   2.731   5.646  14.998 -0.4486  2.9764 -1.4299
12998TIP3   OH260408   2.536   3.979   1.352 -0.1646 -0.1699  0.0722
12998TIP3    H160409   2.546   3.973   1.447 -0.2657 -1.8450 -0.0110
12998TIP3    H260410   2.537   3.888   1.322 -0.1997  0.3444 -1.5253
12999TIP3   OH260411   3.460   5.525   4.029 -0.5184  0.1455 -0.4163
12999TIP3    H160412   3.482   5.484   4.112  0.8994  1.5472 -0.0865
12999TIP3    H260413   3.372   5.562   4.042 -0.0531  0.8746  0.6367
13000TIP3   OH260414   3.203   6.129   3.559  0.4143  0.0980  0.1029
13000TIP3    H160415   3.183   6.104   3.469  1.8983  0.4803 -0.3482
13000TIP3    H260416   3.146   6.204   3.576 -0.2120 -0.2683 -0.3421
13001TIP3   OH260417   2.138   4.448  14.503  0.1681 -0.3929  0.4192
13001TIP3    H160418   2.117   4.403  14.585 -0.5032 -0.1524  0.3813
13001TIP3    H260419   2.084   4.527  14.505  0.7832  0.0385  0.1385
13002TIP3   OH260420   5.967   1.402   1.939 -0.4145 -0.4700 -0.6498
13002TIP3    H160421   5.889   1.455   1.951  0.3887  0.5115  0.3500
13002TIP3    H260422   5.943   1.316   1.975 -0.2653  0.5126  1.8870
13003TIP3   OH260423   2.952   1.269   1.196  0.0792 -0.8845 -0.2707
13003TIP3    H160424   2.888   1.204   1.168 -0.0918 -1.7751  2.0236
13003TIP3    H260425   3.011   1.220   1.254  2.4835  0.0621 -1.8436
13004TIP3   OH260426   6.120   2.465  16.895  0.0699  0.1082 -0.3810
13004TIP3    H160427   6.188   2.398  16.885  0.0296  0.1649 -1.0355
13004TIP3    H260428   6.057   2.426  16.956  0.9848  0.2947  0.7013
13005TIP3   OH260429   3.820   3.497  15.850  0.5671  0.4471 -0.6192
13005TIP3    H160430   3.826   3.490  15.945  0.8934  0.1181 -0.6602
13005TIP3    H260431   3.727   3.488  15.830  0.8066 -2.5936 -0.5644
13006TIP3   OH260432   5.941   0.759  16.983 -0.3248 -0.1912  0.0617
13006TIP3    H160433   5.949   0.830  17.047  0.0187 -1.2395  1.1921
13006TIP3    H260434   6.011   0.776  16.920 -1.5361  1.6446 -0.8704
13007TIP3   OH260435   6.572   2.471  12.722 -0.2545 -0.0750 -1.0022
13007TIP3    H160436   6.500   2.519  12.681 -1.1816  0.8565  1.5637
13007TIP3    H260437   6.529   2.409  12.781  0.9884  0.6980  0.7866
13008TIP3   OH260438   3.707   0.500  16.409 -0.0803 -0.3068  0.2730
13008TIP3    H160439   3.678   0.591  16.401 -1.2116 -0.6102  0.6998
13008TIP3    H260440   3.652   0.452  16.346  0.8653 -0.6220 -0.3212
13009TIP3   OH260441   2.782   0.184  13.342  0.3834  0.0121  0.4630
13009TIP3    H160442   2.748   0.172  13.253 -0.0702  0.4583  0.5739
13009TIP3    H260443   2.876   0.200  13.329  0.6026 -1.4135  0.1764
13010TIP3   OH260444   5.497   3.393  16.327  0.1199  0.2653  0.1721
13010TIP3    H160445   5.574   3.369  16.277 -0.6956  1.3148 -1.6596
13010TIP3    H260446   5.528   3.458  16.391  1.0198 -0.4622  0.4713
13011TIP3   OH260447   1.503   5.388   0.559 -0.3712 -0.2737  0.4548
13011TIP3    H160448   1.495   5.435   0.642 -0.3779 -0.7760  0.7407
13011TIP3    H260449   1.418   5.346   0.547 -0.7479  0.7054 -0.3649
13012TIP3   OH260450   1.901   4.896   5.084 -0.1312  0.2921 -0.1462
13012TIP3    H160451   1.808   4.917   5.078 -0.2960 -0.3358  0.1485
13012TIP3    H260452   1.945   4.966   5.035 -0.7581  0.5626 -0.3285
13013TIP3   OH260453   0.280   0.603  14.316  0.2265  0.1962 -0.7025
13013TIP3    H160454   0.188   0.581  14.323  0.4127 -0.3279  0.1743
13013TIP3    H260455   0.288   0.649  14.233 -0.7625 -0.0592 -0.9366
13014TIP3   OH260456   0.391   2.219  12.739  0.5063  0.0860 -0.7579
13014TIP3    H160457   0.323   2.228  12.805  0.2537  0.3174 -1.0473
13014TIP3    H260458   0.355   2.262  12.661  0.6369 -0.5539 -1.1713
13015TIP3   OH260459   6.330   5.973  16.409 -0.3363 -0.5845  0.5553
13015TIP3    H160460   6.317   6.027  16.331 -1.3911 -2.4088 -0.5646
13015TIP3    H260461   6.423   5.949  16.407  0.2244  1.4455  1.2592
13016TIP3   OH260462   2.643   6.001   0.257 -0.0199 -0.3471  0.1248
13016TIP3    H160463   2.621   6.087   0.293  2.0305  1.3196 -2.4590
13016TIP3    H260464   2.559   5.965   0.227 -0.7896  1.0924  0.4963
13017TIP3   OH260465   0.885   1.960   3.002  0.2241 -0.4450  0.5658
13017TIP3    H160466   0.827   1.883   3.007  0.7252 -0.9296 -0.7467
13017TIP3    H260467   0.844   2.015   2.935 -0.0414  0.3714  1.3842
13018TIP3   OH260468   6.416   2.825   4.872  0.3378  0.5807  0.4033
13018TIP3    H160469   6.452   2.784   4.794 -2.6027 -3.5670  1.0328
13018TIP3    H260470   6.332   2.861   4.844  0.3916  1.2769  1.1186
13019TIP3   OH260471   1.794   0.223  11.456  0.4209  0.3237  0.2956
13019TIP3    H160472   1.877   0.175  11.456  0.6593  0.7355  0.3006
13019TIP3    H260473   1.804   0.286  11.385 -0.0474  0.1017  0.0306
13020TIP3   OH260474   3.783   4.908  15.550 -0.4231  0.3386  0.4152
13020TIP3    H160475   3.711   4.946  15.500  0.1294  1.6122  0.5845
13020TIP3    H260476   3.829   4.851  15.488 -3.1474 -2.6389  0.9708
13021TIP3   OH260477   5.578   6.243  13.925 -0.3575 -1.0167 -0.6509
13021TIP3    H160478   5.630   6.261  14.003  0.1216  0.0436 -1.2081
13021TIP3    H260479   5.632   6.185  13.872  0.9458  1.3043 -1.9413
13022TIP3   OH260480   2.408   0.774  11.409  0.5912 -0.1710 -0.2620
13022TIP3    H160481   2.408   0.699  11.350 -0.5437  1.4926 -2.4861
13022TIP3    H260482   2.382   0.739  11.494  2.0919 -2.6072 -0.7668
13023TIP3   OH260483   2.359   5.196   1.809 -0.0864  0.2453  0.4822
13023TIP3    H160484   2.329   5.115   1.851  3.4821 -0.9114  0.9501
13023TIP3    H260485   2.297   5.210   1.737 -2.3619 -1.3788  2.0343
13024TIP3   OH260486   1.467   0.027  14.333 -0.0976  0.6572 -0.1345
13024TIP3    H160487   1.483  -0.021  14.251 -0.7885 -0.0910  0.1549
13024TIP3    H260488   1.554   0.051  14.364  0.6244 -4.0362  1.8398
13025TIP3   OH260489   1.361   6.292   0.015  0.3606 -0.1292  0.6024
13025TIP3    H160490   1.348   6.337   0.098  0.5689  1.6434 -0.2988
13025TIP3    H260491   1.426   6.224   0.034  0.4458  0.2941  1.8607
13026TIP3   OH260492   3.915   0.952   6.030  0.3479 -0.4599  0.4317
13026TIP3    H160493   3.969   0.975   6.106 -1.2672  0.8087  1.2262
13026TIP3    H260494   3.832   0.923   6.068  0.4467 -2.4141 -0.7792
13027TIP3   OH260495   0.922   3.657  11.854 -0.7789 -0.0211  0.2741
13027TIP3    H160496   0.915   3.732  11.913 -0.7764  1.5467 -1.6770
13027TIP3    H260497   0.881   3.686  11.773 -0.9630 -2.2177 -0.4454
13028TIP3   OH260498   0.380   1.336   0.893  0.0676 -0.7516  0.6252
13028TIP3    H160499   0.458   1.356   0.841 -0.8227 -0.9920 -0.8186
13028TIP3    H260500   0.307   1.349   0.833 -1.0377 -0.2397  2.0566
13029TIP3   OH260501   4.321   4.936  14.761 -0.4083  0.3507 -0.2274
13029TIP3    H160502   4.305   4.980  14.845  5.8426  0.6184  1.0701
13029TIP3    H260503   4.338   5.008  14.700 -0.3296  0.0226 -0.5882
13030TIP3   OH260504   0.329   2.893   1.671 -0.0498 -0.4958  0.5453
13030TIP3    H160505   0.398   2.947   1.710 -1.4149  0.5722  1.5501
13030TIP3    H260506   0.375   2.834   1.611  1.8319 -0.5177  1.9736
13031TIP3   OH260507   6.245   5.504   1.242 -0.2645  0.4372 -0.2194
13031TIP3    H160508   6.242   5.413   1.273  0.1844 -0.4240 -2.5562
13031TIP3    H260509   6.314   5.545   1.294  0.4582 -0.9339 -0.0663
13032TIP3   OH260510   3.248   3.082   4.676  0.1479  0.1714  0.5200
13032TIP3    H160511   3.282   3.022   4.610  1.0941  1.2846 -0.0157
13032TIP3    H260512   3.189   3.139   4.628 -0.6922 -0.2698  1.0173
13033TIP3   OH260513   4.850   1.024  15.573  0.9463 -0.5063  0.4890
13033TIP3    H160514   4.781   1.003  15.637 -0.8398  2.8802 -0.1745
13033TIP3    H260515   4.810   1.006  15.488  1.1030  0.8303  0.1267
13034TIP3   OH260516   3.980   5.938   2.306 -0.2778  0.0878 -0.0227
13034TIP3    H160517   3.928   5.879   2.360 -2.3725  1.3502 -0.6140
13034TIP3    H260518   3.955   5.916   2.216 -1.2612  1.9961 -0.2393
13035TIP3   OH260519   3.670   4.784   0.977  0.4837  0.2640  0.2405
13035TIP3    H160520   3.738   4.800   0.911 -0.7310 -1.8737 -1.5605
13035TIP3    H260521   3.590   4.816   0.937 -0.3527 -1.5342  0.4394
13036TIP3   OH260522   2.508   5.644   1.479  0.2048  1.0073 -0.6740
13036TIP3    H160523   2.548   5.672   1.397 -2.1651  0.8373 -1.9297
13036TIP3    H260524   2.578   5.598   1.525  0.8583 -1.4126 -3.8609
13037TIP3   OH260525   2.206   2.388   0.728 -0.3126  0.5804  0.2729
13037TIP3    H160526   2.214   2.293   0.716 -0.1528  0.8523 -1.9833
13037TIP3    H260527   2.126   2.399   0.779 -0.6503 -0.7528  0.0457
13038TIP3   OH260528   4.691   5.651  11.779  0.8213  0.1921 -0.5817
13038TIP3    H160529   4.621   5.638  11.714  0.5837  0.4743 -0.3843
13038TIP3    H260530   4.752   5.579  11.762  0.4937 -0.0485 -0.7690
13039TIP3   OH260531   0.331   0.395   3.074  0.4216 -0.4582  0.8263
13039TIP3    H160532   0.416   0.360   3.100  0.8509  0.6547  0.9250
13039TIP3    H260533   0.342   0.490   3.075  0.2258 -0.3476 -2.5897
13040TIP3   OH260534   2.540   3.170  17.198  0.5417 -0.4452  0.5658
13040TIP3    H160535   2.494   3.206  17.123  1.4096 -0.1559  0.1627
13040TIP3    H260536   2.496   3.086  17.215 -0.0701 -0.2124  0.1455
13041TIP3   OH260537   5.241   5.897   2.955  0.2262  0.7442  0.1433
13041TIP3    H160538   5.276   5.982   2.979 -0.1613  0.5093  1.6163
13041TIP3    H260539   5.156   5.893   2.998  0.2815 -0.4200  0.1711
13042TIP3   OH260540   6.291   3.613   6.597  0.4339 -0.2729  0.4031
13042TIP3    H160541   6.346   3.547   6.639  1.1270  0.4082  0.5588
13042TIP3    H260542   6.201   3.582   6.613  0.7741 -1.6403 -0.2864
13043TIP3   OH260543   4.946   1.139   3.699  0.0443  0.5981 -0.3258
13043TIP3    H160544   5.004   1.185   3.759  0.0202  0.2997 -0.0758
13043TIP3    H260545   4.987   1.149   3.613  0.2757  0.6989 -0.2023
13044TIP3   OH260546   3.847   2.550   5.315  0.0540  0.1046 -0.0250
13044TIP3    H160547   3.856   2.617   5.383 -0.7977  1.0875 -0.8578
13044TIP3    H260548   3.776   2.493   5.347 -1.0932  1.1935 -0.5769
13045TIP3   OH260549   0.123   1.494  16.246 -0.0079 -0.0995 -0.3859
13045TIP3    H160550   0.076   1.544  16.179  0.9222 -0.8599 -1.6381
13045TIP3    H260551   0.206   1.470  16.203  0.7800 -0.2481  1.1830
13046TIP3   OH260552   1.620   3.159  11.788 -0.3313  0.2471  0.3789
13046TIP3    H160553   1.533   3.131  11.758  0.0125  0.9092 -1.2863
13046TIP3    H260554   1.673   3.079  11.783 -0.5293  0.1247  0.1614
13047TIP3   OH260555   6.122   1.504   1.722  0.9113 -0.2721  0.2369
13047TIP3    H160556   6.206   1.522   1.765  0.9345 -1.3672  0.6576
13047TIP3    H260557   6.072   1.455   1.787 -0.0535  0.3491 -0.0239
13048TIP3   OH260558   5.576   4.655  14.078 -0.0579  0.2761  0.1594
13048TIP3    H160559   5.606   4.596  14.009 -1.5993 -1.6198  1.0378
13048TIP3    H260560   5.512   4.711  14.034 -0.7881 -0.6988 -0.0469
13049TIP3   OH260561   2.027   2.471   4.209  0.3212 -0.2302 -0.4515
13049TIP3    H160562   2.049   2.379   4.192 -0.4582 -0.4847 -0.0746
13049TIP3    H260563   2.096   2.502   4.268  0.0026 -0.8684  0.2617
13050TIP3   OH260564   1.620   0.171   1.311  0.5398  0.3854  0.4979
13050TIP3    H160565   1.694   0.158   1.371  0.6451 -0.2961  0.2311
13050TIP3    H260566   1.656   0.223   1.240  0.7188  0.2087  0.4580
13051TIP3   OH260567   3.754   3.929  16.399 -0.1242 -0.4432  0.2080
13051TIP3    H160568   3.726   3.973  16.318  2.9206  2.0768  0.4189
13051TIP3    H260569   3.808   3.856  16.369 -1.8904 -1.6699 -0.0595
13052TIP3   OH260570   4.163   2.763  10.697 -0.2284 -0.7263 -0.3215
13052TIP3    H160571   4.248   2.806  10.701 -0.1994 -0.8105 -0.0510
13052TIP3    H260572   4.112   2.805  10.767 -0.0693 -1.4280  0.2181
13053TIP3   OH260573   3.391   1.680   6.110  0.0745  0.0381 -0.0581
13053TIP3    H160574   3.336   1.759   6.110 -0.2811 -0.2036  0.8371
13053TIP3    H260575   3.329   1.608   6.117  0.4722 -0.2614  0.3956
13054TIP3   OH260576   0.292   6.577  12.981 -0.1298  0.4306  0.4499
13054TIP3    H160577   0.241   6.658  12.969 -0.6399 -0.0709 -0.8555
13054TIP3    H260578   0.286   6.533  12.896  0.1553 -0.9814  1.1604
13055TIP3   OH260579   2.428   5.832  12.219  0.0344 -0.1611 -0.5461
13055TIP3    H160580   2.407   5.885  12.296 -1.3127 -0.1344 -0.9194
13055TIP3    H260581   2.504   5.874  12.180 -0.5932  1.0761 -0.4406
13056TIP3   OH260582   1.772   1.623  15.540  0.2053  0.9050 -0.4372
13056TIP3    H160583   1.766   1.694  15.476 -0.3118  2.2535  1.0608
13056TIP3    H260584   1.684   1.614  15.575  0.4219  0.0084 -0.1029
13057TIP3   OH260585   1.464   1.844  16.720  0.3406 -0.1661 -0.6993
13057TIP3    H160586   1.493   1.786  16.649 -1.4197 -0.7911 -0.9484
13057TIP3    H260587   1.368   1.835  16.720  0.1611  1.5103  0.3286
13058TIP3   OH260588   6.284   2.719  11.293  0.0240 -0.1215 -0.2006
13058TIP3    H160589   6.288   2.809  11.262 -1.1998  0.1412  0.3587
13058TIP3    H260590   6.220   2.676  11.236 -0.5965 -0.2091  0.5565
13059TIP3   OH260591   1.227   6.322  12.349  0.0986 -0.9250  1.0446
13059TIP3    H160592   1.139   6.328  12.311  0.1319 -0.1480  1.0973
13059TIP3    H260593   1.276   6.392  12.307  0.3672 -0.5941  1.8967
13060TIP3   OH260594   3.326   5.275  12.144  0.2316  0.1128 -0.5017
13060TIP3    H160595   3.349   5.336  12.213 -0.8844 -0.3496  0.2894
13060TIP3    H260596   3.335   5.325  12.063 -1.6830  1.6428  0.2080
13061TIP3   OH260597   6.188   3.125   2.167  0.0027 -0.3727  0.1516
13061TIP3    H160598   6.190   3.210   2.211  0.9509 -0.0232 -0.5388
13061TIP3    H260599   6.111   3.129   2.110  0.2383  0.1638 -0.1377
13062TIP3   OH260600   0.258   3.021   4.065  0.4857  0.4371 -0.3010
13062TIP3    H160601   0.187   3.000   4.004 -0.3658 -0.0895  0.8580
13062TIP3    H260602   0.334   2.974   4.030  0.3560  1.2231 -1.7027
13063TIP3   OH260603   1.029   1.811  11.931 -0.3558  0.1894 -0.5742
13063TIP3    H160604   1.103   1.855  11.973 -0.7849  1.0846 -0.7199
13063TIP3    H260605   1.067   1.764  11.858  0.2384 -0.4035  0.1128
13064TIP3   OH260606   1.524   5.480   4.100  0.1078 -0.3553 -0.6510
13064TIP3    H160607   1.610   5.469   4.059  1.3228 -2.5751  2.3482
13064TIP3    H260608   1.474   5.403   4.072  0.4621 -1.1319  0.7958
13065TIP3   OH260609   4.510   4.346   2.640  0.1877  0.6497  0.6577
13065TIP3    H160610   4.434   4.289   2.629  0.9411  0.0438 -1.8327
13065TIP3    H260611   4.504   4.409   2.569 -0.2108  3.2652  2.9362
13066TIP3   OH260612   0.165   5.225   5.300  0.0222 -0.0563 -0.3332
13066TIP3    H160613   0.240   5.218   5.359 -0.1840 -0.1098 -0.0736
13066TIP3    H260614   0.134   5.315   5.310  0.1489  0.0115 -0.5579
13067TIP3   OH260615   4.129   5.553  10.783 -0.7379 -0.4124 -0.4380
13067TIP3    H160616   4.160   5.572  10.872 -0.9055 -1.9128 -0.0518
13067TIP3    H260617   4.039   5.525  10.795 -0.4162 -1.6799 -0.9687
13068TIP3   OH260618   3.626   4.066  16.878 -0.2952 -0.0132 -0.1992
13068TIP3    H160619   3.559   4.131  16.898  0.0949  0.9291 -1.8625
13068TIP3    H260620   3.597   4.025  16.797 -0.0986 -1.3415  0.3834
13069TIP3   OH260621   5.221   3.301   4.721 -0.5795 -0.1279 -0.2045
13069TIP3    H160622   5.163   3.367   4.759 -0.3494 -0.1009  0.0986
13069TIP3    H260623   5.248   3.247   4.796  0.5735  0.4579 -0.2007
13070TIP3   OH260624   4.498   3.213  14.786  0.0982  0.0736  0.2409
13070TIP3    H160625   4.482   3.306  14.769  3.1551  0.3778 -1.3741
13070TIP3    H260626   4.569   3.212  14.850  0.1529 -1.1589  0.1709
13071TIP3   OH260627   1.862   5.461   1.858 -0.4068 -0.1782  0.5205
13071TIP3    H160628   1.852   5.529   1.925  0.9358  0.0156  0.5403
13071TIP3    H260629   1.863   5.509   1.775 -3.2853 -0.5167  0.2346
13072TIP3   OH260630   4.469   4.042  16.994  0.0074  0.5238 -0.0280
13072TIP3    H160631   4.467   4.109  17.061 -2.4345  0.9534 -0.4724
13072TIP3    H260632   4.376   4.026  16.973  0.6473 -0.9088 -1.9655
13073TIP3   OH260633   4.446   5.561  14.557  0.1157 -0.2660 -0.2302
13073TIP3    H160634   4.531   5.544  14.596  0.5749 -0.8624 -1.4768
13073TIP3    H260635   4.384   5.513  14.613  0.7759 -1.1728 -0.2662
13074TIP3   OH260636   6.343   3.795  13.723  0.3376  0.1739  0.2346
13074TIP3    H160637   6.267   3.853  13.721  0.6555  0.5818 -0.0783
13074TIP3    H260638   6.415   3.848  13.688  0.6938 -0.3148  0.2198
13075TIP3   OH260639   6.586   5.138  16.606 -0.5285 -0.0537  0.1618
13075TIP3    H160640   6.533   5.216  16.625 -1.7046 -0.4236 -1.4307
13075TIP3    H260641   6.524   5.077  16.566  0.7931 -1.0837 -0.3490
13076TIP3   OH260642   0.699   5.167  10.329 -0.6219  0.3753  0.3734
13076TIP3    H160643   0.730   5.241  10.277  2.8202 -0.1240  1.6083
13076TIP3    H260644   0.661   5.207  10.407 -1.8114  0.9352 -0.4689
13077TIP3   OH260645   3.364   1.182   3.285  0.0981  0.1526  0.3068
13077TIP3    H160646   3.300   1.251   3.302  1.3270  1.5301 -0.5829
13077TIP3    H260647   3.320   1.123   3.224 -0.4115  0.9758 -0.1333
13078TIP3   OH260648   0.140   1.121   5.975  0.0110 -0.2178 -0.2259
13078TIP3    H160649   0.081   1.133   6.049  0.9781  0.4345  0.4442
13078TIP3    H260650   0.170   1.210   5.953  2.7109 -0.7785  1.0599
13079TIP3   OH260651   6.507   3.921   6.001  0.1332  0.4736 -0.1735
13079TIP3    H160652   6.414   3.941   6.001  0.7309  3.6451 -0.9672
13079TIP3    H260653   6.536   3.939   6.090 -0.0640 -0.8581  0.1657
13080TIP3   OH260654   5.664   5.399   2.990 -0.0648  0.3275 -0.7870
13080TIP3    H160655   5.576   5.395   2.953 -0.4571  2.0326 -0.0956
13080TIP3    H260656   5.719   5.427   2.917 -0.2940  0.3745 -0.9415
13081TIP3   OH260657   6.081   6.768   2.167  0.2687  0.4769 -0.2019
13081TIP3    H160658   6.157   6.761   2.110  0.4739 -1.3774  0.2677
13081TIP3    H260659   6.008   6.735   2.113  0.3886 -0.8761  0.4556
13082TIP3   OH260660   5.438   6.169   3.526 -0.9240 -0.2552 -0.3754
13082TIP3    H160661   5.440   6.075   3.542 -2.4281 -0.2756 -0.2189
13082TIP3    H260662   5.530   6.196   3.527 -0.4111 -1.8774 -1.3916
13083TIP3   OH260663   5.639   0.309   1.088  0.7103  0.0556 -0.2830
13083TIP3    H160664   5.728   0.284   1.112  1.1590  0.2883 -1.6993
13083TIP3    H260665   5.619   0.257   1.011 -0.8985 -1.0158  0.8352
13084TIP3   OH260666   6.525   3.489   6.944  0.0320  0.0873 -0.2703
13084TIP3    H160667   6.566   3.459   7.025  0.7052 -0.9508 -0.9844
13084TIP3    H260668   6.583   3.558   6.912  1.2078 -1.3439 -1.2532
13085TIP3   OH260669   1.546   6.236   0.383 -0.1482 -1.1176  0.3237
13085TIP3    H160670   1.455   6.223   0.355 -0.7724  1.4591  0.9989
13085TIP3    H260671   1.558   6.176   0.457 -1.4525 -1.1526  0.5143
13086TIP3   OH260672   4.469   4.233   5.657  0.3764  0.6339 -0.4824
13086TIP3    H160673   4.500   4.150   5.622 -0.6254  0.3856 -0.8240
13086TIP3    H260674   4.528   4.254   5.729 -0.5070 -1.3521  0.8689
13087TIP3   OH260675   1.515   1.519   5.287 -0.1644 -0.9961 -0.3071
13087TIP3    H160676   1.429   1.506   5.327  0.0793 -0.2238  0.4659
13087TIP3    H260677   1.533   1.613   5.298  1.3885 -1.4059  0.7611
13088TIP3   OH260678   3.637   2.876   4.344  0.0152 -0.1765 -0.0063
13088TIP3    H160679   3.656   2.782   4.344  1.0755  0.0151  2.2636
13088TIP3    H260680   3.686   2.910   4.269  0.1726 -1.3205 -0.4350
13089TIP3   OH260681   2.506   0.248  14.345  0.0782 -0.7528 -0.1239
13089TIP3    H160682   2.437   0.269  14.282 -0.5037  0.9425  1.0233
13089TIP3    H260683   2.584   0.232  14.292  0.3497  3.5516 -1.2072
13090TIP3   OH260684   2.625   4.681  16.475  0.5315  0.0171  0.0664
13090TIP3    H160685   2.612   4.711  16.385 -0.1686 -0.2348  0.0815
13090TIP3    H260686   2.720   4.669  16.483  0.5878 -0.0334 -0.6622
13091TIP3   OH260687   5.424   2.405  12.760  0.0983 -0.3181 -0.0544
13091TIP3    H160688   5.446   2.391  12.668  3.0887  1.0735  0.3923
13091TIP3    H260689   5.332   2.429  12.759  0.4619  1.1660 -2.8601
13092TIP3   OH260690   5.093   1.558   0.863 -0.1647 -0.7038 -0.1750
13092TIP3    H160691   5.084   1.559   0.959 -1.6055  0.2264 -0.3020
13092TIP3    H260692   5.123   1.470   0.842  2.5663 -0.1951  1.3312
13093TIP3   OH260693   3.816   4.748   6.161  0.0933 -0.1269  0.3710
13093TIP3    H160694   3.799   4.825   6.108 -0.3274 -0.4638  0.0124
13093TIP3    H260695   3.768   4.763   6.242  0.2601  0.1201  0.4259
13094TIP3   OH260696   4.049   1.858  10.528 -0.2605  0.2556  0.4568
13094TIP3    H160697   4.139   1.887  10.545  0.5566 -1.3667 -0.8569
13094TIP3    H260698   4.000   1.938  10.512  1.0409  1.1375  0.7989
13095TIP3   OH260699   3.981   3.152  15.342  0.0754 -0.1547 -0.3329
13095TIP3    H160700   3.948   3.231  15.386 -1.3317 -0.7938 -0.2020
13095TIP3    H260701   3.927   3.145  15.264  1.2950 -0.0907 -1.1874
13096TIP3   OH260702   4.268   4.515   1.820  0.6415 -0.1281  0.4799
13096TIP3    H160703   4.305   4.562   1.746  0.4587  0.5285  0.7967
13096TIP3    H260704   4.182   4.486   1.789 -0.2949  1.8773  1.0581
13097TIP3   OH260705   0.140   3.479   0.479 -0.1859  0.3850 -0.0183
13097TIP3    H160706   0.163   3.553   0.535 -0.8028  0.8388 -0.3672
13097TIP3    H260707   0.187   3.496   0.397 -0.7673  0.6704 -0.2916
13098TIP3   OH260708   6.647   0.095  11.196  0.0080 -0.1011 -0.0126
13098TIP3    H160709   6.620   0.113  11.106  0.0378 -1.4444 -0.3138
13098TIP3    H260710   6.594   0.153  11.249  2.2447  3.0188 -1.0711
13099TIP3   OH260711   3.454   2.519  11.169  0.0438  0.2911  0.1783
13099TIP3    H160712   3.498   2.435  11.181 -2.3188 -0.8747  1.0930
13099TIP3    H260713   3.423   2.542  11.256 -0.8251  1.2430 -0.3702
13100TIP3   OH260714   0.453   1.762   4.834 -0.0990  0.3276 -0.8525
13100TIP3    H160715   0.374   1.807   4.864  0.0669 -0.4313  0.7654
13100TIP3    H260716   0.432   1.669   4.844  1.0674  0.1292 -0.2138
13101TIP3   OH260717   5.451   6.256   0.530  0.1938 -0.1015 -0.0668
13101TIP3    H160718   5.457   6.234   0.437 -0.2066  0.5447 -0.2441
13101TIP3    H260719   5.407   6.180   0.569 -0.7335  0.1452 -0.6045
13102TIP3   OH260720   1.987   0.904  13.353  0.3952  0.0221  0.0282
13102TIP3    H160721   2.066   0.955  13.335  0.2538 -0.0167 -0.7344
13102TIP3    H260722   1.938   0.957  13.416  0.2170  0.8796 -0.8121
13103TIP3   OH260723   0.697   1.434  11.484 -0.4031 -0.0784 -0.6043
13103TIP3    H160724   0.698   1.517  11.532 -0.2170 -0.1848 -0.4238
13103TIP3    H260725   0.760   1.447  11.413 -0.8999  0.1837 -0.9973
13104TIP3   OH260726   2.454   5.227   3.680  0.6277 -0.5505  0.3015
13104TIP3    H160727   2.517   5.212   3.610  1.1628  0.8676  0.4605
13104TIP3    H260728   2.404   5.303   3.651  0.2127 -0.5489  1.0106
13105TIP3   OH260729   5.054   4.558  12.046 -0.5637 -0.7949  0.0304
13105TIP3    H160730   5.075   4.649  12.023  1.3530 -0.8429  1.4511
13105TIP3    H260731   4.959   4.553  12.037 -0.4307  0.5742 -2.7171
13106TIP3   OH260732   6.712   3.212   5.881  0.8582 -0.1266  0.0871
13106TIP3    H160733   6.780   3.191   5.818 -0.6833 -0.4907 -1.5032
13106TIP3    H260734   6.669   3.128   5.899  0.4130  0.2017  0.5872
13107TIP3   OH260735   0.596   4.468   1.996  0.2168 -0.2587  0.0918
13107TIP3    H160736   0.679   4.420   1.990  1.4775  1.6566  1.6958
13107TIP3    H260737   0.608   4.543   1.937  0.0920  0.6368  1.1781
13108TIP3   OH260738   3.020   6.344   3.605  0.8254 -0.2693 -0.0110
13108TIP3    H160739   2.937   6.304   3.580  0.8067 -0.6101  0.5830
13108TIP3    H260740   3.003   6.382   3.691  0.4329  2.2417 -1.1315
13109TIP3   OH260741   0.003   0.960  15.676 -0.0212 -0.4326  0.1109
13109TIP3    H160742   0.098   0.950  15.682 -0.1692 -0.6906  2.4442
13109TIP3    H260743  -0.031   0.870  15.669 -0.0487 -0.2853 -2.0237
13110TIP3   OH260744   6.687   0.679  13.660 -0.2449 -0.0598 -0.6102
13110TIP3    H160745   6.673   0.772  13.676 -0.1181 -0.4028  1.6580
13110TIP3    H260746   6.598   0.644  13.647 -0.4299  0.0871  0.2402
13111TIP3   OH260747   1.786   6.088   6.167  0.1182 -0.2705 -0.4775
13111TIP3    H160748   1.791   6.014   6.227  0.7674 -0.2577 -0.5111
13111TIP3    H260749   1.727   6.150   6.211  2.0082  0.5328  1.0512
13112TIP3   OH260750   4.194   3.494   3.438  0.6267 -1.0499 -0.4945
13112TIP3    H160751   4.194   3.589   3.448 -2.9803 -0.8172 -1.9982
13112TIP3    H260752   4.250   3.478   3.362 -0.6215  0.0892 -1.6779
13113TIP3   OH260753   6.213   1.691  16.080 -0.0401 -0.3888 -0.5474
13113TIP3    H160754   6.249   1.763  16.132  0.9636 -1.8873  0.9055
13113TIP3    H260755   6.160   1.734  16.013 -0.4640  1.6474  1.0300
13114TIP3   OH260756   0.558   2.076   3.092 -0.3687 -0.0663 -0.0235
13114TIP3    H160757   0.637   2.026   3.071  0.4904  1.4686 -0.6165
13114TIP3    H260758   0.497   2.054   3.022 -0.0821 -0.4486 -0.1571
13115TIP3   OH260759   3.927   4.184   6.220 -0.2253 -0.2152 -0.4736
13115TIP3    H160760   3.847   4.171   6.270  0.0090  0.7558  0.1791
13115TIP3    H260761   3.902   4.246   6.151  0.7043  2.7166  1.7154
13116TIP3   OH260762   1.043   3.452  15.400 -0.2996  0.0061  0.0903
13116TIP3    H160763   1.112   3.468  15.464 -0.5861  3.1233 -0.3164
13116TIP3    H260764   0.962   3.466  15.448 -0.5378  1.1562 -0.6373
13117TIP3   OH260765   2.723   0.616  15.435  0.1662 -0.3712  0.1851
13117TIP3    H160766   2.749   0.595  15.524  1.6956  0.2636 -0.1092
13117TIP3    H260767   2.723   0.531  15.390 -1.4380 -0.8236  0.9589
13118TIP3   OH260768   3.120   3.148  11.846 -0.1543  0.1014  0.1637
13118TIP3    H160769   3.094   3.063  11.882  2.4249 -0.5023  0.6742
13118TIP3    H260770   3.167   3.192  11.917  0.5109  1.0186 -0.8116
13119TIP3   OH260771   5.713   1.301  14.318 -0.5425 -0.3398  0.0987
13119TIP3    H160772   5.783   1.300  14.384  0.1768 -1.1030 -0.6670
13119TIP3    H260773   5.757   1.279  14.236 -1.5962 -0.2974 -0.4829
13120TIP3   OH260774   5.453   4.576  10.856 -0.1247  0.1784 -0.5596
13120TIP3    H160775   5.369   4.530  10.858  0.0971 -0.2134  0.5328
13120TIP3    H260776   5.515   4.512  10.822  0.1115 -0.2370  0.6047
13121TIP3   OH260777   3.517   5.407  15.217  0.1119  0.2436 -0.2511
13121TIP3    H160778   3.428   5.394  15.185  0.4995  0.9259 -1.6948
13121TIP3    H260779   3.510   5.482  15.277 -0.6168 -0.9989  1.2321
13122TIP3   OH260780   3.594   6.018  14.313  0.0396 -0.6107  0.7643
13122TIP3    H160781   3.660   5.976  14.257  0.0677 -0.5562  0.7541
13122TIP3    H260782   3.528   6.050  14.252  1.6619  2.3386  0.4056
13123TIP3   OH260783   5.417   5.209   0.275  0.4238  0.4403  0.2927
13123TIP3    H160784   5.422   5.203   0.371 -1.3699 -1.3962  0.3190
13123TIP3    H260785   5.492   5.263   0.250  0.6888  1.2846  2.7618
13124TIP3   OH260786   4.357   0.334   3.787 -0.7550 -0.6250 -0.0609
13124TIP3    H160787   4.278   0.367   3.830 -0.8969 -0.5599 -0.3728
13124TIP3    H260788   4.383   0.258   3.840 -1.5008 -1.1496 -0.4425
13125TIP3   OH260789   4.234   2.025  10.776 -0.1533  0.2308 -0.0014
13125TIP3    H160790   4.324   1.994  10.766  0.5244  1.9154  0.6137
13125TIP3    H260791   4.180   1.946  10.769  1.3428 -0.7431 -0.7644
13126TIP3   OH260792   0.377   3.485   1.324 -0.0376  0.4797  0.3467
13126TIP3    H160793   0.329   3.407   1.351  1.1646  0.0103  1.1671
13126TIP3    H260794   0.409   3.465   1.236 -0.6948  0.5019  0.0998
13127TIP3   OH260795   5.978   5.246   4.668 -0.0830 -0.1054 -0.3032
13127TIP3    H160796   5.951   5.273   4.756  1.9108  1.9917 -0.3078
13127TIP3    H260797   6.062   5.201   4.682  1.1637  1.8739 -1.3152
13128TIP3   OH260798   4.395   4.814   4.888 -0.2712 -0.0617  1.0954
13128TIP3    H160799   4.329   4.879   4.864  1.3270  1.2373  0.0962
13128TIP3    H260800   4.384   4.803   4.983 -1.2534  0.8772  1.1047
13129TIP3   OH260801   5.944   3.143  12.206 -0.2229 -0.3887  0.3816
13129TIP3    H160802   5.962   3.226  12.250 -2.2793 -0.2379  0.9731
13129TIP3    H260803   5.851   3.147  12.184  0.4077 -1.0354 -2.7623
13130TIP3   OH260804   5.540   5.499   4.606  0.8892  0.1511  0.1329
13130TIP3    H160805   5.586   5.569   4.560 -1.6553  0.9073 -1.3493
13130TIP3    H260806   5.582   5.418   4.575  1.9190  0.8705 -0.3630
13131TIP3   OH260807   6.211   4.191   3.959  0.3315 -0.6000  0.3333
13131TIP3    H160808   6.207   4.106   3.917  1.7147 -0.6238  0.2112
13131TIP3    H260809   6.194   4.254   3.889 -0.8538 -0.7715  0.4578
13132TIP3   OH260810   6.305   4.121  16.609 -0.3424 -0.2133  0.3177
13132TIP3    H160811   6.301   4.068  16.688  0.3422  1.7949  1.7224
13132TIP3    H260812   6.397   4.119  16.583 -0.4189 -0.1602  0.0374
13133TIP3   OH260813   4.943   6.259   2.872 -0.3729  0.2632  0.5816
13133TIP3    H160814   4.920   6.171   2.901 -2.5462  1.0776  1.4987
13133TIP3    H260815   5.016   6.247   2.812  0.1738 -2.0366  1.6512
13134TIP3   OH260816   3.152   0.138  17.168  0.1002  0.2709  0.2688
13134TIP3    H160817   3.190   0.206  17.113  0.2850  0.1937  0.2992
13134TIP3    H260818   3.130   0.068  17.107 -3.1560  1.6707 -0.2406
13135TIP3   OH260819   3.302   0.136   3.908  0.0189  0.1918  0.4095
13135TIP3    H160820   3.312   0.206   3.844  0.9695  0.6393  1.0460
13135TIP3    H260821   3.262   0.064   3.859 -0.9058  1.1533 -0.2547
13136TIP3   OH260822   2.955   4.489   2.005  0.2779 -0.1464  0.2225
13136TIP3    H160823   2.910   4.435   1.940 -1.9181  1.8257  0.0578
13136TIP3    H260824   2.943   4.442   2.087 -0.1841 -0.7537 -0.1824
13137TIP3   OH260825   1.779   1.551  10.961  0.1292  0.6338  0.1730
13137TIP3    H160826   1.710   1.614  10.941 -0.4772  0.9095  2.9505
13137TIP3    H260827   1.765   1.480  10.899 -0.6580  2.1340 -1.4170
13138TIP3   OH260828   4.602   6.229  14.969 -0.2826 -0.6885  0.1365
13138TIP3    H160829   4.529   6.260  14.916 -1.1687 -2.1223  0.5076
13138TIP3    H260830   4.604   6.135  14.955  1.4913 -0.6641  0.1370
13139TIP3   OH260831   3.935   1.845  16.276  0.0741  0.5609 -0.3347
13139TIP3    H160832   3.962   1.861  16.366  1.0218 -0.0163 -0.5117
13139TIP3    H260833   3.884   1.923  16.252  0.9020  1.3075  0.2695
13140TIP3   OH260834   0.173   0.950   0.228  0.0285 -0.0661 -0.2537
13140TIP3    H160835   0.174   0.878   0.292 -0.1081  1.6467  1.7232
13140TIP3    H260836   0.085   0.946   0.190 -1.5873  1.7803  3.0890
13141TIP3   OH260837   1.728   5.589   3.731  0.2779 -0.2571  0.5659
13141TIP3    H160838   1.665   5.518   3.739 -0.1986 -0.0214 -0.9369
13141TIP3    H260839   1.707   5.648   3.803 -0.7637 -0.5333  0.4944
13142TIP3   OH260840   0.886   1.197   5.209 -0.4390 -0.2821  0.2622
13142TIP3    H160841   0.829   1.268   5.180 -0.5696  0.3083  1.9216
13142TIP3    H260842   0.827   1.122   5.221 -0.7242  0.0682  1.0735
13143TIP3   OH260843   1.858   6.083   5.552  0.2677 -0.2692 -0.1946
13143TIP3    H160844   1.822   6.157   5.602 -0.6585 -0.9706  0.1901
13143TIP3    H260845   1.948   6.075   5.584  0.5935  1.1079 -0.7191
13144TIP3   OH260846   0.114   0.307  11.888 -0.2317  0.0881 -0.2330
13144TIP3    H160847   0.192   0.358  11.866 -0.5771  1.8959  2.5029
13144TIP3    H260848   0.043   0.371  11.890 -1.2899 -1.0690  0.0111
13145TIP3   OH260849   0.782   1.785   0.230  0.0784 -0.0982 -0.2916
13145TIP3    H160850   0.861   1.734   0.211 -1.0129 -1.9852  0.0559
13145TIP3    H260851   0.794   1.816   0.320  1.3291  1.3881 -0.9498
13146TIP3   OH260852   3.817   1.166   4.496 -0.4294  0.4029  0.1220
13146TIP3    H160853   3.860   1.251   4.504 -1.9399  1.3392 -1.2438
13146TIP3    H260854   3.825   1.144   4.403 -1.2193 -0.2879  0.2116
13147TIP3   OH260855   1.315   4.420   0.776  0.3428 -0.5395 -0.4580
13147TIP3    H160856   1.278   4.348   0.726  1.7966 -1.6916  0.0693
13147TIP3    H260857   1.407   4.396   0.787  0.1229 -0.1607  2.4839
13148TIP3   OH260858   1.380   1.332  13.064 -1.0283  0.2315 -0.3044
13148TIP3    H160859   1.407   1.417  13.029 -1.9027  0.8759  0.5716
13148TIP3    H260860   1.285   1.335  13.065 -1.0485 -0.2479  0.9388
13149TIP3   OH260861   5.894   1.880  17.225 -0.4089  0.2326  0.1674
13149TIP3    H160862   5.815   1.841  17.261  0.2063 -0.8298  0.4038
13149TIP3    H260863   5.938   1.808  17.179 -0.1733  1.0979 -0.9777
13150TIP3   OH260864   1.189   4.891   1.355  0.2357  0.0595  0.1841
13150TIP3    H160865   1.207   4.902   1.449  0.9428  0.4017  0.0127
13150TIP3    H260866   1.136   4.967   1.332 -1.9765 -1.2680  0.8267
13151TIP3   OH260867   2.934   2.386  16.503 -0.5628  0.7658  0.2140
13151TIP3    H160868   2.897   2.327  16.438 -0.8774  0.4116  0.7117
13151TIP3    H260869   2.944   2.469  16.457 -1.1371  0.6190 -0.1761
13152TIP3   OH260870   3.712   2.493  15.693 -0.2378  0.5531 -0.4498
13152TIP3    H160871   3.660   2.517  15.616 -0.8553  1.1155  0.1367
13152TIP3    H260872   3.784   2.441  15.657  0.5321  2.3867 -1.6095
13153TIP3   OH260873   0.296   3.378   4.629 -0.7468 -0.1419 -0.2518
13153TIP3    H160874   0.387   3.392   4.604 -1.1564  2.7637 -0.2023
13153TIP3    H260875   0.245   3.397   4.550 -1.4287 -0.1324  0.1802
13154TIP3   OH260876   1.672   6.001  15.782  0.6954 -0.6082 -0.3436
13154TIP3    H160877   1.590   6.003  15.833  1.0888 -0.0482  0.2851
13154TIP3    H260878   1.740   5.986  15.848  1.3949  1.9366 -0.4465
13155TIP3   OH260879   1.422   6.043   5.217  0.0436  0.4739 -0.5218
13155TIP3    H160880   1.345   6.098   5.231 -0.5684 -0.6018  0.4138
13155TIP3    H260881   1.425   5.986   5.294  1.0834 -0.3089 -1.1332
13156TIP3   OH260882   3.159   1.564   5.462 -0.1733  0.3661 -0.1597
13156TIP3    H160883   3.213   1.642   5.469  0.0118  0.2331 -0.1247
13156TIP3    H260884   3.187   1.522   5.380 -1.1547  1.0139 -0.8497
13157TIP3   OH260885   2.589   6.733  15.145 -0.1843  0.0468 -0.2971
13157TIP3    H160886   2.498   6.754  15.120 -1.3456 -1.7323  2.2070
13157TIP3    H260887   2.600   6.642  15.117  1.7383  1.0207 -2.8852
13158TIP3   OH260888   5.417   0.762   4.838  0.0556 -0.5808 -0.2673
13158TIP3    H160889   5.368   0.774   4.757  0.4692 -2.8683 -0.8911
13158TIP3    H260890   5.357   0.791   4.907 -2.2846 -3.5127 -0.9986
13159TIP3   OH260891   2.607   5.276   1.662 -0.3458  0.0477  0.1065
13159TIP3    H160892   2.553   5.285   1.584  0.1850 -1.5617 -0.4897
13159TIP3    H260893   2.567   5.204   1.711 -0.7297  1.1071  1.3779
13160TIP3   OH260894   4.107   4.513   3.240 -0.1689 -0.6429 -0.3711
13160TIP3    H160895   4.154   4.573   3.182 -0.8988 -0.8202 -1.1589
13160TIP3    H260896   4.162   4.435   3.245  0.0025 -0.5401 -0.6561
13161TIP3   OH260897   4.461   3.051   4.014  0.7276 -0.2221 -0.5101
13161TIP3    H160898   4.378   3.003   4.018  0.6779 -0.1061 -0.1438
13161TIP3    H260899   4.528   2.983   4.010  0.5744 -0.3169 -1.7634
13162TIP3   OH260900   4.385   6.654   5.276  0.1341  0.4722  0.2109
13162TIP3    H160901   4.370   6.717   5.206 -0.9199  1.0674  0.9675
13162TIP3    H260902   4.357   6.570   5.239 -2.4163  1.1046  0.6093
13163TIP3   OH260903   1.088   6.107   2.537 -0.2031  0.3292 -0.1712
13163TIP3    H160904   1.180   6.132   2.526 -0.1231  0.6028  1.0668
13163TIP3    H260905   1.063   6.071   2.452  1.0095  0.3767 -0.5608
13164TIP3   OH260906   5.199   3.529   1.633 -0.0463 -0.2151 -0.1612
13164TIP3    H160907   5.106   3.517   1.610  0.0060 -0.5690 -0.1967
13164TIP3    H260908   5.214   3.465   1.702  0.3416 -0.6220 -0.6170
13165TIP3   OH260909   4.501   1.931   4.856 -0.0848  0.5069 -0.3485
13165TIP3    H160910   4.463   2.016   4.835 -0.2796  0.4065 -0.3973
13165TIP3    H260911   4.469   1.872   4.788 -1.6951 -0.0822  0.8803
13166TIP3   OH260912   4.474   1.283  14.236 -0.1024 -0.3467  0.2650
13166TIP3    H160913   4.417   1.346  14.279 -3.2885 -1.7451 -1.6730
13166TIP3    H260914   4.446   1.198  14.270  0.8228 -1.0717 -0.7392
13167TIP3   OH260915   5.628   3.613  12.032 -0.3736  0.2145 -0.8104
13167TIP3    H160916   5.683   3.682  11.997 -0.1682  1.1751  1.3194
13167TIP3    H260917   5.577   3.655  12.101 -1.8504 -1.2650 -0.9416
13168TIP3   OH260918   3.831   3.735   0.942  0.3111  0.3449 -0.0929
13168TIP3    H160919   3.847   3.672   1.013  0.5545  1.4080  0.8162
13168TIP3    H260920   3.749   3.778   0.966  1.9343  2.8857  1.2062
13169TIP3   OH260921   0.906   1.106  14.326 -0.0852 -0.0778  0.0199
13169TIP3    H160922   0.835   1.140  14.382  0.3797 -0.7829  1.0625
13169TIP3    H260923   0.986   1.133  14.371  0.3264  0.7827 -1.2023
13170TIP3   OH260924   6.540   5.738  13.395 -0.0002 -0.6183 -0.3097
13170TIP3    H160925   6.531   5.752  13.301 -0.3784  1.5380  0.0241
13170TIP3    H260926   6.628   5.770  13.415 -0.3635  0.0189  0.2669
13171TIP3   OH260927   2.179   6.619   4.387  0.0150 -0.9763 -0.2607
13171TIP3    H160928   2.114   6.624   4.456  1.0907 -1.5110  0.8122
13171TIP3    H260929   2.132   6.645   4.307 -1.2277 -0.3450  0.6633
13172TIP3   OH260930   3.068   4.149  11.324  0.1296  0.0828  0.3297
13172TIP3    H160931   2.980   4.166  11.356 -0.1937 -1.0281  0.0687
13172TIP3    H260932   3.067   4.056  11.301  1.2188  0.1827 -0.1408
13173TIP3   OH260933   0.480   1.919   1.602 -0.5138  0.1933 -0.1346
13173TIP3    H160934   0.458   1.849   1.541 -0.0699 -0.3500  0.3260
13173TIP3    H260935   0.544   1.881   1.661 -2.1385  0.1834  1.7010
13174TIP3   OH260936   5.051   1.692   5.952 -0.4940  0.6068 -0.5512
13174TIP3    H160937   4.961   1.674   5.928 -0.1346 -0.2334 -1.2805
13174TIP3    H260938   5.045   1.738   6.036 -1.5889  0.5466 -0.5943
13175TIP3   OH260939   2.273   6.500  13.376  0.3468  0.3614 -0.4265
13175TIP3    H160940   2.296   6.504  13.283 -2.0476  1.9375 -0.9918
13175TIP3    H260941   2.357   6.490  13.421  1.4786 -1.0543 -2.7827
13176TIP3   OH260942   0.841   3.834   1.772  0.0902  0.4546  0.3515
13176TIP3    H160943   0.813   3.785   1.850 -1.5722  1.9366  0.6969
13176TIP3    H260944   0.763   3.880   1.742  0.8462  0.3379 -1.8974
13177TIP3   OH260945   5.523   1.792   5.264 -0.2766 -0.1289  0.1241
13177TIP3    H160946   5.456   1.745   5.214 -0.3780 -1.4023  1.4368
13177TIP3    H260947   5.574   1.724   5.307  0.3623  0.9169  1.0570
13178TIP3   OH260948   2.306   0.080   3.079  0.4003 -0.1032  0.6080
13178TIP3    H160949   2.231   0.052   3.131  0.3379 -0.2028  0.4649
13178TIP3    H260950   2.375   0.095   3.143  0.3784 -0.4033  0.7027
13179TIP3   OH260951   6.127   5.278  11.827 -0.1109  0.1094 -0.0310
13179TIP3    H160952   6.133   5.211  11.895  2.0866  1.9751  1.7127
13179TIP3    H260953   6.041   5.318  11.841  1.1260  1.8567  3.0862
13180TIP3   OH260954   5.372   3.198   1.949  0.1930 -0.7698 -0.0965
13180TIP3    H160955   5.356   3.106   1.968  4.2695 -1.4921  0.4312
13180TIP3    H260956   5.441   3.197   1.882  0.9934  1.8681  0.6219
13181TIP3   OH260957   0.419   6.175  11.762  0.2082 -0.1907  0.2569
13181TIP3    H160958   0.371   6.256  11.775  0.8133 -0.0719  1.9411
13181TIP3    H260959   0.357   6.106  11.785  0.1986 -0.1275  0.4221
13182TIP3   OH260960   1.513   0.331   5.776  0.6556  0.0161 -0.3616
13182TIP3    H160961   1.467   0.282   5.845 -1.0203 -1.8255 -2.7168
13182TIP3    H260962   1.520   0.420   5.811  0.7345 -1.0877  2.5902
13183TIP3   OH260963   3.629   1.492  14.790  0.0045  0.5120  0.4951
13183TIP3    H160964   3.609   1.562  14.729 -1.0814  0.6172  0.9739
13183TIP3    H260965   3.619   1.530  14.877 -2.3440 -0.6891  0.7858
13184TIP3   OH260966   4.896   5.863  11.946  0.0320 -0.3286  0.6252
13184TIP3    H160967   4.805   5.855  11.917  0.6619  0.4402 -1.7007
13184TIP3    H260968   4.942   5.793  11.900  0.3196 -1.9365  3.2699
13185TIP3   OH260969   2.139   6.449  11.368  0.2625 -0.2623 -0.4527
13185TIP3    H160970   2.053   6.464  11.330 -0.1689 -0.2662  0.5003
13185TIP3    H260971   2.161   6.532  11.410  0.9198 -0.1214 -1.0605
13186TIP3   OH260972   0.418   3.273  12.055 -0.1265  0.4633  0.2795
13186TIP3    H160973   0.375   3.242  11.975 -1.8638 -1.5266  1.9251
13186TIP3    H260974   0.477   3.202  12.079 -1.0361  0.2042  1.7870
13187TIP3   OH260975   5.501   0.431   0.762  0.3065 -0.1888  0.0715
13187TIP3    H160976   5.513   0.467   0.850 -0.7957 -0.5400  0.3751
13187TIP3    H260977   5.447   0.496   0.717  0.1267 -0.4295 -0.0624
13188TIP3   OH260978   4.368   4.595   2.564  0.1114  0.0541 -0.7193
13188TIP3    H160979   4.420   4.674   2.548  1.5045 -0.7572 -0.3383
13188TIP3    H260980   4.341   4.602   2.656 -0.5057  0.5093 -0.9362
13189TIP3   OH260981   4.760   3.434   3.313  0.1332  0.3394 -0.1517
13189TIP3    H160982   4.794   3.378   3.383  0.3492  0.5567 -0.0792
13189TIP3    H260983   4.830   3.498   3.297 -0.1677  0.6788 -0.1278
13190TIP3   OH260984   5.495   3.592   4.571  0.0940 -0.0045 -0.5732
13190TIP3    H160985   5.527   3.666   4.624  1.2594 -0.9446  0.0533
13190TIP3    H260986   5.550   3.518   4.597 -0.0893 -0.7586 -2.2741
13191TIP3   OH260987   2.536   6.675  12.218  0.1867  0.5937 -0.1360
13191TIP3    H160988   2.598   6.633  12.158 -2.0763  0.6117 -2.5941
13191TIP3    H260989   2.571   6.763  12.230  0.8275  0.4893 -1.1712
13192TIP3   OH260990   2.075   2.586  16.721 -0.3220 -0.6694  0.0084
13192TIP3    H160991   2.093   2.568  16.629 -1.8225 -1.2124 -0.1974
13192TIP3    H260992   2.143   2.538  16.769  0.3210 -0.5765 -0.8033
13193TIP3   OH260993   2.878   3.421   3.801  0.6111 -0.1138  0.7694
13193TIP3    H160994   2.972   3.401   3.797  0.8706  1.0885  0.7292
13193TIP3    H260995   2.869   3.502   3.751 -0.9264 -1.9120 -1.9764
13194TIP3   OH260996   2.992   6.063   4.561  0.3413 -0.0791  0.1487
13194TIP3    H160997   2.956   6.134   4.614 -2.6324 -0.2618 -1.4976
13194TIP3    H260998   3.039   6.008   4.623  0.2629  1.7751  1.9108
13195TIP3   OH260999   6.070   1.531  14.465  0.0540  0.0855 -0.1095
13195TIP3    H161000   6.151   1.571  14.499  0.2139 -1.3973  1.3186
13195TIP3    H261001   6.101   1.462  14.407 -0.1767 -0.2419  0.1554
13196TIP3   OH261002   2.727   4.700   4.751 -0.3922  0.1460 -0.7083
13196TIP3    H161003   2.726   4.795   4.764 -0.3558  0.1008 -0.3826
13196TIP3    H261004   2.793   4.668   4.812  1.3370  0.1668 -2.5089
13197TIP3   OH261005   3.362   1.981   0.053  0.0924 -0.0909 -0.1996
13197TIP3    H161006   3.313   1.900   0.064 -0.5468  0.1305 -1.3753
13197TIP3    H261007   3.452   1.953   0.037  0.6159 -0.4844  3.0119
13198TIP3   OH261008   0.872   3.202   1.179 -0.0382 -0.3785 -0.5238
13198TIP3    H161009   0.794   3.219   1.232 -0.6119 -2.4696 -0.6677
13198TIP3    H261010   0.939   3.260   1.216 -1.8018  1.9137 -0.8112
13199TIP3   OH261011   5.412   6.097  12.120 -0.1837  0.1749 -0.6423
13199TIP3    H161012   5.341   6.077  12.181 -0.0905 -2.0651 -1.2371
13199TIP3    H261013   5.386   6.054  12.038  1.2661  0.3932 -1.2297
13200TIP3   OH261014   6.145   6.225  12.697 -0.1458  0.1508 -0.1781
13200TIP3    H161015   6.192   6.151  12.658 -0.6979 -1.1599  1.5690
13200TIP3    H261016   6.157   6.297  12.635  1.7784 -0.9485 -1.1163
13201TIP3   OH261017   5.681   6.387  15.055  0.5163 -0.5509  0.1282
13201TIP3    H161018   5.682   6.344  14.970 -0.8769 -1.3298  0.4860
13201TIP3    H261019   5.740   6.462  15.045 -0.9075  0.3529 -2.0346
13202TIP3   OH261020   1.064   3.722   0.745  0.0946 -0.1442  0.1242
13202TIP3    H161021   1.084   3.723   0.651 -0.6775 -4.1879 -0.1778
13202TIP3    H261022   1.148   3.737   0.788  0.6068  0.8411 -1.2045
13203TIP3   OH261023   5.306   1.233  14.326 -0.2297 -0.4088  0.3545
13203TIP3    H161024   5.329   1.178  14.251 -1.3356 -0.7558  0.2494
13203TIP3    H261025   5.358   1.312  14.315  0.5035 -0.9548 -0.1346
13204TIP3   OH261026   3.571   0.559   4.304 -0.7453  0.5901  0.3532
13204TIP3    H161027   3.632   0.540   4.375 -0.1145 -0.3070 -0.4130
13204TIP3    H261028   3.614   0.629   4.253  0.3306 -1.0309 -1.0078
13205TIP3   OH261029   1.559   2.618  13.079  0.4896  0.0295  0.2669
13205TIP3    H161030   1.549   2.531  13.039 -0.2877  0.3933 -0.3373
13205TIP3    H261031   1.486   2.625  13.140  1.2896 -0.2517  1.2828
13206TIP3   OH261032   4.555   2.453   4.409 -0.0502 -0.2103  0.2425
13206TIP3    H161033   4.562   2.524   4.473  0.2713  0.8863 -0.9738
13206TIP3    H261034   4.517   2.495   4.332  1.0972 -1.1317 -0.8467
13207TIP3   OH261035   0.989   4.995   5.555 -0.5582 -0.0111 -0.2395
13207TIP3    H161036   0.946   4.912   5.577  0.3847 -0.7419 -1.0959
13207TIP3    H261037   1.051   4.972   5.486  1.8797  0.8657  1.6243
13208TIP3   OH261038   5.977   3.371   3.542  0.3380 -0.4542 -0.5895
13208TIP3    H161039   5.918   3.387   3.616  1.4368  1.2533 -0.0279
13208TIP3    H261040   5.936   3.417   3.469 -0.1055 -1.0698 -0.7299
13209TIP3   OH261041   0.910   4.539   4.687  0.2805 -0.0955 -0.0579
13209TIP3    H161042   0.825   4.566   4.652  0.1767  1.2789  1.2340
13209TIP3    H261043   0.916   4.446   4.663 -1.3768 -0.1073 -0.5514
13210TIP3   OH261044   2.194   1.362   4.339 -0.2961 -0.4049 -0.2454
13210TIP3    H161045   2.220   1.352   4.248  1.8777 -2.5096  0.5331
13210TIP3    H261046   2.126   1.297   4.353 -2.4026  1.6024 -0.9675
13211TIP3   OH261047   6.625   4.307  11.150 -0.2319  0.0276 -0.1750
13211TIP3    H161048   6.569   4.328  11.075 -1.2410  1.7841  1.0306
13211TIP3    H261049   6.592   4.223  11.182  0.9886 -1.3434 -2.3897
13212TIP3   OH261050   0.375   4.451  13.018  0.1107 -0.0501  0.3209
13212TIP3    H161051   0.406   4.473  12.930  1.2652 -0.8474  0.5047
13212TIP3    H261052   0.292   4.497  13.027  0.4222  0.7613 -0.8540
13213TIP3   OH261053   4.880   2.636  12.533  0.6629  0.2475  0.6208
13213TIP3    H161054   4.841   2.710  12.581 -2.3193  0.5473 -2.0815
13213TIP3    H261055   4.873   2.563  12.594 -2.8175  0.6895  0.9011
13214TIP3   OH261056   6.626   1.147  15.946  0.0673  0.1083 -0.4153
13214TIP3    H161057   6.583   1.064  15.965 -1.0491  0.8262  0.1989
13214TIP3    H261058   6.563   1.196  15.893  1.2286  0.0637 -1.8941
13215TIP3   OH261059   2.595   1.625   2.754 -0.4653 -0.2884 -0.2080
13215TIP3    H161060   2.533   1.671   2.699  0.9720 -0.7753 -2.2881
13215TIP3    H261061   2.603   1.538   2.715  0.7371 -0.5721  0.6234
13216TIP3   OH261062   6.218   3.192   0.456 -0.4226 -0.2576 -0.6713
13216TIP3    H161063   6.143   3.154   0.411 -1.3937  1.6851 -0.7558
13216TIP3    H261064   6.261   3.247   0.390 -0.5881  0.8900  0.1688
13217TIP3   OH261065   2.371   0.613  14.064  0.2840  0.2326 -0.0178
13217TIP3    H161066   2.324   0.555  14.124  0.9138 -1.6868 -1.3548
13217TIP3    H261067   2.310   0.685  14.049 -0.6631 -0.2447  1.3698
13218TIP3   OH261068   6.032   6.043   0.947 -0.6057 -0.0464  0.5564
13218TIP3    H161069   6.126   6.055   0.958 -0.5548 -1.6177  1.9759
13218TIP3    H261070   6.023   5.990   0.868 -0.1853 -1.4647  1.4427
13219TIP3   OH261071   1.906   3.103  16.146  0.2009 -0.7999  0.2010
13219TIP3    H161072   1.984   3.051  16.125 -0.7603 -3.0069  1.8182
13219TIP3    H261073   1.938   3.193  16.152  2.4886 -1.5604  0.0672
13220TIP3   OH261074   0.963   5.498   3.589 -0.3999 -0.6699 -0.3200
13220TIP3    H161075   1.044   5.467   3.550 -0.6686 -3.5951  1.2571
13220TIP3    H261076   0.918   5.544   3.519  3.0579  1.9483 -0.9138
13221TIP3   OH261077   2.353   0.620   5.691 -0.1080  0.2955  0.1750
13221TIP3    H161078   2.328   0.536   5.654  0.0627  0.6105 -0.6608
13221TIP3    H261079   2.275   0.675   5.681  0.0043  0.4413  0.0922
13222TIP3   OH261080   3.641   3.168   5.681  0.3810 -0.0698 -0.0736
13222TIP3    H161081   3.616   3.256   5.710  2.3454 -0.4498  3.0771
13222TIP3    H261082   3.737   3.169   5.682  0.4259 -2.1094 -0.4686
13223TIP3   OH261083   1.845   5.118  10.490  0.0202 -0.8991 -0.0625
13223TIP3    H161084   1.929   5.094  10.530  0.7461  1.8615  0.2042
13223TIP3    H261085   1.807   5.182  10.550 -0.4397  0.8021 -2.0909
13224TIP3   OH261086   1.228   0.840   5.615 -0.2425  0.0683 -0.0075
13224TIP3    H161087   1.256   0.925   5.581  0.3561  0.6277  1.8038
13224TIP3    H261088   1.304   0.784   5.602 -0.7611 -0.3189 -1.5372
13225TIP3   OH261089   4.116   6.603  14.101 -0.9127  0.3625 -0.3492
13225TIP3    H161090   4.031   6.635  14.074 -1.8148 -1.8175 -0.2196
13225TIP3    H261091   4.097   6.527  14.156  1.0947 -0.0814 -0.2112
13226TIP3   OH261092   4.167   5.884  11.857 -0.3252  0.6857  0.5893
13226TIP3    H161093   4.196   5.971  11.829  2.6964 -1.2888 -2.9843
13226TIP3    H261094   4.080   5.875  11.819 -0.3180  1.8296  0.2632
13227TIP3   OH261095   5.030   2.637  15.869  0.6613  0.8756  0.5849
13227TIP3    H161096   5.110   2.588  15.887  0.7235  0.6769 -0.1795
13227TIP3    H261097   5.061   2.719  15.830  0.4295 -0.4174 -2.4892
13228TIP3   OH261098   5.412   3.965  14.782  0.7719 -0.1598  0.1233
13228TIP3    H161099   5.360   3.953  14.702  0.6762  0.0949  0.1470
13228TIP3    H261100   5.501   3.942  14.756  0.8940  0.7189 -0.2808
13229TIP3   OH261101   6.372   6.587  15.302 -0.3643 -0.4207  0.1925
13229TIP3    H161102   6.422   6.536  15.240 -0.6875 -2.1833  1.3420
13229TIP3    H261103   6.281   6.575  15.276 -0.5274 -1.4462  1.1760
13230TIP3   OH261104   0.052   1.558   1.167  0.4164  0.1431 -0.1514
13230TIP3    H161105  -0.010   1.512   1.110 -0.6645  0.8716  0.4134
13230TIP3    H261106   0.129   1.502   1.169 -0.7832 -1.5438  0.3138
13231TIP3   OH261107   2.165   0.106   2.070  0.6236  0.4704  0.1064
13231TIP3    H161108   2.071   0.123   2.081  0.1805  0.2231 -2.8096
13231TIP3    H261109   2.201   0.114   2.158 -2.3235 -0.6777  1.4938
13232TIP3   OH261110   5.290   2.401   4.097  0.3510 -0.2391  0.1645
13232TIP3    H161111   5.311   2.492   4.115 -0.8320  0.1590 -0.4315
13232TIP3    H261112   5.258   2.367   4.181  0.0394  0.1065  0.1842
13233TIP3   OH261113   5.214   2.421   4.965  0.3604  0.2974  0.3361
13233TIP3    H161114   5.134   2.473   4.969  1.1459  1.5516  0.3230
13233TIP3    H261115   5.226   2.401   4.872  0.0239  0.0428  0.3478
13234TIP3   OH261116   6.035   6.787  14.341  0.5389 -0.0006 -0.6002
13234TIP3    H161117   6.047   6.882  14.334 -0.2214  0.2193  0.9259
13234TIP3    H261118   5.988   6.763  14.261  3.4651  0.4034 -2.5158
13235TIP3   OH261119   5.171   2.733   0.060  0.3326 -0.1534 -0.6484
13235TIP3    H161120   5.191   2.739  -0.034  0.9949 -0.0065 -0.4944
13235TIP3    H261121   5.077   2.714   0.062  0.4110 -0.6536 -1.3571
13236TIP3   OH261122   3.814   4.909   5.783  0.1226 -0.3141  0.4817
13236TIP3    H161123   3.724   4.877   5.782 -0.4876  1.3065  1.7041
13236TIP3    H261124   3.823   4.955   5.867  2.2165 -0.8060  0.5686
13237TIP3   OH261125   5.876   2.394   3.626  1.1609 -0.1351  0.6466
13237TIP3    H161126   5.812   2.465   3.629  0.4430 -0.6540 -1.4408
13237TIP3    H261127   5.899   2.378   3.718 -0.7048  0.9643  1.3248
13238TIP3   OH261128   2.746   1.110  12.379  0.6820  0.2561 -0.8112
13238TIP3    H161129   2.675   1.055  12.414  0.8702  1.2679  1.2273
13238TIP3    H261130   2.810   1.114  12.450  2.4243  0.0196 -2.3442
13239TIP3   OH261131   4.327   6.585   0.720 -0.1881 -0.1315  0.0803
13239TIP3    H161132   4.242   6.544   0.705 -1.0650  1.8654 -0.6054
13239TIP3    H261133   4.345   6.570   0.812 -1.8397  0.3811  0.5105
13240TIP3   OH261134   5.221   3.591  13.224 -0.7116 -0.3575 -0.4062
13240TIP3    H161135   5.313   3.598  13.251 -0.4571 -1.5516 -0.9414
13240TIP3    H261136   5.213   3.502  13.189 -2.1522 -0.3759 -0.0557
13241TIP3   OH261137   3.737   4.716   2.666  0.4488 -0.1660  0.4877
13241TIP3    H161138   3.718   4.626   2.694 -0.8886  0.2467  0.9424
13241TIP3    H261139   3.792   4.706   2.589 -1.0511 -1.4258 -0.4521
13242TIP3   OH261140   2.319   6.256  15.111  0.2847 -0.3468 -0.3988
13242TIP3    H161141   2.414   6.246  15.115  0.1228 -2.6713 -1.3301
13242TIP3    H261142   2.301   6.333  15.164  2.4147 -1.5415  2.1812
13243TIP3   OH261143   2.655   0.867  11.502 -0.6957 -0.5170 -0.3203
13243TIP3    H161144   2.625   0.948  11.544  1.1237 -0.0617  0.1631
13243TIP3    H261145   2.579   0.809  11.503 -1.5581  0.6193  0.7729
13244TIP3   OH261146   5.260   6.071   0.608  0.0957  0.2182  0.1937
13244TIP3    H161147   5.241   6.030   0.524  1.3661 -1.1595  0.5710
13244TIP3    H261148   5.174   6.087   0.647 -0.4326 -2.3965  0.1811
13245TIP3   OH261149   6.522   5.904  12.819  0.5551  0.1679  0.4145
13245TIP3    H161150   6.562   5.928  12.735 -2.0580  0.8224 -0.6723
13245TIP3    H261151   6.579   5.944  12.885  2.2458  0.2187 -1.0513
13246TIP3   OH261152   3.971   4.321  13.149  0.4410  0.3936 -0.4454
13246TIP3    H161153   3.983   4.359  13.062  2.5166  0.1917 -0.2807
13246TIP3    H261154   4.029   4.373  13.205  0.0455 -0.2643  0.5813
13247TIP3   OH261155   3.612   0.754  13.779  0.0973 -0.3985 -0.1160
13247TIP3    H161156   3.606   0.674  13.727 -1.3506 -1.2283  1.2662
13247TIP3    H261157   3.674   0.809  13.732 -0.0558 -1.7165 -1.9161
13248TIP3   OH261158   0.094   6.499   1.671 -0.0172 -0.3600 -0.0425
13248TIP3    H161159   0.084   6.451   1.588 -0.8569  1.3167 -0.9303
13248TIP3    H261160   0.009   6.541   1.684  0.3635  0.0116  1.2834
13249TIP3   OH261161   3.871   0.388  14.782 -0.1541  0.2636 -0.1076
13249TIP3    H161162   3.861   0.370  14.689 -0.6689 -2.0137  0.3621
13249TIP3    H261163   3.811   0.461  14.799 -0.8810 -0.0294 -1.3404
13250TIP3   OH261164   0.430   0.402   0.210  0.2749  0.2868  0.3993
13250TIP3    H161165   0.352   0.383   0.157 -0.3210 -0.4990  1.5335
13250TIP3    H261166   0.397   0.409   0.300  1.5421 -0.3098  0.9249
13251TIP3   OH261167   2.914   5.540   3.239  0.4170  0.3602 -0.0656
13251TIP3    H161168   2.941   5.463   3.290 -0.0135 -0.3896 -0.9356
13251TIP3    H261169   2.845   5.507   3.181 -0.8584  1.7707  0.6143
13252TIP3   OH261170   2.872   0.642   5.471  0.0418  0.5362  0.2074
13252TIP3    H161171   2.866   0.617   5.379  0.6399 -2.0216  0.8285
13252TIP3    H261172   2.790   0.688   5.489 -1.3416 -1.4208 -0.9044
13253TIP3   OH261173   5.499   1.440  16.318  0.2035  0.2525  0.2367
13253TIP3    H161174   5.531   1.518  16.362 -0.1745  0.2212  0.5731
13253TIP3    H261175   5.577   1.387  16.302  0.4707  0.7521 -0.0942
13254TIP3   OH261176   4.315   4.130   2.328  0.2094  0.1135  0.3799
13254TIP3    H161177   4.335   4.216   2.292  0.5633  0.5468  1.5874
13254TIP3    H261178   4.286   4.147   2.418 -1.5646 -0.8650  0.0313
13255TIP3   OH261179   1.719   4.878   4.865  0.0813  0.2834 -0.4511
13255TIP3    H161180   1.783   4.880   4.794 -0.1955 -1.7135 -0.7935
13255TIP3    H261181   1.646   4.828   4.829 -1.3346  1.8417  0.2164
13256TIP3   OH261182   5.671   1.487   2.946  0.1527  0.1138 -0.3000
13256TIP3    H161183   5.649   1.566   2.898 -0.7300 -0.3969 -0.7415
13256TIP3    H261184   5.613   1.420   2.910 -1.1581 -0.0809  2.0702
13257TIP3   OH261185   4.534   5.444   5.873  0.1376  0.3179  0.4282
13257TIP3    H161186   4.569   5.524   5.834  0.1153  0.5465  0.8768
13257TIP3    H261187   4.520   5.385   5.798  0.6048  0.5563  0.1500
13258TIP3   OH261188   2.284   1.826  14.716  0.3565  0.0465  0.3524
13258TIP3    H161189   2.331   1.860  14.792 -0.4623  0.1106  0.8283
13258TIP3    H261190   2.200   1.796  14.750  0.2813 -0.6242 -0.3999
13259TIP3   OH261191   1.086   0.863   5.848 -0.1650  0.1613  0.2298
13259TIP3    H161192   0.990   0.857   5.848 -0.1285 -0.5955  1.2879
13259TIP3    H261193   1.113   0.831   5.762 -0.7085 -2.3246  0.9719
13260TIP3   OH261194   5.462   1.272   1.216 -0.1745 -0.6617  0.2198
13260TIP3    H161195   5.549   1.310   1.204  0.4714 -1.7649  1.4476
13260TIP3    H261196   5.408   1.346   1.244  0.4468 -0.0617 -0.1459
13261TIP3   OH261197   5.778   1.438  13.693  0.3251 -0.1972  0.3896
13261TIP3    H161198   5.818   1.525  13.694 -0.1794  0.0595 -0.7606
13261TIP3    H261199   5.851   1.377  13.693  0.6902  0.2440 -0.0688
13262TIP3   OH261200   0.278   3.923   2.419  0.1149 -0.4707  0.1487
13262TIP3    H161201   0.265   3.884   2.332  2.7717 -0.1676 -0.4284
13262TIP3    H261202   0.275   3.850   2.480 -1.1562 -0.7603 -0.2460
13263TIP3   OH261203   0.550   2.662  14.509 -0.0658  0.0890  0.6800
13263TIP3    H161204   0.584   2.584  14.554  1.7514  0.0617 -0.6709
13263TIP3    H261205   0.603   2.734  14.543  0.5390  0.2337 -0.5363
13264TIP3   OH261206   1.655   3.985  11.536  0.0374 -0.3517  0.5294
13264TIP3    H161207   1.700   4.070  11.535 -1.7060  0.6156  1.4570
13264TIP3    H261208   1.567   4.005  11.505 -0.2393 -1.9496  0.2316
13265TIP3   OH261209   3.723   2.903  16.644  0.1664  0.1665 -0.5796
13265TIP3    H161210   3.745   2.961  16.571  0.5021 -0.4719 -0.9837
13265TIP3    H261211   3.631   2.923  16.662 -0.2963 -0.5943 -2.0275
13266TIP3   OH261212   0.038   2.736   5.803 -0.4029  0.1879  0.3023
13266TIP3    H161213   0.014   2.656   5.851 -1.0565 -0.7956 -1.6207
13266TIP3    H261214   0.133   2.733   5.799 -0.4421 -0.7596 -0.1720
13267TIP3   OH261215   5.910   5.799   1.293 -0.1211 -0.3177 -0.0280
13267TIP3    H161216   5.838   5.788   1.356  0.2451 -1.5405  0.1945
13267TIP3    H261217   5.989   5.774   1.342  0.2317 -0.7256 -0.7904
13268TIP3   OH261218   2.457   3.111   4.607 -0.0433  0.4362  0.1290
13268TIP3    H161219   2.518   3.185   4.612  0.2872  0.2288 -0.6712
13268TIP3    H261220   2.371   3.152   4.593  0.1844  0.6626 -0.6308
13269TIP3   OH261221   6.360   5.682   4.885 -0.0759  0.1199 -0.3118
13269TIP3    H161222   6.370   5.756   4.946 -1.3346 -0.2630  0.3759
13269TIP3    H261223   6.447   5.643   4.881  0.4949  1.3604 -0.3133
13270TIP3   OH261224   3.266   4.018  13.608  0.3167 -0.4525 -0.6332
13270TIP3    H161225   3.345   3.980  13.569  0.5421 -1.5879  0.8681
13270TIP3    H261226   3.200   3.949  13.602  0.1892 -0.4354  0.4245
13271TIP3   OH261227   6.781   2.171   5.588 -0.6652  0.2745 -0.5712
13271TIP3    H161228   6.792   2.265   5.602 -0.3105  0.2251 -0.5263
13271TIP3    H261229   6.686   2.157   5.592 -0.7791  0.7630 -1.4452
13272TIP3   OH261230   0.810   1.445   6.249  0.0396 -0.1914 -0.0806
13272TIP3    H161231   0.838   1.354   6.239  0.1703 -0.3849  1.9632
13272TIP3    H261232   0.868   1.494   6.190 -1.5535 -1.6565 -2.9693
13273TIP3   OH261233   5.766   2.771   5.608 -0.4266 -0.1901  0.3955
13273TIP3    H161234   5.840   2.829   5.588 -1.1580  0.1507 -1.4417
13273TIP3    H261235   5.689   2.823   5.584 -1.1132 -1.6747 -0.6851
13274TIP3   OH261236   0.684   6.692  12.725 -0.4190  0.2682  0.4752
13274TIP3    H161237   0.661   6.599  12.730 -0.4992  0.3405  1.7997
13274TIP3    H261238   0.610   6.737  12.768  0.8835  0.7236  2.2959
13275TIP3   OH261239   5.574   1.862   3.012 -0.2186  0.6188 -0.8702
13275TIP3    H161240   5.525   1.844   3.093  0.2531 -1.0330 -0.9323
13275TIP3    H261241   5.556   1.954   2.994  1.4492  1.6594  2.3323
13276TIP3   OH261242   1.160   5.254   0.237 -0.3242 -0.3449 -0.4858
13276TIP3    H161243   1.078   5.304   0.226  0.0289  0.0261 -1.4905
13276TIP3    H261244   1.229   5.320   0.229  0.1776 -1.1072 -2.7035
13277TIP3   OH261245   5.956   6.011   1.815 -0.3293  0.6122 -0.2759
13277TIP3    H161246   6.033   6.040   1.864 -0.2835  0.9281 -0.5311
13277TIP3    H261247   5.883   6.054   1.859 -0.0801  2.8242 -1.9131
13278TIP3   OH261248   2.015   5.046  10.737  0.1928  0.3247 -0.4199
13278TIP3    H161249   2.073   4.972  10.716  1.5536  1.3050 -0.1823
13278TIP3    H261250   1.957   5.012  10.805 -0.8857 -1.3075 -2.0990
13279TIP3   OH261251   6.336   1.197   1.769 -0.4506 -0.4340  0.2445
13279TIP3    H161252   6.397   1.164   1.703  0.2855 -0.6342  1.0107
13279TIP3    H261253   6.324   1.290   1.747 -1.3747 -0.8382 -1.0402
13280TIP3   OH261254   0.647   0.519  13.112 -0.0350  0.0335 -0.0025
13280TIP3    H161255   0.677   0.431  13.133 -1.5790 -0.2946  0.9870
13280TIP3    H261256   0.725   0.565  13.081  0.9951 -1.3822  0.4374
13281TIP3   OH261257   5.901   6.473   4.044 -0.2376 -0.0619  0.1171
13281TIP3    H161258   5.830   6.484   3.981  1.3816 -1.0903 -1.9517
13281TIP3    H261259   5.966   6.420   3.998  1.8919  0.8732  1.9363
13282TIP3   OH261260   3.925   6.021  13.239  0.1258 -0.8876 -0.4897
13282TIP3    H161261   3.857   6.088  13.247 -2.4103 -3.3517 -0.6031
13282TIP3    H261262   3.999   6.066  13.198 -0.9962  2.1533  0.7494
13283TIP3   OH261263   6.206   6.306   5.542 -0.0393  0.2733  0.1551
13283TIP3    H161264   6.131   6.252   5.517 -0.1561  0.4146  0.1959
13283TIP3    H261265   6.281   6.248   5.533 -0.1010  0.2725 -0.3507
13284TIP3   OH261266   3.138   2.849  11.163  0.1332 -0.4474  0.3602
13284TIP3    H161267   3.111   2.771  11.211 -1.7366 -0.5135 -0.7500
13284TIP3    H261268   3.056   2.897  11.147  0.9846  0.6252 -0.8812
13285TIP3   OH261269   1.605   5.781  16.539  0.4448 -0.0148 -0.1603
13285TIP3    H161270   1.556   5.815  16.464 -1.5129  1.1931  1.5809
13285TIP3    H261271   1.539   5.741  16.595  1.4513  1.4374  2.1541
13286TIP3   OH261272   3.248   5.192  16.552  0.2706 -0.0038 -0.2676
13286TIP3    H161273   3.334   5.212  16.516  0.5058 -0.5665 -0.0166
13286TIP3    H261274   3.260   5.196  16.647 -0.0894  0.3651 -0.2339
13287TIP3   OH261275   0.226   1.149   5.518  0.3998 -0.4818  0.4982
13287TIP3    H161276   0.231   1.240   5.488 -0.3290 -0.9133 -0.9629
13287TIP3    H261277   0.307   1.137   5.568  0.6978  0.8452  0.3701
13288TIP3   OH261278   6.135   2.076  14.907 -0.3697 -0.3855 -0.5066
13288TIP3    H161279   6.169   2.012  14.845 -0.4817 -1.4597  0.5383
13288TIP3    H261280   6.125   2.156  14.855 -1.2556 -1.4940 -2.0836
13289TIP3   OH261281   0.014   3.216   2.927  0.5788 -0.1554  0.2200
13289TIP3    H161282  -0.070   3.229   2.883  1.4174 -2.0098 -1.9840
13289TIP3    H261283   0.001   3.137   2.980  0.4575  0.4626  1.1253
13290TIP3   OH261284   3.607   0.294   4.532  0.0919 -0.0885 -0.0120
13290TIP3    H161285   3.548   0.281   4.458  1.2403  0.7350 -1.0957
13290TIP3    H261286   3.553   0.278   4.609 -1.6728  1.1518 -0.9638
13291TIP3   OH261287   2.991   3.428  13.404 -0.4432  0.3508 -0.0197
13291TIP3    H161288   3.012   3.395  13.317  2.0697  0.6332  0.4265
13291TIP3    H261289   3.006   3.353  13.462  0.8953  0.9877  0.4850
13292TIP3   OH261290   3.577   1.373   3.432  0.2192 -0.2771 -0.2123
13292TIP3    H161291   3.560   1.279   3.435 -0.0735 -0.2102  0.4694
13292TIP3    H261292   3.528   1.408   3.507  0.9304  0.3150 -0.0153
13293TIP3   OH261293   1.129   5.705  12.303 -0.0250 -0.5226 -0.1596
13293TIP3    H161294   1.133   5.614  12.276 -1.3383  0.2643 -3.1677
13293TIP3    H261295   1.046   5.713  12.350  1.1274 -1.3310  2.1036
13294TIP3   OH261296   3.860   6.518  14.919 -0.0438  0.2938  0.6089
13294TIP3    H161297   3.836   6.528  15.011 -1.5466 -0.3468  0.2900
13294TIP3    H261298   3.782   6.545  14.870  0.4648 -0.1329 -0.4606
13295TIP3   OH261299   4.139   3.018   2.270  0.5482  0.5052 -0.3000
13295TIP3    H161300   4.122   3.033   2.363 -0.4612  1.1605 -0.5904
13295TIP3    H261301   4.087   3.084   2.224  0.3719 -0.3576 -1.3668
13296TIP3   OH261302   3.199   1.420   3.230 -0.1128  0.4584 -0.2608
13296TIP3    H161303   3.245   1.484   3.284  1.0866 -1.3877  0.9715
13296TIP3    H261304   3.149   1.472   3.168  2.5576  2.5688 -0.7361
13297TIP3   OH261305   2.200   1.818   4.298  0.1379  0.0512 -0.0135
13297TIP3    H161306   2.220   1.754   4.230 -2.8267 -0.6174 -0.3605
13297TIP3    H261307   2.230   1.778   4.380 -0.1966 -1.0886 -0.4360
13298TIP3   OH261308   2.600   4.599   3.680 -0.6127 -0.3991 -0.0994
13298TIP3    H161309   2.535   4.620   3.612 -0.7214 -0.5278 -0.0362
13298TIP3    H261310   2.580   4.509   3.705  1.0787 -1.2696 -1.7546
13299TIP3   OH261311   0.397   6.622  11.288 -0.3669  0.0503  0.3978
13299TIP3    H161312   0.372   6.654  11.201  0.5578 -1.5189 -0.4854
13299TIP3    H261313   0.488   6.650  11.298 -0.3069 -0.2339  0.6343
13300TIP3   OH261314   1.931   2.451  15.316 -0.0873  0.3526 -0.1275
13300TIP3    H161315   1.897   2.365  15.343  0.8561  0.7536  2.3873
13300TIP3    H261316   2.018   2.432  15.281 -0.7876  0.0155 -1.7624
13301TIP3   OH261317   0.630   4.318   1.742 -0.0207 -0.5183  0.6018
13301TIP3    H161318   0.557   4.300   1.802  0.6808 -0.9214  1.3479
13301TIP3    H261319   0.643   4.237   1.695  0.9394 -0.9432  1.5671
13302TIP3   OH261320   6.454   5.598  16.498 -0.5351 -0.1173 -0.7618
13302TIP3    H161321   6.532   5.553  16.531 -1.2335 -0.4833  0.4284
13302TIP3    H261322   6.488   5.679  16.458  0.4584 -0.3115 -0.3249
13303TIP3   OH261323   0.033   2.686   1.498  0.2774  0.8527  0.3539
13303TIP3    H161324   0.089   2.638   1.560  0.7773  0.0864 -0.6806
13303TIP3    H261325  -0.021   2.743   1.554  1.6458  1.1479  1.4122
13304TIP3   OH261326   6.357   1.694   4.539  0.4634 -0.4159 -0.2821
13304TIP3    H161327   6.278   1.728   4.497  1.3312  0.2685 -1.4117
13304TIP3    H261328   6.395   1.635   4.474  1.1266 -0.3768  0.0657
13305TIP3   OH261329   5.924   5.230   6.222  0.0656 -0.1090 -0.0341
13305TIP3    H161330   5.870   5.189   6.290 -0.2834 -2.0995 -1.4752
13305TIP3    H261331   5.884   5.316   6.209  0.1118  0.2883  2.2205
13306TIP3   OH261332   4.177   2.053  15.666 -0.2962 -0.2455  0.1342
13306TIP3    H161333   4.191   2.148  15.662 -1.1619 -0.0830  0.8093
13306TIP3    H261334   4.136   2.038  15.751  0.0512 -1.2617  0.1322
13307TIP3   OH261335   2.802   4.488  13.276  0.0572  0.4816 -0.1873
13307TIP3    H161336   2.803   4.426  13.203 -0.7749 -0.5558  0.6621
13307TIP3    H261337   2.876   4.462  13.331  0.1914  0.7466 -0.2422
13308TIP3   OH261338   6.647   0.326   5.252 -0.2379  0.0268  0.7399
13308TIP3    H161339   6.676   0.238   5.228 -0.0383  0.5142 -0.8943
13308TIP3    H261340   6.701   0.384   5.199 -2.8011  1.0170 -0.8835
13309TIP3   OH261341   3.896   1.205  13.834  0.4004 -0.0959  0.0082
13309TIP3    H161342   3.980   1.246  13.857  0.8478 -0.8703 -0.2107
13309TIP3    H261343   3.839   1.223  13.908  0.5454  1.0287 -0.1383
13310TIP3   OH261344   5.047   0.910   0.084 -0.5806 -0.4772 -0.3486
13310TIP3    H161345   4.974   0.887   0.142 -1.6846  0.2600 -1.4563
13310TIP3    H261346   5.067   0.829   0.037 -0.3769 -0.7943  0.2737
13311TIP3   OH261347   4.669   4.602  14.837  0.0567  0.5063 -0.1422
13311TIP3    H161348   4.615   4.682  14.839  0.2030  0.6243 -0.8272
13311TIP3    H261349   4.658   4.564  14.924 -0.2641  1.1128  0.0877
13312TIP3   OH261350   5.713   0.702   3.004  0.3454  0.2305 -0.0013
13312TIP3    H161351   5.802   0.699   2.970 -0.3124  0.9186 -1.8066
13312TIP3    H261352   5.673   0.621   2.972 -0.1948  0.7547 -0.6660
13313TIP3   OH261353   2.599   1.057  12.084  0.6998 -0.1937  0.2059
13313TIP3    H161354   2.682   1.066  12.131  0.8611  0.1505 -0.1415
13313TIP3    H261355   2.574   0.966  12.097  1.3007 -0.3904  0.0355
13314TIP3   OH261356   1.962   0.227  16.361  0.3629  0.0387  0.5177
13314TIP3    H161357   1.951   0.319  16.337 -0.7241  0.0656  1.1144
13314TIP3    H261358   1.894   0.180  16.312  0.0568 -0.2748  1.2335
13315TIP3   OH261359   5.356   5.764  13.819  0.2912  0.0401  0.3335
13315TIP3    H161360   5.393   5.686  13.778 -2.7963 -0.7131 -1.0899
13315TIP3    H261361   5.426   5.830  13.811  1.9211 -1.7733 -0.8484
13316TIP3   OH261362   1.089   3.740  15.676 -0.6397 -0.2651 -0.3594
13316TIP3    H161363   1.174   3.703  15.703 -0.1514  0.6479 -0.6165
13316TIP3    H261364   1.110   3.795  15.600 -0.8913  2.7052  1.6350
13317TIP3   OH261365   5.956   2.655  12.722 -0.3807 -0.1632 -0.4844
13317TIP3    H161366   5.964   2.585  12.657  0.9977  0.4858 -1.0397
13317TIP3    H261367   5.966   2.736  12.671  2.1563  0.3154  0.7161
13318TIP3   OH261368   2.162   4.237  11.856 -0.6727  0.2759 -0.0155
13318TIP3    H161369   2.246   4.228  11.899 -0.6507 -0.3160 -0.1661
13318TIP3    H261370   2.163   4.169  11.788 -0.4639  1.5656 -1.3301
13319TIP3   OH261371   3.354   3.995  11.593  0.4424 -0.2616  0.4050
13319TIP3    H161372   3.439   4.025  11.626  0.4928  0.3272 -0.2575
13319TIP3    H261373   3.290   4.046  11.642  0.5017  0.1167  0.0914
13320TIP3   OH261374   3.599   5.038  13.787  0.2613  0.2532 -0.4185
13320TIP3    H161375   3.530   5.078  13.734 -0.2322  0.5200  0.4176
13320TIP3    H261376   3.557   4.961  13.826  0.4181  0.4588  0.1480
13321TIP3   OH261377   3.499   0.694   5.353  0.4538 -0.0845 -0.4246
13321TIP3    H161378   3.522   0.787   5.353  2.6158 -0.4986 -4.3358
13321TIP3    H261379   3.562   0.653   5.412 -1.2449  0.9796  2.2513
13322TIP3   OH261380   6.099   2.184   3.891 -0.0310 -0.0452  0.1692
13322TIP3    H161381   6.187   2.155   3.917 -1.2143 -2.4179  1.7746
13322TIP3    H261382   6.068   2.235   3.965  0.0658  1.0462 -0.5235
13323TIP3   OH261383   6.521   2.875  16.629 -0.0749 -0.1549 -0.6222
13323TIP3    H161384   6.487   2.933  16.562 -0.4387 -2.0241 -2.1105
13323TIP3    H261385   6.616   2.875  16.617  0.0120  0.8616  0.0133
13324TIP3   OH261386   0.535   5.380  11.046 -0.3591 -0.2791  0.1967
13324TIP3    H161387   0.455   5.328  11.042 -0.7653  0.4150 -1.2480
13324TIP3    H261388   0.573   5.372  10.958  0.6813  0.1204  0.6082
13325TIP3   OH261389   5.695   0.407  10.570 -0.1314 -0.0181 -0.2305
13325TIP3    H161390   5.633   0.440  10.505 -1.2137 -0.8307  0.3651
13325TIP3    H261391   5.705   0.478  10.632  1.2446  0.9238 -1.5005
13326TIP3   OH261392   5.800   3.189   5.104  0.3010 -0.0979 -0.6542
13326TIP3    H161393   5.840   3.244   5.171 -2.2778 -1.9819  2.6176
13326TIP3    H261394   5.758   3.250   5.044  1.3051  1.6108  0.3383
13327TIP3   OH261395   4.987   6.657  11.152  0.4865  0.4124  0.8557
13327TIP3    H161396   4.994   6.740  11.199  1.4807 -0.6320  2.6258
13327TIP3    H261397   4.909   6.615  11.190  0.1621  0.4136  0.1847
13328TIP3   OH261398   3.188   1.839   1.183  0.2093  0.3469  0.0497
13328TIP3    H161399   3.245   1.864   1.110 -0.6391  0.7422 -0.4858
13328TIP3    H261400   3.170   1.746   1.170  1.8200 -0.1052  0.9739
13329TIP3   OH261401   5.809   3.187   0.806 -0.0336  0.3808 -0.5334
13329TIP3    H161402   5.727   3.163   0.763  0.0444 -1.1201  0.1198
13329TIP3    H261403   5.782   3.211   0.895 -0.0955  2.6868 -1.1251
13330TIP3   OH261404   1.712   4.111  13.864 -0.1817 -0.1503  0.0007
13330TIP3    H161405   1.691   4.130  13.956 -0.0309  2.2263 -0.4335
13330TIP3    H261406   1.681   4.188  13.816  0.6884 -0.9128 -1.8191
13331TIP3   OH261407   3.015   2.368   4.156  0.5103 -0.2639 -0.1704
13331TIP3    H161408   2.925   2.346   4.180  0.6847 -0.6433  0.1452
13331TIP3    H261409   3.068   2.299   4.197  1.1973  1.4754  1.9925
13332TIP3   OH261410   6.709   2.329  13.690 -0.5141 -0.4687 -0.1005
13332TIP3    H161411   6.740   2.316  13.780 -1.0473  0.9769  0.3129
13332TIP3    H261412   6.637   2.392  13.699 -1.2372 -1.0984 -1.4357
13333TIP3   OH261413   1.170   5.421  15.522  0.4230  0.2850 -0.5436
13333TIP3    H161414   1.115   5.354  15.561  2.5128 -1.2537 -0.1163
13333TIP3    H261415   1.143   5.503  15.564  0.8380 -0.9557  2.2354
13334TIP3   OH261416   1.799   5.517   6.081  0.1288 -0.3146  0.1518
13334TIP3    H161417   1.821   5.532   6.173  0.4619  0.2595 -0.0202
13334TIP3    H261418   1.715   5.470   6.083 -0.4449  0.7417  0.7092
13335TIP3   OH261419   5.535   0.492  16.948  0.0424 -0.2363 -0.0005
13335TIP3    H161420   5.540   0.397  16.941 -0.0683 -0.1297 -1.8377
13335TIP3    H261421   5.573   0.524  16.866  0.7411  1.3167  0.9130
13336TIP3   OH261422   1.272   4.624   3.320  0.0767 -0.3227  0.1049
13336TIP3    H161423   1.292   4.591   3.407  1.8633  1.3194  0.3564
13336TIP3    H261424   1.182   4.655   3.326 -0.4079 -1.8551  0.8562
13337TIP3   OH261425   5.084   2.409  14.707 -0.0887 -0.4129 -0.1212
13337TIP3    H161426   5.147   2.358  14.655  1.2144  0.4801  0.5449
13337TIP3    H261427   5.117   2.402  14.797  0.8414  2.6054 -0.1784
13338TIP3   OH261428   2.199   3.402   6.004  0.3066  0.2502  0.4332
13338TIP3    H161429   2.242   3.478   6.044  1.4208  0.0141 -0.2713
13338TIP3    H261430   2.174   3.432   5.917  0.9513 -0.2367  0.0687
13339TIP3   OH261431   0.183   1.739  14.986 -0.2514 -0.5276 -0.0229
13339TIP3    H161432   0.208   1.750  15.078  1.2937  0.3331 -0.5352
13339TIP3    H261433   0.101   1.789  14.978  1.7651  2.9431 -0.0553
13340TIP3   OH261434   0.572   3.555   4.295  0.1604 -0.3282  0.3267
13340TIP3    H161435   0.534   3.504   4.224  1.5524 -1.5500  0.4492
13340TIP3    H261436   0.500   3.610   4.326 -0.8671 -0.9030 -0.9916
13341TIP3   OH261437   1.251   1.669  16.545  0.6759  0.1156 -0.0549
13341TIP3    H161438   1.171   1.616  16.540  1.6526 -1.6972  2.5982
13341TIP3    H261439   1.221   1.758  16.525 -1.7306 -0.7809 -0.6539
13342TIP3   OH261440   2.310   1.689   4.782 -0.5788 -0.0092  0.0752
13342TIP3    H161441   2.228   1.648   4.810 -0.8141  1.0831  0.9814
13342TIP3    H261442   2.373   1.664   4.849 -0.4389  0.1372 -0.0038
13343TIP3   OH261443   4.336   2.262   1.102  0.1122  0.3650  0.2911
13343TIP3    H161444   4.348   2.318   1.179 -0.7870 -0.9804  1.4363
13343TIP3    H261445   4.411   2.202   1.103  0.6431  1.0041 -0.4749
13344TIP3   OH261446   5.354   5.744   0.057  0.6295  0.1505  0.1083
13344TIP3    H161447   5.300   5.704   0.125 -0.7037 -0.8923 -1.5206
13344TIP3    H261448   5.312   5.828   0.039  1.3724  0.7296  1.0213
13345TIP3   OH261449   4.323   0.931   5.523  0.1632 -0.3192  0.5110
13345TIP3    H161450   4.362   0.912   5.438 -1.0792  1.0631 -0.3915
13345TIP3    H261451   4.230   0.943   5.505  0.1084  1.4323  1.8245
13346TIP3   OH261452   2.675   2.958  16.794 -0.1763 -0.1468  0.1091
13346TIP3    H161453   2.734   2.926  16.863 -0.0678  1.0347  0.5812
13346TIP3    H261454   2.700   3.049  16.782 -1.7821  0.3262  0.1988
13347TIP3   OH261455   0.834   2.120   4.504 -0.0016 -0.7182  0.4143
13347TIP3    H161456   0.815   2.136   4.596  0.6796  2.7939  0.0033
13347TIP3    H261457   0.929   2.117   4.499  0.0333  0.9861 -0.4049
13348TIP3   OH261458   3.034   4.232   0.471 -0.3183  0.1995 -0.1225
13348TIP3    H161459   3.123   4.202   0.451 -0.5757  0.0307 -1.0686
13348TIP3    H261460   2.988   4.226   0.387 -0.9516  1.2330  0.1463
13349TIP3   OH261461   1.141   0.898  11.366  0.2659  0.2760  0.3129
13349TIP3    H161462   1.191   0.836  11.419  0.7623  1.1570  0.8984
13349TIP3    H261463   1.193   0.910  11.287 -0.7558 -1.4760 -0.6412
13350TIP3   OH261464   5.895   4.002   1.930  0.3306 -0.0737 -0.2840
13350TIP3    H161465   5.939   4.087   1.920  1.8813 -0.7383  0.7171
13350TIP3    H261466   5.802   4.024   1.934  0.7983  1.7768  1.8372
13351TIP3   OH261467   3.095   4.537  12.034 -0.5335  0.5242 -0.3236
13351TIP3    H161468   3.046   4.455  12.043  1.5273 -0.6885  0.2189
13351TIP3    H261469   3.132   4.552  12.122  1.6716  0.3275 -1.1826
13352TIP3   OH261470   4.850   4.361  11.681 -0.5958 -0.0238  0.1697
13352TIP3    H161471   4.937   4.397  11.664 -0.4590 -0.0396  0.8165
13352TIP3    H261472   4.864   4.296  11.750 -0.6796 -2.0543 -1.6716
13353TIP3   OH261473   2.027   6.451  11.732 -0.1525 -0.3548  0.5277
13353TIP3    H161474   2.007   6.395  11.657 -2.4635 -1.4222  1.8747
13353TIP3    H261475   2.003   6.539  11.704 -0.9988 -0.7499 -0.0116
13354TIP3   OH261476   3.331   5.269  13.581 -1.1452 -1.1767 -0.7757
13354TIP3    H161477   3.254   5.244  13.531 -3.1238 -0.4930  1.8166
13354TIP3    H261478   3.302   5.269  13.672  1.1629  1.6707  0.0621
13355TIP3   OH261479   0.480   5.845  11.355 -0.1057 -0.4718  0.1483
13355TIP3    H161480   0.569   5.875  11.334  0.6817 -1.3169  2.1574
13355TIP3    H261481   0.429   5.865  11.277  1.9838 -0.4997 -1.2734
13356TIP3   OH261482   1.295   5.197   1.380  0.2606 -0.7514  0.1644
13356TIP3    H161483   1.204   5.179   1.357  0.8756 -1.1327 -2.0455
13356TIP3    H261484   1.295   5.198   1.476 -1.8874 -1.6735  0.2128
13357TIP3   OH261485   0.038   1.934  13.655  0.2262 -0.1939 -0.5982
13357TIP3    H161486   0.049   1.871  13.725  1.9429 -2.1920 -2.5767
13357TIP3    H261487  -0.048   1.915  13.618 -0.5718  0.6993  0.7627
13358TIP3   OH261488   4.835   4.914   4.547  0.1630 -0.2993 -0.2599
13358TIP3    H161489   4.741   4.907   4.564 -0.0943  0.1761 -1.4061
13358TIP3    H261490   4.866   4.979   4.610 -0.4346  0.1479 -0.4171
13359TIP3   OH261491   5.937   4.379   4.816  0.0527  0.0853  0.0753
13359TIP3    H161492   5.846   4.375   4.788 -0.5117  0.3755  1.7893
13359TIP3    H261493   5.981   4.312   4.765 -1.5829 -1.6595  0.8947
13360TIP3   OH261494   4.935   6.378   1.973 -0.7288  0.5037 -0.2081
13360TIP3    H161495   4.925   6.453   1.915 -2.1926  0.4576 -0.0293
13360TIP3    H261496   4.922   6.413   2.061  1.7518  0.6276  0.1448
13361TIP3   OH261497   4.592   6.140   0.783  0.4145  0.1595 -0.0026
13361TIP3    H161498   4.585   6.073   0.850 -0.5148  1.2453  0.9918
13361TIP3    H261499   4.502   6.167   0.765  0.7302  0.7045 -0.8481
13362TIP3   OH261500   2.072   3.471  12.848 -0.5026  0.0223  0.1552
13362TIP3    H161501   2.160   3.496  12.819 -0.6264 -0.7593 -0.9514
13362TIP3    H261502   2.016   3.492  12.773 -1.4292  1.5074  1.2450
13363TIP3   OH261503   5.586   5.707   4.429  1.0065  0.1416 -1.0381
13363TIP3    H161504   5.495   5.685   4.449  0.6511  2.2087 -0.2952
13363TIP3    H261505   5.607   5.653   4.353 -1.2317  0.5218 -1.9884
13364TIP3   OH261506   4.570   2.156   1.782 -0.0833 -0.7066 -0.1030
13364TIP3    H161507   4.474   2.158   1.779 -0.0896  0.6330  0.4407
13364TIP3    H261508   4.593   2.220   1.850  1.2508  0.5777 -1.7071
13365TIP3   OH261509   5.096   5.528  13.648 -0.1461 -0.5352 -0.3310
13365TIP3    H161510   5.126   5.611  13.610 -0.7592 -0.2860 -0.2842
13365TIP3    H261511   5.047   5.486  13.578 -0.1221 -0.7067 -0.2475
13366TIP3   OH261512   1.054   0.008   3.812 -0.3490 -0.3776  0.5777
13366TIP3    H161513   1.056   0.018   3.717  2.1115 -1.0800  0.5120
13366TIP3    H261514   1.017  -0.079   3.826 -0.2140 -0.4873  0.2524
13367TIP3   OH261515   2.272   5.945   4.792 -0.2780  0.1376 -0.4397
13367TIP3    H161516   2.308   6.033   4.801 -0.5678  0.0360  1.8569
13367TIP3    H261517   2.347   5.887   4.803 -0.5067  0.0369  0.6684
13368TIP3   OH261518   1.278   1.416  11.378  0.1816 -0.3844  0.1894
13368TIP3    H161519   1.357   1.364  11.395 -0.2792 -1.0771  0.2279
13368TIP3    H261520   1.207   1.366  11.418 -0.1406  0.7419  1.0329
13369TIP3   OH261521   2.772   5.786   3.488 -0.2219 -0.3406 -0.3208
13369TIP3    H161522   2.723   5.818   3.413 -0.4624 -1.7958 -0.8141
13369TIP3    H261523   2.714   5.721   3.528 -0.5785  1.2376  1.8241
13370TIP3   OH261524   3.498   6.277   0.570  0.0435 -0.0404  0.1228
13370TIP3    H161525   3.587   6.245   0.554 -0.9845 -3.2290  0.2510
13370TIP3    H261526   3.455   6.272   0.485 -0.4625 -0.1710  0.3818
13371TIP3   OH261527   6.547   0.272   2.642 -0.7900 -0.0588  0.5723
13371TIP3    H161528   6.634   0.275   2.602 -0.8535 -1.0520  0.3472
13371TIP3    H261529   6.537   0.181   2.671 -1.2590  0.3493  1.7147
13372TIP3   OH261530   0.687   1.342   2.853 -0.4337 -0.4698  0.0513
13372TIP3    H161531   0.774   1.345   2.892  0.2023  0.3093 -1.3860
13372TIP3    H261532   0.637   1.409   2.900  0.5120  0.9201 -0.8788
13373TIP3   OH261533   0.567   5.636  12.272  0.0450 -0.4688  0.2999
13373TIP3    H161534   0.657   5.623  12.242 -0.0736 -1.9048  0.5103
13373TIP3    H261535   0.562   5.729  12.294  0.7916  0.1225 -1.9433
13374TIP3   OH261536   3.191   5.430  14.695 -0.2609 -0.4516  0.0284
13374TIP3    H161537   3.141   5.369  14.640 -1.9746  0.9992 -0.0512
13374TIP3    H261538   3.143   5.433  14.777 -0.2534  0.8849 -0.0077
13375TIP3   OH261539   5.738   0.587  15.859  0.6689 -0.4230  0.1074
13375TIP3    H161540   5.760   0.576  15.767  1.1983 -1.6726  0.3618
13375TIP3    H261541   5.692   0.670  15.864  1.1609 -0.0704 -1.1911
13376TIP3   OH261542   0.993   5.640  13.109 -0.0328 -0.4618 -0.0010
13376TIP3    H161543   0.915   5.632  13.165 -0.6425 -1.1664 -0.9464
13376TIP3    H261544   1.021   5.730  13.121 -1.2565 -0.0700  0.0169
13377TIP3   OH261545   5.965   6.657   1.102 -1.1439 -0.1949  0.0909
13377TIP3    H161546   6.034   6.590   1.096 -1.7447 -0.9108  1.0751
13377TIP3    H261547   5.907   6.626   1.171 -2.0642  0.7804 -0.2291
13378TIP3   OH261548   5.003   3.731  14.377  0.0428 -0.4913  0.0845
13378TIP3    H161549   5.085   3.684  14.359  0.9885  0.2725  2.2305
13378TIP3    H261550   4.951   3.718  14.297  1.9721 -1.5435 -1.0733
13379TIP3   OH261551   1.681   5.010   5.204 -0.8524 -0.3199  0.3664
13379TIP3    H161552   1.772   5.036   5.218 -0.5328 -1.8989  1.4393
13379TIP3    H261553   1.630   5.072   5.256 -0.3641  0.4100 -0.0246
13380TIP3   OH261554   6.364   6.567   2.767 -0.1670  0.0368 -0.0998
13380TIP3    H161555   6.429   6.498   2.751  0.2930  0.6992 -1.1925
13380TIP3    H261556   6.339   6.557   2.859  1.4414 -0.2698  0.3119
13381TIP3   OH261557   4.559   1.174  10.915 -0.1620 -0.1538  1.0466
13381TIP3    H161558   4.465   1.186  10.905 -0.3147 -0.5088  1.9969
13381TIP3    H261559   4.572   1.165  11.009  0.7299 -0.8169  0.8696
13382TIP3   OH261560   3.505   5.762  16.521  0.0710  0.2675 -0.5095
13382TIP3    H161561   3.537   5.698  16.584 -1.8189 -0.1086  0.0847
13382TIP3    H261562   3.545   5.736  16.438 -0.0396 -1.2057 -0.1147
13383TIP3   OH261563   1.510   4.992   4.080  0.0784  0.4173  0.4727
13383TIP3    H161564   1.535   4.921   4.139  1.4810 -0.6673 -1.3681
13383TIP3    H261565   1.586   5.050   4.080 -0.4902  1.1652  0.8458
13384TIP3   OH261566   0.997   3.515  13.699 -0.7386  0.3270 -0.0002
13384TIP3    H161567   1.018   3.462  13.622 -0.8483  2.2120 -1.3700
13384TIP3    H261568   1.005   3.605  13.669  0.8483  1.1319  2.6551
13385TIP3   OH261569   1.032   3.027   1.052  0.6511 -0.0705 -0.2257
13385TIP3    H161570   0.994   2.955   1.001  0.1839 -0.3889  0.5672
13385TIP3    H261571   0.959   3.084   1.072  1.0205  0.6099 -0.8258
13386TIP3   OH261572   5.306   6.755   6.076 -0.7602 -0.0355 -0.3864
13386TIP3    H161573   5.376   6.707   6.031 -0.7187  0.1653 -0.5399
13386TIP3    H261574   5.351   6.826   6.122 -0.4812 -1.7904  2.1597
13387TIP3   OH261575   5.154   4.813   4.899  0.4413  0.2081 -0.0116
13387TIP3    H161576   5.098   4.741   4.868 -0.8891  0.5091  1.6316
13387TIP3    H261577   5.141   4.882   4.834  1.3110 -0.8273 -1.3126
13388TIP3   OH261578   6.457   6.218   2.800  0.8178 -0.3024  0.5395
13388TIP3    H161579   6.504   6.294   2.835  0.4384  0.1738  0.0415
13388TIP3    H261580   6.408   6.183   2.875 -1.1796  1.6090  0.1835
13389TIP3   OH261581   5.963   1.186   5.039 -0.1896 -0.5092 -0.2729
13389TIP3    H161582   5.873   1.188   5.070  0.5795  1.0375  2.0091
13389TIP3    H261583   5.961   1.233   4.956 -1.2467  0.8486  0.4910
13390TIP3   OH261584   5.779   0.736  11.812  0.4939 -0.2894 -0.7381
13390TIP3    H161585   5.684   0.744  11.823  0.5474 -1.9429  1.1294
13390TIP3    H261586   5.790   0.655  11.761  0.9076 -0.1716 -0.8354
13391TIP3   OH261587   5.355   6.389   5.097  0.6773 -0.4119  0.1933
13391TIP3    H161588   5.280   6.353   5.144  0.0047  0.1476 -0.4354
13391TIP3    H261589   5.387   6.460   5.154  0.2291 -0.1261  0.0977
13392TIP3   OH261590   5.195   1.807  16.038 -0.2224 -0.3989  0.1950
13392TIP3    H161591   5.255   1.821  15.965  0.9147 -1.4306  0.9181
13392TIP3    H261592   5.135   1.739  16.008  1.0173 -1.7165  0.6636
13393TIP3   OH261593   4.100   4.520  11.843  0.0169 -0.2476 -0.1056
13393TIP3    H161594   4.007   4.542  11.851 -0.0857 -0.4609 -0.7246
13393TIP3    H261595   4.120   4.534  11.751  1.0082  1.4058  0.3446
13394TIP3   OH261596   5.777   1.014  11.020 -0.0836  0.3508  0.3046
13394TIP3    H161597   5.805   0.922  11.014 -2.5426 -0.3613 -1.1862
13394TIP3    H261598   5.843   1.055  11.076  1.2671 -2.2363  0.7399
13395TIP3   OH261599   2.563   1.251   1.497  0.3723 -0.6778  0.0352
13395TIP3    H161600   2.656   1.266   1.480  0.0776  0.7797 -0.3742
13395TIP3    H261601   2.559   1.228   1.590  1.4408 -3.7256 -0.6136
13396TIP3   OH261602   1.236   2.438  14.408 -0.0591 -0.6181  0.2679
13396TIP3    H161603   1.229   2.487  14.327  1.5578  2.5311  1.9253
13396TIP3    H261604   1.150   2.449  14.450 -0.5492 -1.3658 -0.5520
13397TIP3   OH261605   3.106   3.883   4.697 -0.2739  0.5322 -0.2283
13397TIP3    H161606   3.113   3.931   4.779  0.5037  0.1278 -0.0550
13397TIP3    H261607   3.013   3.885   4.676 -0.5023  0.4534  0.7693
13398TIP3   OH261608   3.864   5.492  11.557 -0.5373 -0.4847 -0.0916
13398TIP3    H161609   3.858   5.405  11.598 -0.5608 -0.5992 -0.3382
13398TIP3    H261610   3.785   5.498  11.503 -0.7382 -0.1476  0.2399
13399TIP3   OH261611   4.926   6.589  12.548  0.5409 -0.0392  0.4286
13399TIP3    H161612   4.950   6.679  12.570 -0.4724  0.1184  0.9346
13399TIP3    H261613   4.909   6.590  12.454 -0.0786  0.4404  0.5453
13400TIP3   OH261614   1.376   6.746   1.262  0.0238  0.2284  0.0217
13400TIP3    H161615   1.400   6.730   1.170 -0.9106 -0.9022 -0.0328
13400TIP3    H261616   1.436   6.690   1.312  0.1199  0.3755  0.0710
13401TIP3   OH261617   3.228   0.604  14.555  0.1569 -0.3029  0.0122
13401TIP3    H161618   3.287   0.674  14.584  0.0143 -0.0372 -0.3303
13401TIP3    H261619   3.286   0.535  14.525  0.3173 -0.9103  1.6736
13402TIP3   OH261620   2.207   3.454  16.770 -0.0217 -0.0352  0.1727
13402TIP3    H161621   2.264   3.531  16.762  1.5663 -1.1306  0.6798
13402TIP3    H261622   2.125   3.481  16.729  1.1735  1.2717 -1.4427
13403TIP3   OH261623   2.810   5.786  13.354 -0.0555 -0.0846  0.2151
13403TIP3    H161624   2.801   5.869  13.307  0.2240 -0.6067 -0.7748
13403TIP3    H261625   2.756   5.796  13.432  0.7709  1.4043  0.6160
13404TIP3   OH261626   2.507   6.546  11.814 -0.3014  0.2780 -0.3525
13404TIP3    H161627   2.550   6.631  11.803  0.4770 -0.0692 -0.0431
13404TIP3    H261628   2.430   6.565  11.867  0.1203  0.7274  0.1082
13405TIP3   OH261629   2.158   1.030   1.818 -0.2973 -0.0835 -0.0303
13405TIP3    H161630   2.208   0.970   1.873 -0.9112 -1.4852 -0.9474
13405TIP3    H261631   2.119   1.092   1.879  0.4382 -0.5549  0.9389
13406TIP3   OH261632   1.746   4.753  16.043 -0.1644  0.0438 -0.1243
13406TIP3    H161633   1.796   4.710  15.973 -1.3062  0.8420 -1.4477
13406TIP3    H261634   1.685   4.686  16.074 -1.4114  0.4416 -1.6583
13407TIP3   OH261635   2.942   1.022   0.918  0.6219 -0.3634  0.7498
13407TIP3    H161636   2.891   1.013   0.998  1.7008  1.6102  1.6874
13407TIP3    H261637   3.033   1.024   0.947  1.0803 -0.6510 -0.6188
13408TIP3   OH261638   0.673   2.559   2.315 -0.3669 -0.5633  0.3436
13408TIP3    H161639   0.657   2.480   2.368 -0.2075 -1.2699 -0.6467
13408TIP3    H261640   0.730   2.529   2.244  1.4425  0.9070  1.1298
13409TIP3   OH261641   2.992   0.261   1.545  0.7460  0.0878 -0.0737
13409TIP3    H161642   2.981   0.180   1.495  1.0674  0.7568 -1.2446
13409TIP3    H261643   2.998   0.233   1.636 -0.6221 -1.0921 -0.3349
13410TIP3   OH261644   2.935   2.088   2.267  0.6904 -0.1122 -0.0457
13410TIP3    H161645   2.921   2.180   2.245  1.1505  0.6009  2.4297
13410TIP3    H261646   2.870   2.070   2.335  0.5969 -1.6278 -0.5307
13411TIP3   OH261647   2.922   1.337  11.373 -0.5468 -0.2966  0.1685
13411TIP3    H161648   2.916   1.419  11.324  1.0247 -0.0883  0.2734
13411TIP3    H261649   3.016   1.319  11.375 -0.8002 -1.5006  1.1425
13412TIP3   OH261650   4.294   0.513   1.360  0.5699  0.8375  0.1184
13412TIP3    H161651   4.347   0.588   1.388  0.8806  0.6251  0.1034
13412TIP3    H261652   4.315   0.502   1.268  0.5111  0.7403  0.1162
13413TIP3   OH261653   5.907   4.530  12.380 -0.2022  0.4882  0.0560
13413TIP3    H161654   5.969   4.602  12.394  1.4898 -0.9053 -0.1103
13413TIP3    H261655   5.896   4.491  12.467  3.1680 -2.4150 -0.6666
13414TIP3   OH261656   5.093   1.213   1.610 -0.2122 -0.0837 -0.3316
13414TIP3    H161657   5.185   1.225   1.588 -0.2557 -2.2925 -1.9470
13414TIP3    H261658   5.050   1.295   1.585  1.3483  1.1201  0.8443
13415TIP3   OH261659   4.333   2.278  12.155  0.4736  0.0700 -0.3224
13415TIP3    H161660   4.399   2.273  12.085  1.0943 -0.7859  0.3068
13415TIP3    H261661   4.255   2.238  12.117  0.4082  0.7872 -0.9625
13416TIP3   OH261662   6.109   4.985   2.397 -0.5640 -0.0060 -0.8506
13416TIP3    H161663   6.096   4.917   2.463 -1.1571  2.3375  1.5222
13416TIP3    H261664   6.190   4.960   2.352 -0.2234 -1.7280  0.6651
13417TIP3   OH261665   2.431   5.461  13.597 -0.4080  0.0196  0.2071
13417TIP3    H161666   2.525   5.468  13.583 -0.6152  1.5112 -0.5222
13417TIP3    H261667   2.414   5.367  13.601  1.0096 -0.2658 -0.3352
13418TIP3   OH261668   1.988   0.216   2.721  0.8828  0.4475  0.2515
13418TIP3    H161669   1.946   0.157   2.659  0.1328  1.4221 -0.1908
13418TIP3    H261670   2.068   0.171   2.747 -0.1665 -1.2103  0.7108
13419TIP3   OH261671   6.221   4.815  15.099  0.0766 -0.0537  0.3356
13419TIP3    H161672   6.315   4.817  15.117  0.0096  0.6508  0.6276
13419TIP3    H261673   6.211   4.752  15.028  0.7455 -0.2980  0.4587
13420TIP3   OH261674   1.553   3.625   3.481 -0.1004  0.7421  0.5071
13420TIP3    H161675   1.604   3.552   3.448 -1.1370  0.0027  0.5123
13420TIP3    H261676   1.462   3.600   3.464 -0.5062  1.6047  1.3662
13421TIP3   OH261677   5.487   5.830  12.428  0.3229  0.5332  0.0691
13421TIP3    H161678   5.448   5.766  12.368  2.2922 -1.7922  1.1761
13421TIP3    H261679   5.571   5.851  12.388  1.1654 -0.1956  1.4424
13422TIP3   OH261680   4.024   4.256   2.894 -0.2389  0.9587  0.2723
13422TIP3    H161681   4.109   4.247   2.851 -0.9429  0.7073 -1.1114
13422TIP3    H261682   4.022   4.186   2.958  0.1542  0.2466 -0.4824
13423TIP3   OH261683   5.721   0.573  12.298  0.7106  0.2380  0.3352
13423TIP3    H161684   5.723   0.553  12.392 -1.1160 -0.1146  0.3160
13423TIP3    H261685   5.812   0.568  12.271  1.1287 -0.8284  1.8539
13424TIP3   OH261686   1.884   2.372   0.342 -0.6094 -0.3711 -0.1201
13424TIP3    H161687   1.973   2.367   0.377 -1.0959 -2.2286  0.9223
13424TIP3    H261688   1.830   2.391   0.419 -1.0651  1.5186 -0.8653
13425TIP3   OH261689   0.577   0.148   4.454 -0.4949  0.1150 -0.5173
13425TIP3    H161690   0.590   0.173   4.546  0.9042 -0.5281 -0.5264
13425TIP3    H261691   0.540   0.226   4.413 -0.9561  0.4689  0.5513
13426TIP3   OH261692   3.846   4.090   1.556 -0.0608 -0.9038  0.9259
13426TIP3    H161693   3.818   4.057   1.471  0.9564 -0.6450  0.4856
13426TIP3    H261694   3.864   4.012   1.608 -0.8143 -1.0621  0.9555
13427TIP3   OH261695   0.274   0.340  11.248  0.3167 -0.3187 -0.0060
13427TIP3    H161696   0.339   0.404  11.277  0.7199 -0.8564  0.2675
13427TIP3    H261697   0.306   0.308  11.164 -0.2857  0.4143 -0.5218
13428TIP3   OH261698   3.127   3.805  13.717 -0.3615  0.1062  0.3363
13428TIP3    H161699   3.148   3.733  13.657  2.0909 -0.4242  1.7686
13428TIP3    H261700   3.109   3.762  13.801 -0.0060  1.0658  0.9172
13429TIP3   OH261701   3.896   1.109   0.236  0.3007  0.3276 -0.5070
13429TIP3    H161702   3.839   1.092   0.311 -0.4769 -0.8890 -1.3484
13429TIP3    H261703   3.984   1.086   0.266 -0.0416 -0.3768 -0.0502
13430TIP3   OH261704   1.175   4.452   4.551 -0.0557  0.7092  0.1792
13430TIP3    H161705   1.175   4.360   4.526  1.3862  1.0992 -1.3777
13430TIP3    H261706   1.127   4.455   4.634 -1.0484 -1.2793 -0.2941
13431TIP3   OH261707   2.084   2.343   2.314 -0.5580  0.7185 -0.1479
13431TIP3    H161708   2.179   2.332   2.320 -0.5258  0.6463 -0.7308
13431TIP3    H261709   2.072   2.417   2.254 -0.8590  1.0598  0.3327
13432TIP3   OH261710   3.693   3.196   0.119  0.6359 -0.1282 -0.1748
13432TIP3    H161711   3.601   3.182   0.096  0.9154 -2.0035 -0.2395
13432TIP3    H261712   3.717   3.278   0.076 -0.2462 -1.0481 -2.4688
13433TIP3   OH261713   3.819   0.980   2.713 -0.4992  0.3536  0.0291
13433TIP3    H161714   3.790   1.019   2.795 -0.8099  0.9294 -0.3518
13433TIP3    H261715   3.752   1.006   2.649 -0.4706 -0.4218 -0.3220
13434TIP3   OH261716   5.873   3.096  17.029  0.3396  0.4273  0.6433
13434TIP3    H161717   5.849   3.135  16.945  0.3948  0.9411  0.8711
13434TIP3    H261718   5.793   3.052  17.058  0.1334  0.7927  0.6321
13435TIP3   OH261719   1.120   2.184   1.748 -0.1474 -0.5643  0.1505
13435TIP3    H161720   1.113   2.279   1.742  1.6899 -0.4966 -1.5703
13435TIP3    H261721   1.082   2.162   1.832  1.5066  1.9595  1.6255
13436TIP3   OH261722   6.665   0.429  13.359  0.2199  0.1015  0.5889
13436TIP3    H161723   6.748   0.402  13.397 -0.5308  0.4506  2.5752
13436TIP3    H261724   6.599   0.392  13.419 -0.9704  1.5490  0.1962
13437TIP3   OH261725   6.018   0.964   0.169  0.5583  0.6981  0.3404
13437TIP3    H161726   5.933   0.941   0.206  0.7881 -0.5191  0.1307
13437TIP3    H261727   6.068   0.999   0.243  0.1742  0.5893  0.6534
13438TIP3   OH261728   6.011   6.220  15.679 -0.0408  0.2744 -0.0986
13438TIP3    H161729   5.932   6.198  15.631 -0.6382  3.9096 -0.9327
13438TIP3    H261730   5.996   6.188  15.767 -1.7594 -0.5004 -0.6646
13439TIP3   OH261731   4.152   0.732  13.147  0.5125 -0.1046  0.4876
13439TIP3    H161732   4.214   0.804  13.135  1.5023 -1.1894 -1.1129
13439TIP3    H261733   4.143   0.693  13.060 -0.1638 -1.7948  1.2911
13440TIP3   OH261734   3.605   0.765   1.977 -0.0160 -0.4666 -0.1471
13440TIP3    H161735   3.669   0.799   2.040 -0.6863  0.0434  0.2745
13440TIP3    H261736   3.622   0.671   1.974  0.5653 -0.3761  0.1739
13441TIP3   OH261737   4.398   6.155  13.484  0.3748 -0.6280 -0.4006
13441TIP3    H161738   4.360   6.067  13.480  1.6462 -1.1344 -1.8963
13441TIP3    H261739   4.324   6.213  13.467 -0.6265 -1.3517  1.3569
13442TIP3   OH261740   0.821   2.898   2.450 -0.0775 -0.3698  0.0511
13442TIP3    H161741   0.879   2.949   2.394 -0.5158  0.8187  0.6555
13442TIP3    H261742   0.855   2.913   2.539 -1.3474  0.4148  0.4192
13443TIP3   OH261743   4.618   6.770  16.878 -0.2295  0.3105 -0.0486
13443TIP3    H161744   4.569   6.721  16.945  1.2687  0.6584  1.3139
13443TIP3    H261745   4.552   6.824  16.835 -0.9546  1.3402  2.2799
13444TIP3   OH261746   3.987   3.861   1.654 -0.0168  0.2133 -0.2883
13444TIP3    H161747   4.066   3.910   1.631  0.3718 -0.3869 -0.2309
13444TIP3    H261748   3.981   3.871   1.749  0.6905 -0.7898 -0.1327
13445TIP3   OH261749   0.038   3.922   3.463 -0.4849  0.1711 -0.2049
13445TIP3    H161750   0.060   4.015   3.459 -0.2357  0.0544 -2.5286
13445TIP3    H261751  -0.056   3.919   3.450 -0.1735 -0.0035 -2.7084
13446TIP3   OH261752   1.017   1.333   1.234  0.0405 -0.0952 -1.0763
13446TIP3    H161753   1.088   1.300   1.178  0.1026 -0.9783 -0.4979
13446TIP3    H261754   0.947   1.356   1.173  0.6448  0.3174 -1.6187
13447TIP3   OH261755   5.788   5.425   0.335  0.2814 -0.0892  0.3145
13447TIP3    H161756   5.768   5.433   0.428 -0.7283  0.6010  0.0414
13447TIP3    H261757   5.863   5.365   0.332 -0.7495 -1.4741  1.4616
13448TIP3   OH261758   2.782   5.490  16.258 -0.2375 -0.0585 -0.2782
13448TIP3    H161759   2.688   5.497  16.271 -0.1754  0.0154  0.1399
13448TIP3    H261760   2.814   5.445  16.336 -0.0023 -0.6382 -0.7039
13449TIP3   OH261761   0.555   5.923  12.316 -0.0205 -0.0538 -0.1752
13449TIP3    H161762   0.493   5.977  12.364  0.4307 -0.8048  1.2859
13449TIP3    H261763   0.601   5.984  12.259 -0.0532  0.9991  0.8950
13450TIP3   OH261764   5.138   4.952   1.443  0.1123  0.0892 -0.1474
13450TIP3    H161765   5.098   5.004   1.374 -1.1516  0.3902  0.7957
13450TIP3    H261766   5.226   4.934   1.411  0.5346  2.6787 -0.5403
13451TIP3   OH261767   2.721   5.659  14.545 -0.0072  0.2088  0.4527
13451TIP3    H161768   2.733   5.568  14.516  1.7735  0.1347  1.3662
13451TIP3    H261769   2.626   5.670  14.549 -0.2692 -0.8652 -1.9481
13452TIP3   OH261770   1.462   0.630   0.755  0.5433 -0.5420  0.0695
13452TIP3    H161771   1.524   0.637   0.682  0.7656 -1.3690  0.1735
13452TIP3    H261772   1.378   0.608   0.714  0.0859  1.5204 -0.1597
13453TIP3   OH261773   0.808   6.465  15.276  0.0125  0.2996 -0.1055
13453TIP3    H161774   0.736   6.463  15.339 -0.1689 -0.5182 -0.3328
13453TIP3    H261775   0.856   6.545  15.296 -0.4224  0.3678  0.6522
13454TIP3   OH261776   2.952   0.535  12.374 -0.0200  0.0761  0.4723
13454TIP3    H161777   2.858   0.544  12.390 -0.3592 -0.5867 -1.0642
13454TIP3    H261778   2.978   0.459  12.427 -0.4016  0.0980  0.6931
13455TIP3   OH261779   2.891   3.549   3.168  0.0137  0.5126  0.0436
13455TIP3    H161780   2.844   3.511   3.243  1.1328  1.1061  1.0623
13455TIP3    H261781   2.830   3.538   3.095 -0.7214 -0.9352  0.8284
13456TIP3   OH261782   3.474   3.508  13.280 -0.3284  0.3638 -0.5104
13456TIP3    H161783   3.435   3.421  13.276 -4.6362  2.2379 -1.5931
13456TIP3    H261784   3.540   3.508  13.211 -1.4440 -1.5165 -1.6150
13457TIP3   OH261785   1.953   4.452   4.126  0.0996  0.1156  0.3484
13457TIP3    H161786   1.880   4.512   4.111 -0.5132 -0.0759  2.3765
13457TIP3    H261787   1.970   4.412   4.041  0.3438  2.9492 -0.9966
13458TIP3   OH261788   3.443   4.731  11.766  0.6308 -0.8989 -0.8808
13458TIP3    H161789   3.489   4.697  11.689  0.4833 -1.3364 -0.7750
13458TIP3    H261790   3.376   4.666  11.785  0.6611 -0.7852 -0.3867
13459TIP3   OH261791   4.335   0.840  10.913  0.3442 -0.7426 -0.0330
13459TIP3    H161792   4.295   0.782  10.979  0.8916 -1.1229 -0.0374
13459TIP3    H261793   4.364   0.781  10.844  0.6732 -0.4335 -0.1568
13460TIP3   OH261794   4.031   2.125   1.832 -0.0876  0.1324 -0.1095
13460TIP3    H161795   3.946   2.091   1.861  0.6309 -1.1994  0.5013
13460TIP3    H261796   4.049   2.197   1.893  0.5081 -1.4004  1.5758
13461TIP3   OH261797   6.701   3.550  13.069 -0.0887  0.2682 -0.0740
13461TIP3    H161798   6.782   3.552  13.017 -0.6375 -0.1190 -0.9677
13461TIP3    H261799   6.657   3.632  13.047  0.2093  0.6375  0.6739
13462TIP3   OH261800   1.736   3.874   1.782 -0.0320 -0.2273 -0.6629
13462TIP3    H161801   1.812   3.851   1.729  0.0728 -0.5283 -0.3886
13462TIP3    H261802   1.708   3.790   1.820 -2.2350 -0.5965 -3.0086
13463TIP3   OH261803   0.073   3.634  15.081  0.0401 -0.1555 -0.2172
13463TIP3    H161804   0.156   3.598  15.051 -0.2490 -0.7404 -0.3180
13463TIP3    H261805   0.059   3.711  15.026  0.3471 -0.2550 -0.4358
13464TIP3   OH261806   4.852   5.635  16.718 -0.7670 -0.3068  0.1102
13464TIP3    H161807   4.788   5.702  16.694  0.9286  2.1876  2.3064
13464TIP3    H261808   4.913   5.632  16.644 -0.0371  1.6735  0.5948
13465TIP3   OH261809   4.652   0.931  16.423  0.0378 -0.3828 -0.0111
13465TIP3    H161810   4.563   0.921  16.390 -0.5366 -0.2190  1.4318
13465TIP3    H261811   4.641   0.942  16.518  1.5724 -0.1210  0.1505
13466TIP3   OH261812   2.363   6.478   2.698  0.4087 -0.0081  0.0525
13466TIP3    H161813   2.365   6.411   2.630  2.1483 -0.4623  0.5410
13466TIP3    H261814   2.371   6.429   2.780 -0.5973  0.6234  0.5450
13467TIP3   OH261815   0.975   2.620  16.769 -0.4615 -0.3280 -0.0703
13467TIP3    H161816   0.940   2.703  16.738 -0.1946 -0.0741  0.3028
13467TIP3    H261817   0.906   2.583  16.823  0.2759  0.7356  1.6535
13468TIP3   OH261818   2.316   6.319   1.160 -0.6413  0.3310  0.0431
13468TIP3    H161819   2.313   6.409   1.195 -0.5766  1.0560 -1.7866
13468TIP3    H261820   2.320   6.330   1.065  1.3835 -1.5682 -0.1273
13469TIP3   OH261821   5.303   3.452  12.566 -0.0936  0.4550 -0.3801
13469TIP3    H161822   5.234   3.424  12.625  0.6544  0.6777  0.6054
13469TIP3    H261823   5.315   3.545  12.585 -0.2898  0.6857 -1.3310
13470TIP3   OH261824   4.389   2.674  12.584  0.0578  0.7488  0.0019
13470TIP3    H161825   4.408   2.748  12.642  0.3734 -0.3249  1.2901
13470TIP3    H261826   4.333   2.711  12.516 -1.1410  1.8344  1.5407
13471TIP3   OH261827   5.119   1.100  14.464  0.1643  0.3002 -0.3296
13471TIP3    H161828   5.190   1.152  14.426  1.1036  0.2464  1.3043
13471TIP3    H261829   5.136   1.102  14.559 -0.8909 -1.3591 -0.0944
13472TIP3   OH261830   1.837   5.618   3.498  0.0760  0.1854  0.2129
13472TIP3    H161831   1.788   5.546   3.457  2.8084 -1.1268 -0.8517
13472TIP3    H261832   1.798   5.626   3.585 -1.8107 -1.0177 -0.4755
13473TIP3   OH261833   0.175   5.685  11.400  0.1847  0.0715 -0.1204
13473TIP3    H161834   0.120   5.635  11.340  0.8514  0.1184 -0.7702
13473TIP3    H261835   0.263   5.648  11.389  0.9815  2.3279 -1.6592
13474TIP3   OH261836   0.835   1.002  15.223 -0.2692 -0.2150 -0.8238
13474TIP3    H161837   0.928   0.978  15.217 -0.1471  0.7662 -3.7976
13474TIP3    H261838   0.835   1.098  15.217 -1.4641 -0.1601 -0.1484
13475TIP3   OH261839   4.966   3.977   0.480  0.4531 -0.0737  0.2566
13475TIP3    H161840   5.050   3.953   0.440  0.5276 -2.3661  1.6503
13475TIP3    H261841   4.921   3.893   0.492 -2.0836  1.1318 -0.5327
13476TIP3   OH261842   0.955   1.364   5.433 -0.2034  0.3985  0.0998
13476TIP3    H161843   0.975   1.283   5.480  3.0940  1.1588  0.1532
13476TIP3    H261844   0.907   1.336   5.355  0.1199 -1.5169  0.5620
13477TIP3   OH261845   5.129   0.026  12.906 -0.2291  0.2258  0.3654
13477TIP3    H161846   5.107  -0.063  12.932  1.0464  0.5990  2.8774
13477TIP3    H261847   5.142   0.021  12.811  1.7629 -2.6833  0.7422
13478TIP3   OH261848   4.636   3.299   5.873  0.0243 -0.1670  0.1976
13478TIP3    H161849   4.729   3.282   5.889  0.0382 -0.8767 -0.5810
13478TIP3    H261850   4.626   3.393   5.887  0.9955  0.0241 -0.3404
13479TIP3   OH261851   3.844   4.510   2.027  0.2753 -0.3101  0.1180
13479TIP3    H161852   3.795   4.487   2.106 -1.9907  2.1460 -0.5059
13479TIP3    H261853   3.844   4.605   2.025  1.2059 -0.3240 -2.2799
13480TIP3   OH261854   3.337   3.123  10.996  0.2616 -0.0673 -0.2400
13480TIP3    H161855   3.313   3.048  10.942 -0.8351 -0.0824  0.2666
13480TIP3    H261856   3.311   3.199  10.944  0.3289 -0.0525 -0.2522
13481TIP3   OH261857   0.556   5.961  13.831  0.3401  0.1081 -0.6483
13481TIP3    H161858   0.480   5.910  13.802  1.1027 -0.4333 -1.7163
13481TIP3    H261859   0.569   6.026  13.762  0.3570  0.7189 -0.0748
13482TIP3   OH261860   1.895   6.475  16.755 -0.0757  0.0998 -0.4213
13482TIP3    H161861   1.813   6.499  16.800  0.3276  3.0145 -1.1047
13482TIP3    H261862   1.869   6.406  16.694 -1.5080 -0.8055  1.1643
13483TIP3   OH261863   1.793   5.186   5.425  0.2642  0.2964  0.0526
13483TIP3    H161864   1.852   5.207   5.352  2.2498  0.1796  1.5954
13483TIP3    H261865   1.851   5.168   5.499 -1.6685 -1.1871  1.2698
13484TIP3   OH261866   4.754   0.890  11.458 -0.3667 -0.4763  0.1741
13484TIP3    H161867   4.838   0.858  11.425  0.5325  0.3989  1.5886
13484TIP3    H261868   4.773   0.977  11.494 -1.7718 -0.4622  0.9289
13485TIP3   OH261869   2.562   3.857   2.817 -0.4644  0.1377 -0.0056
13485TIP3    H161870   2.501   3.868   2.744  0.9090  1.0014 -1.0590
13485TIP3    H261871   2.583   3.764   2.817 -2.3555 -0.3294  0.8719
13486TIP3   OH261872   4.452   5.900  13.192  0.8019 -0.2151  0.3508
13486TIP3    H161873   4.526   5.961  13.184 -0.0414  0.8295  0.5166
13486TIP3    H261874   4.386   5.935  13.132  0.8306 -1.7322 -0.5772
13487TIP3   OH261875   0.958   4.584  16.950 -0.0686 -0.2753  0.3138
13487TIP3    H161876   0.961   4.488  16.957  0.6575 -0.2744  0.0169
13487TIP3    H261877   0.915   4.600  16.866 -1.6640 -0.3275  1.1039
13488TIP3   OH261878   5.177   4.971   0.959 -0.6690 -0.4801  0.1760
13488TIP3    H161879   5.102   4.980   1.017 -1.9201  0.8274 -1.5982
13488TIP3    H261880   5.228   5.050   0.973  0.0518 -1.0505  0.8696
13489TIP3   OH261881   4.122   3.489   6.361 -0.1389 -0.3774 -0.2025
13489TIP3    H161882   4.188   3.427   6.330  0.0147 -0.3237  0.0114
13489TIP3    H261883   4.066   3.505   6.285  0.6443  0.2898 -0.6453
13490TIP3   OH261884   0.907   4.334  13.901  0.4352 -0.0819 -0.4043
13490TIP3    H161885   0.956   4.252  13.896  0.7643  0.1572 -1.0856
13490TIP3    H261886   0.817   4.310  13.878  0.6207 -0.1737 -1.0416
13491TIP3   OH261887   6.344   6.024   2.176 -1.1168  0.7391 -0.1077
13491TIP3    H161888   6.390   5.959   2.228 -0.8159  1.0592  0.0233
13491TIP3    H261889   6.408   6.055   2.112 -1.1946  1.0610 -0.0346
13492TIP3   OH261890   2.941   1.138   4.081  0.5025 -0.1739 -0.3791
13492TIP3    H161891   2.905   1.083   4.150  2.8103  1.0500  1.8586
13492TIP3    H261892   2.914   1.227   4.103  1.0713  0.2098 -1.1714
13493TIP3   OH261893   6.690   0.924  11.193 -0.2061  0.1130 -0.5962
13493TIP3    H161894   6.742   0.898  11.117  1.2639 -0.3957  0.5651
13493TIP3    H261895   6.741   0.894  11.268 -2.5429 -1.0647  0.5635
13494TIP3   OH261896   5.289   5.206  10.330 -0.0918  0.4308  0.8877
13494TIP3    H161897   5.350   5.172  10.397 -1.3053  0.0400  1.8142
13494TIP3    H261898   5.255   5.287  10.368  0.1882  0.8954  0.1637
13495TIP3   OH261899   5.724   6.537  12.538  0.4238  0.6342 -0.3540
13495TIP3    H161900   5.693   6.508  12.452 -1.4000  0.3123  0.3995
13495TIP3    H261901   5.700   6.630  12.542  1.4751  0.9322 -0.5988
13496TIP3   OH261902   5.140   4.302   4.746 -0.1582  0.4935 -0.0899
13496TIP3    H161903   5.153   4.237   4.677 -0.6389  0.8783 -0.5458
13496TIP3    H261904   5.125   4.250   4.825 -0.4452  0.0456 -0.4358
13497TIP3   OH261905   0.532   3.249  15.134 -0.2724 -0.6806 -0.4870
13497TIP3    H161906   0.439   3.231  15.119 -0.2450 -1.1824 -0.0818
13497TIP3    H261907   0.572   3.241  15.048 -0.8280  0.9433 -0.9059
13498TIP3   OH261908   6.203   0.160  16.614 -0.4107 -0.3633 -0.4942
13498TIP3    H161909   6.202   0.074  16.657  1.9657 -0.4167 -0.4925
13498TIP3    H261910   6.294   0.190  16.622 -1.3224  2.4049 -0.0481
13499TIP3   OH261911   4.095   2.673   6.635  0.3458  0.4300  0.1845
13499TIP3    H161912   4.058   2.642   6.552 -1.7275  1.7334  0.5924
13499TIP3    H261913   4.143   2.598   6.669 -0.2076 -0.6594 -1.3641
13500TIP3   OH261914   2.592   1.784  16.915  0.8913  0.4029 -0.0867
13500TIP3    H161915   2.593   1.700  16.961  0.4147 -0.2467 -1.2523
13500TIP3    H261916   2.539   1.769  16.838  0.4198  1.9139 -0.0791
13501TIP3   OH261917   4.159   5.879  12.735  0.1725 -0.0151  0.1647
13501TIP3    H161918   4.239   5.908  12.690 -0.5647  1.1158 -0.4275
13501TIP3    H261919   4.154   5.785  12.718  0.2506  0.2859 -1.5622
13502TIP3   OH261920   6.163   4.974  16.414 -0.1217 -0.3297 -0.2348
13502TIP3    H161921   6.085   4.920  16.399 -0.2953 -0.3973  0.8423
13502TIP3    H261922   6.134   5.063  16.396  0.0732 -0.5448 -1.6798
13503TIP3   OH261923   5.367   0.112  13.076  0.1573  0.1080  0.3439
13503TIP3    H161924   5.432   0.058  13.121  3.0174  2.5005 -0.7118
13503TIP3    H261925   5.302   0.050  13.043  2.7100 -2.5580  0.1395
13504TIP3   OH261926   1.696   0.575   2.121 -0.0614 -0.2469 -0.9447
13504TIP3    H161927   1.647   0.611   2.047 -1.3257 -1.6809 -0.8267
13504TIP3    H261928   1.788   0.583   2.095 -0.2046  3.8679 -0.5440
13505TIP3   OH261929   5.484   5.156  13.381 -0.3028  0.2381  0.0895
13505TIP3    H161930   5.423   5.222  13.414  0.0529  0.4909  0.2453
13505TIP3    H261931   5.570   5.185  13.414  0.4372  1.8376 -3.0752
13506TIP3   OH261932   0.690   0.019  15.813  0.3152 -0.5817 -0.4040
13506TIP3    H161933   0.756   0.083  15.842 -2.0373  1.2804  1.0276
13506TIP3    H261934   0.661  -0.024  15.893 -0.0045 -1.6109 -1.0653
13507TIP3   OH261935   4.681   2.262  16.222  0.7321  0.4154  0.0072
13507TIP3    H161936   4.739   2.205  16.171 -0.1101  0.4214 -0.9703
13507TIP3    H261937   4.657   2.209  16.298 -1.5285 -1.2577 -1.8108
13508TIP3   OH261938   0.814   3.536  12.943  0.1248 -0.1809 -0.2487
13508TIP3    H161939   0.864   3.486  12.879 -0.4531 -0.7100 -0.2913
13508TIP3    H261940   0.740   3.479  12.966 -0.2574  0.4413  0.0826
13509TIP3   OH261941   6.352   1.126  15.235 -0.1881  0.2228  0.3831
13509TIP3    H161942   6.370   1.146  15.327  1.7056  0.6696 -0.0496
13509TIP3    H261943   6.271   1.172  15.215 -0.4716  0.3279  1.7642
13510TIP3   OH261944   5.169   6.216   3.474  0.2740  0.7204  0.3891
13510TIP3    H161945   5.148   6.247   3.562 -1.5490  0.6620 -0.0086
13510TIP3    H261946   5.263   6.231   3.466  0.3440  1.3796  2.0811
13511TIP3   OH261947   5.027   6.251   5.909 -0.7199  0.6371  0.1489
13511TIP3    H161948   5.088   6.322   5.890  0.3351 -0.3699 -0.3176
13511TIP3    H261949   5.076   6.191   5.966 -1.6596  0.3719  0.7026
13512TIP3   OH261950   2.745   4.261  14.626  0.0620  0.0408 -0.2533
13512TIP3    H161951   2.750   4.323  14.553  0.3517  0.9279  0.5055
13512TIP3    H261952   2.774   4.312  14.702 -1.6001 -0.4655  0.7301
13513TIP3   OH261953   0.336   3.483  16.416 -0.2482  0.1855 -0.4089
13513TIP3    H161954   0.299   3.400  16.447  0.7205  0.0876  0.4950
13513TIP3    H261955   0.424   3.486  16.453  0.6750  0.4173 -2.5146
13514TIP3   OH261956   1.467   0.109   3.342  0.3071  0.1193  0.3093
13514TIP3    H161957   1.506   0.183   3.388 -0.9384  1.9647 -1.5651
13514TIP3    H261958   1.436   0.145   3.259 -0.4190 -2.4760 -0.5968
13515TIP3   OH261959   2.742   5.668  11.904  0.3987  0.1400  0.2429
13515TIP3    H161960   2.650   5.647  11.888  0.1027  1.8786 -0.4784
13515TIP3    H261961   2.790   5.615  11.841 -0.3365  1.7167 -1.6836
13516TIP3   OH261962   2.648   1.603  11.629  0.3727  0.3001 -0.0080
13516TIP3    H161963   2.569   1.551  11.639 -0.9810  2.0036 -1.4413
13516TIP3    H261964   2.720   1.541  11.644 -1.2189 -1.1586  1.7617
13517TIP3   OH261965   5.843   2.378  14.635  0.1767  0.5525  0.1005
13517TIP3    H161966   5.775   2.398  14.571  1.5826  1.8047 -1.0497
13517TIP3    H261967   5.865   2.462  14.675  1.2310  0.2155  0.2666
13518TIP3   OH261968   1.240   5.185  13.967 -0.2822 -0.0172  0.9480
13518TIP3    H161969   1.219   5.251  14.033 -0.4190 -0.1804  1.0697
13518TIP3    H261970   1.278   5.234  13.895 -0.4629  0.2044  1.0037
13519TIP3   OH261971   6.756   2.803   5.507  0.2758  0.3565 -0.3342
13519TIP3    H161972   6.692   2.759   5.451 -0.1889  1.1805 -0.4466
13519TIP3    H261973   6.732   2.776   5.596  0.2340  0.0644 -0.4319
13520TIP3   OH261974   0.746   2.408  10.710 -0.2157 -0.1170  0.5027
13520TIP3    H161975   0.737   2.500  10.686 -0.0570  0.1821  1.5364
13520TIP3    H261976   0.828   2.380  10.670 -0.0906  0.2953  0.4687
13521TIP3   OH261977   0.731   0.241  10.508  0.3206  0.4814 -0.1366
13521TIP3    H161978   0.763   0.324  10.473 -1.8382  1.6580  0.6264
13521TIP3    H261979   0.680   0.202  10.437  1.3024 -0.2051 -0.4828
13522TIP3   OH261980   0.069   5.161  12.553 -0.2500 -0.3121  0.4859
13522TIP3    H161981   0.113   5.076  12.554  0.5197  0.0874  2.0555
13522TIP3    H261982  -0.024   5.140  12.546 -0.0839 -1.3062  1.1992
13523TIP3   OH261983   2.917   4.340  12.111  0.2893 -0.0522  0.0986
13523TIP3    H161984   2.864   4.286  12.170  1.9609 -0.2904  1.4140
13523TIP3    H261985   2.919   4.291  12.029 -2.3292  0.4341 -0.3099
13524TIP3   OH261986   3.519   6.626  15.948  0.2321 -0.0528  0.2369
13524TIP3    H161987   3.459   6.611  16.021 -0.1178  1.1302  0.2116
13524TIP3    H261988   3.481   6.700  15.901  0.8224 -0.3698 -0.7534
13525TIP3   OH261989   5.143   3.305  11.924 -0.3942 -0.1672 -0.2623
13525TIP3    H161990   5.209   3.349  11.871  0.1671 -1.2395 -0.4588
13525TIP3    H261991   5.102   3.375  11.974 -0.1941  0.7170 -1.3077
13526TIP3   OH261992   3.250   2.032   6.412  0.3553  0.1568  0.4633
13526TIP3    H161993   3.229   2.122   6.436 -0.0769 -0.3170  1.9114
13526TIP3    H261994   3.223   1.980   6.487 -2.3797 -1.5785 -1.6296
13527TIP3   OH261995   3.802   0.359   2.101 -0.2080 -0.1670  0.0755
13527TIP3    H161996   3.841   0.433   2.147  0.1038 -1.2563  1.5884
13527TIP3    H261997   3.759   0.308   2.170 -0.8925 -1.0958 -1.0267
13528TIP3   OH261998   4.543   4.137  11.438  0.2904 -0.1089  0.1194
13528TIP3    H161999   4.566   4.053  11.476  1.4822 -0.0266 -0.4025
13528TIP3    H262000   4.555   4.200  11.510  1.5981 -0.0841 -0.1152
13529TIP3   OH262001   2.046   1.195  13.567 -0.4490 -0.1685 -0.5825
13529TIP3    H162002   2.060   1.227  13.656 -0.5190  0.2530 -0.7225
13529TIP3    H262003   1.969   1.140  13.572 -2.1188  2.0600 -0.9107
13530TIP3   OH262004   4.776   4.922  12.675  0.1270  0.2035  0.4500
13530TIP3    H162005   4.721   4.906  12.599  0.2297 -1.8653  0.7917
13530TIP3    H262006   4.720   4.901  12.750  1.0669 -1.0149  0.8260
13531TIP3   OH262007   4.536   5.343  16.971  0.7611 -0.1373  0.7071
13531TIP3    H162008   4.582   5.382  16.898  3.8969  0.3129  2.8520
13531TIP3    H262009   4.588   5.365  17.048 -1.6963 -1.7412  2.9366
13532TIP3   OH262010   2.611   5.012  12.434  0.1852 -0.2409  0.0098
13532TIP3    H162011   2.636   4.964  12.355  1.2217 -0.3772  0.4173
13532TIP3    H262012   2.582   5.098  12.402  0.3218 -0.4001 -0.5401
13533TIP3   OH262013   6.171   3.806   2.285 -0.0879  0.4001  0.2798
13533TIP3    H162014   6.249   3.861   2.284 -0.0642  0.3572 -0.2897
13533TIP3    H262015   6.132   3.821   2.371  1.2826 -0.6256  1.0900
13534TIP3   OH262016   3.080   3.713   5.264  0.0565  0.1538 -0.3323
13534TIP3    H162017   3.144   3.679   5.327 -0.3551  0.6156  0.3518
13534TIP3    H262018   3.112   3.685   5.179  1.3339  0.6238 -0.0187
13535TIP3   OH262019   3.832   4.909  12.327  0.1224 -0.3153  0.1563
13535TIP3    H162020   3.857   4.819  12.347  3.9229  0.4660 -0.6573
13535TIP3    H262021   3.842   4.956  12.410  1.1733 -0.0367 -0.1267
13536TIP3   OH262022   4.626   3.334  11.787 -0.2932 -0.1071  0.1218
13536TIP3    H162023   4.572   3.387  11.846 -0.2270 -0.4412  0.4801
13536TIP3    H262024   4.624   3.246  11.824 -0.7944 -0.4698 -0.7431
13537TIP3   OH262025   1.480   5.484   4.428 -0.6561  0.4322  0.1420
13537TIP3    H162026   1.491   5.505   4.520 -2.2096 -0.4726  0.5474
13537TIP3    H262027   1.516   5.395   4.419 -0.7370  0.4184 -0.0724
13538TIP3   OH262028   1.532   0.210   0.360  0.0605 -0.1295 -0.0509
13538TIP3    H162029   1.620   0.237   0.387  0.8061 -2.5180  0.0224
13538TIP3    H262030   1.496   0.287   0.316  0.5831  2.2903  3.5501
13539TIP3   OH262031   4.317   4.777   1.089  0.2505  0.8534 -0.3126
13539TIP3    H162032   4.356   4.779   1.001  0.3405 -2.9943 -0.4412
13539TIP3    H262033   4.236   4.728   1.078 -0.4509  1.5704  1.5295
13540TIP3   OH262034   1.665   1.320   1.743  0.4648 -0.0560 -0.7188
13540TIP3    H162035   1.722   1.397   1.742 -0.2360  0.4791 -0.1602
13540TIP3    H262036   1.580   1.353   1.713 -0.3343 -0.2064  1.3398
13541TIP3   OH262037   5.279   1.760   0.814  0.2640  0.1590  0.0951
13541TIP3    H162038   5.210   1.698   0.837 -0.2928  1.4606  2.0026
13541TIP3    H262039   5.317   1.724   0.734 -1.5281 -1.4501 -0.0731
13542TIP3   OH262040   3.446   4.687  13.331 -0.3625  0.0224  0.7174
13542TIP3    H162041   3.516   4.733  13.377 -1.5897  0.2374  2.4315
13542TIP3    H262042   3.415   4.621  13.394 -0.7193 -1.0451 -0.5567
13543TIP3   OH262043   3.103   2.519  11.349  0.4047  0.5108  0.1093
13543TIP3    H162044   3.011   2.543  11.340  0.2346  0.6124  1.9690
13543TIP3    H262045   3.103   2.424  11.352  0.4945  0.4673 -1.2675
13544TIP3   OH262046   1.593   5.873   6.124  0.0021  1.0298 -0.5681
13544TIP3    H162047   1.646   5.831   6.192  1.0292  2.5361 -0.4191
13544TIP3    H262048   1.504   5.872   6.160  0.2957  0.4601  0.1521
13545TIP3   OH262049   6.158   4.405  17.231  0.1705  0.6106  0.0231
13545TIP3    H162050   6.108   4.386  17.310 -0.6251 -1.6764 -0.9789
13545TIP3    H262051   6.114   4.481  17.192 -0.7648  0.3905  0.6386
13546TIP3   OH262052   0.188   5.145  12.857 -0.1879  0.3278  0.1227
13546TIP3    H162053   0.230   5.211  12.802 -1.1076  1.6209  0.9242
13546TIP3    H262054   0.097   5.175  12.864 -0.7420 -1.2851  0.1205
13547TIP3   OH262055   4.185   2.615  16.950  0.2300 -0.4922  0.7002
13547TIP3    H162056   4.210   2.523  16.946  1.0427 -0.2116 -1.4828
13547TIP3    H262057   4.268   2.662  16.960 -0.0252  0.0763  0.2063
13548TIP3   OH262058   5.311   1.333  12.867 -0.0604  0.3256 -0.3125
13548TIP3    H162059   5.262   1.251  12.873 -1.3003  1.0492 -0.5628
13548TIP3    H262060   5.270   1.391  12.930 -0.2153  1.2892 -1.3027
13549TIP3   OH262061   4.051   5.359   3.984  0.0974  0.0695 -0.4141
13549TIP3    H162062   4.068   5.283   4.041  1.4414 -0.2279 -1.1935
13549TIP3    H262063   3.982   5.408   4.030  0.0269 -1.0078  0.6713
13550TIP3   OH262064   3.508   5.412   0.428  0.5376  0.2801 -0.2325
13550TIP3    H162065   3.462   5.344   0.478 -1.6656  1.2039 -0.9818
13550TIP3    H262066   3.485   5.394   0.337  1.6091  0.8296 -0.6249
13551TIP3   OH262067   3.237   3.479   3.378 -0.1841  0.2416 -0.4566
13551TIP3    H162068   3.229   3.549   3.314  0.8304  0.5586 -0.2348
13551TIP3    H262069   3.330   3.473   3.397 -0.1322 -1.8407 -1.2188
13552TIP3   OH262070   1.735   3.107  14.918 -0.5855 -0.3260  0.0113
13552TIP3    H162071   1.715   3.015  14.898  1.2495 -1.1336  1.6693
13552TIP3    H262072   1.767   3.143  14.835 -0.7064 -1.3576 -0.4921
13553TIP3   OH262073   5.387   2.630   5.070  0.1930  0.3533 -0.3325
13553TIP3    H162074   5.456   2.564   5.056  0.9473  1.5942 -2.7467
13553TIP3    H262075   5.305   2.581   5.061  0.7406 -0.6251 -0.1322
13554TIP3   OH262076   3.460   3.515  12.484  0.2701 -0.1615  0.7508
13554TIP3    H162077   3.475   3.609  12.475  1.7848 -0.4871 -0.3247
13554TIP3    H262078   3.524   3.486  12.548  1.2513 -0.8045 -0.4927
13555TIP3   OH262079   1.029   0.119   4.810 -0.2272 -0.2701 -0.0982
13555TIP3    H162080   1.057   0.210   4.820 -2.2569  0.2003  1.7908
13555TIP3    H262081   1.087   0.070   4.869  1.3366 -0.3281 -1.6503
13556TIP3   OH262082   4.714   4.689  12.956 -0.1291  0.2533  0.2729
13556TIP3    H162083   4.671   4.604  12.947 -0.3365  0.4232 -0.4263
13556TIP3    H262084   4.757   4.686  13.041  0.5060 -0.8370 -0.0780
13557TIP3   OH262085   0.770   0.494   2.601 -0.2825 -0.6647 -0.0062
13557TIP3    H162086   0.695   0.529   2.553 -0.5541 -0.3484  0.6572
13557TIP3    H262087   0.737   0.476   2.688  0.4521 -0.3785  0.3346
13558TIP3   OH262088   2.230   1.202   0.400  1.0263 -0.0767 -0.1782
13558TIP3    H162089   2.235   1.288   0.359  0.2943  0.1288  0.1642
13558TIP3    H262090   2.141   1.196   0.435  1.2344 -0.7595  0.2621
13559TIP3   OH262091   6.705   5.177   4.234  0.1113 -0.2780 -0.3819
13559TIP3    H162092   6.688   5.261   4.192 -0.8100  0.6691  1.7949
13559TIP3    H262093   6.657   5.181   4.317 -0.5038 -3.2140 -0.5212
13560TIP3   OH262094   2.243   2.630   4.316 -0.7584  0.0628  0.3064
13560TIP3    H162095   2.306   2.697   4.342 -2.5157  1.3072  1.4483
13560TIP3    H262096   2.237   2.639   4.221  2.8191 -1.9266 -0.1679
13561TIP3   OH262097   4.650   0.192   1.651  0.2136 -0.4108 -0.1713
13561TIP3    H162098   4.577   0.153   1.700  1.3528 -0.7842  1.2726
13561TIP3    H262099   4.681   0.263   1.708  1.1445 -0.4269 -0.6506
13562TIP3   OH262100   5.525   1.943   1.058  0.1912 -0.0364 -0.3555
13562TIP3    H162101   5.431   1.933   1.065  0.1751 -0.2930 -0.9258
13562TIP3    H262102   5.547   2.008   1.124 -0.3945  0.0723 -0.2662
13563TIP3   OH262103   5.215   0.309  10.718 -0.1781 -0.4367 -0.0013
13563TIP3    H162104   5.174   0.223  10.724 -1.1312  0.1059  1.5687
13563TIP3    H262105   5.306   0.295  10.745 -0.8461 -0.5901  2.1808
13564TIP3   OH262106   0.464   5.511   6.129  0.2903  1.0579  0.2515
13564TIP3    H162107   0.438   5.421   6.152  2.3802  0.3427 -0.0432
13564TIP3    H262108   0.556   5.503   6.103  0.3126  3.1940 -0.4159
13565TIP3   OH262109   6.432   5.708   6.126 -0.5379 -0.8834  0.2186
13565TIP3    H162110   6.484   5.693   6.206 -1.9303  0.2729  1.3619
13565TIP3    H262111   6.492   5.754   6.067  0.8883 -2.7917  0.1193
13566TIP3   OH262112   6.433   5.267  13.869 -0.0707  0.7173  0.3535
13566TIP3    H162113   6.442   5.297  13.960 -1.3435 -1.5621  1.2887
13566TIP3    H262114   6.497   5.196  13.861 -0.1929  0.6938 -0.4237
13567TIP3   OH262115   3.206   2.491  11.713 -0.4256 -0.2612  0.6982
13567TIP3    H162116   3.263   2.427  11.669  0.1346  0.5953  0.1704
13567TIP3    H262117   3.159   2.439  11.778 -0.7622 -1.4234 -0.4421
13568TIP3   OH262118   6.553   2.266   1.410 -0.0724  0.9413 -0.0293
13568TIP3    H162119   6.593   2.200   1.352  0.2034  0.8760  0.2304
13568TIP3    H262120   6.598   2.347   1.388 -0.4738  1.0615 -0.4100
13569TIP3   OH262121   5.640   6.015   4.862 -0.2849 -0.3972  0.0885
13569TIP3    H162122   5.715   6.063   4.825 -0.1680 -1.1403 -0.6485
13569TIP3    H262123   5.578   6.084   4.886  1.2199  0.3264  2.0625
13570TIP3   OH262124   1.646   6.722   3.611 -0.3804 -0.4718  0.5032
13570TIP3    H162125   1.634   6.659   3.682 -2.4628  0.2940  0.8560
13570TIP3    H262126   1.648   6.807   3.655 -0.4398 -0.0841 -0.2423
13571TIP3   OH262127   6.593   3.799  13.379 -0.0596  0.1148  0.0059
13571TIP3    H162128   6.606   3.854  13.456  0.2949 -0.5808  0.4520
13571TIP3    H262129   6.498   3.794  13.369 -0.0939  2.2244 -1.0825
13572TIP3   OH262130   2.783   0.111  16.871  0.9910  0.3191  0.0278
13572TIP3    H162131   2.741   0.171  16.809 -0.8969 -0.3370  0.6412
13572TIP3    H262132   2.862   0.082  16.826  1.7120  2.9018 -0.4661
13573TIP3   OH262133   6.651   3.223   3.342  0.1082 -0.4096 -0.1791
13573TIP3    H162134   6.622   3.228   3.251  1.1395  2.7795 -0.4046
13573TIP3    H262135   6.576   3.186   3.389 -0.7042 -1.3829 -2.1946
13574TIP3   OH262136   0.370   4.729  14.116  0.0737  0.7285 -0.0070
13574TIP3    H162137   0.279   4.743  14.139 -0.1721  0.4551 -0.8026
13574TIP3    H262138   0.409   4.688  14.194 -0.8259 -0.5115 -0.2021
13575TIP3   OH262139   6.625   3.683   0.678 -0.8716  0.0900  0.7466
13575TIP3    H162140   6.719   3.670   0.663 -0.9495 -1.5127  1.5056
13575TIP3    H262141   6.593   3.597   0.704 -3.0440  0.0312 -1.8954
13576TIP3   OH262142   1.685   6.782   0.322  0.9353  0.0571 -0.2948
13576TIP3    H162143   1.631   6.717   0.278  1.4095 -0.1291 -0.6026
13576TIP3    H262144   1.623   6.851   0.347  0.4102 -0.5890  0.1900
13577TIP3   OH262145   1.057   0.442  15.846  0.3424 -0.6100 -0.2844
13577TIP3    H162146   0.999   0.489  15.907  0.4391  0.5412 -1.0714
13577TIP3    H262147   1.143   0.445  15.888  0.9227  2.2560 -1.5325
13578TIP3   OH262148   4.461   0.326  14.857 -0.0124  0.3344  0.4809
13578TIP3    H162149   4.397   0.268  14.816  1.5405  0.6053 -2.4786
13578TIP3    H262150   4.471   0.398  14.796  1.6305  1.3240  1.8599
13579TIP3   OH262151   3.230   5.932  13.491 -0.1066 -0.2655  0.1056
13579TIP3    H162152   3.283   5.873  13.436  1.4063  0.9408  0.2153
13579TIP3    H262153   3.161   5.877  13.526  0.5808 -1.7076 -0.7504
13580TIP3   OH262154   5.995   3.651   0.665  0.3835  0.3750  0.3902
13580TIP3    H162155   5.986   3.559   0.690  1.4087  0.8483  2.6162
13580TIP3    H262156   6.071   3.652   0.606 -0.3714 -0.3602 -0.6113
13581TIP3   OH262157   1.204   1.912  16.703 -0.5365  0.6269 -0.3243
13581TIP3    H162158   1.176   1.936  16.614 -0.1190  1.8127 -0.1485
13581TIP3    H262159   1.133   1.942  16.759 -1.8771 -2.1703 -0.4190
13582TIP3   OH262160   2.923   3.217   0.900 -0.0432 -0.6457 -0.5477
13582TIP3    H162161   2.973   3.213   0.981 -1.9738 -0.0767  0.7044
13582TIP3    H262162   2.963   3.289   0.850 -0.4861  0.7657  1.0729
13583TIP3   OH262163   5.285   0.545   3.793 -0.4859 -0.8699 -1.0548
13583TIP3    H162164   5.296   0.452   3.773  1.0200 -1.0240  0.3978
13583TIP3    H262165   5.336   0.590   3.725  0.8844 -1.2288 -0.2998
13584TIP3   OH262166   0.725   1.895  12.722 -0.3040  0.2177 -0.4183
13584TIP3    H162167   0.630   1.899  12.730 -0.0934  0.5182  2.3652
13584TIP3    H262168   0.748   1.808  12.755  0.4111  0.2865 -0.7292
13585TIP3   OH262169   4.928   4.733  11.092 -0.1223  0.4493 -0.0081
13585TIP3    H162170   4.942   4.821  11.126  0.9821  0.6498 -0.9245
13585TIP3    H262171   4.885   4.685  11.163  1.5395  1.0301  1.4156
13586TIP3   OH262172   1.623   1.382  11.129  0.0345 -0.1262 -0.6668
13586TIP3    H162173   1.577   1.369  11.047  0.8189  0.7297 -1.2520
13586TIP3    H262174   1.698   1.437  11.107 -0.2958  0.9471  0.8008
13587TIP3   OH262175   2.464   6.533  16.170  0.1117  0.1572  0.1263
13587TIP3    H162176   2.369   6.544  16.183  0.1597 -0.6427  1.2449
13587TIP3    H262177   2.480   6.442  16.192  1.3836  0.6848  1.4573
13588TIP3   OH262178   2.889   3.990   2.563 -0.3005  0.1145 -0.2157
13588TIP3    H162179   2.976   3.979   2.601 -0.3282 -0.7854 -0.3953
13588TIP3    H262180   2.858   3.900   2.548 -0.6398  0.4570 -1.5650
13589TIP3   OH262181   5.934   6.382  14.569  0.0126 -0.4417  0.0736
13589TIP3    H162182   5.947   6.476  14.554  2.4744 -0.6981  0.3135
13589TIP3    H262183   5.921   6.375  14.664  2.2134 -0.5342  0.4026
13590TIP3   OH262184   6.408   6.417  16.183 -0.3961  0.4389  0.3683
13590TIP3    H162185   6.338   6.463  16.229 -0.3881  0.5617  0.2601
13590TIP3    H262186   6.482   6.418  16.245 -0.5169  0.2349  0.5133
13591TIP3   OH262187   3.539   1.579   0.851 -0.3562 -0.1610  0.0078
13591TIP3    H162188   3.625   1.572   0.811 -0.0479 -1.1610  0.8247
13591TIP3    H262189   3.507   1.489   0.855 -0.0424 -0.1747  2.7312
13592TIP3   OH262190   3.185   1.298  13.105  0.2504 -0.1831 -0.2909
13592TIP3    H162191   3.200   1.258  13.019  1.3914  2.3294 -1.3226
13592TIP3    H262192   3.094   1.278  13.126  0.0349 -1.0339 -1.9773
13593TIP3   OH262193   4.566   6.050   2.119 -0.2806 -0.0138  0.3243
13593TIP3    H162194   4.520   6.082   2.196  1.5703  1.1155  1.0078
13593TIP3    H262195   4.606   6.129   2.081  1.9850 -1.0909  0.3952
13594TIP3   OH262196   3.083   0.440  15.998 -0.1633 -0.3262 -0.1760
13594TIP3    H162197   3.019   0.388  16.047  0.3756 -0.6185  0.2200
13594TIP3    H262198   3.122   0.498  16.064  0.3084 -0.4704 -0.3301
13595TIP3   OH262199   2.067   3.338  14.219  0.2227  0.0547 -0.2031
13595TIP3    H162200   2.138   3.401  14.231 -0.4947  0.7189  0.6288
13595TIP3    H262201   2.006   3.382  14.161 -0.2282  0.0776  0.2905
13596TIP3   OH262202   0.775   3.402  14.328 -0.2320  0.1287  0.1200
13596TIP3    H162203   0.846   3.426  14.269 -1.7170  2.5484 -0.7705
13596TIP3    H262204   0.708   3.363  14.272 -1.0969  1.2036  0.3834
13597TIP3   OH262205   5.665   5.963   0.126  0.2297 -0.0974  0.1904
13597TIP3    H162206   5.652   5.890   0.065  0.8692  1.1291 -1.4505
13597TIP3    H262207   5.757   5.956   0.152  0.5538  0.7102 -0.7416
13598TIP3   OH262208   4.477   4.577  11.030  0.1249 -0.4332  0.3059
13598TIP3    H162209   4.561   4.536  11.007  0.0445  0.3372 -1.4743
13598TIP3    H262210   4.413   4.507  11.021  0.3826 -0.6591  0.2147
13599TIP3   OH262211   1.084   0.129   1.427 -0.0202  0.4255 -0.6037
13599TIP3    H162212   1.103   0.151   1.518  0.4815  0.3479 -0.6861
13599TIP3    H262213   0.990   0.141   1.418 -0.1240  0.0537  0.0296
13600TIP3   OH262214   6.342   0.850   1.667  0.0139  0.6451 -0.3403
13600TIP3    H162215   6.266   0.846   1.609 -0.3902 -0.2506  0.2363
13600TIP3    H262216   6.379   0.937   1.652 -1.6739  1.4452  0.0662
13601TIP3   OH262217   6.583   4.699  14.840  0.0688  0.2120  0.2639
13601TIP3    H162218   6.504   4.705  14.894  0.1230 -0.0924  0.3795
13601TIP3    H262219   6.655   4.723  14.899 -0.0382  1.5301 -0.1227
13602TIP3   OH262220   5.266   4.066  12.591 -0.2725  0.1612  0.1193
13602TIP3    H162221   5.341   4.018  12.626 -0.8788 -0.3674  0.7011
13602TIP3    H262222   5.217   4.095  12.668 -0.5672  0.6668 -0.2568
13603TIP3   OH262223   4.750   3.684   0.939  0.0289  0.5189  0.0781
13603TIP3    H162224   4.820   3.618   0.937 -0.2896  0.1117  1.6212
13603TIP3    H262225   4.790   3.760   0.982  0.1814  1.0754 -1.0460
13604TIP3   OH262226   4.702   3.068  14.626  0.3604  0.1987 -0.1760
13604TIP3    H162227   4.658   3.115  14.697  1.8528 -0.0549  0.9657
13604TIP3    H262228   4.793   3.100  14.630  0.3054  0.7136 -2.4558
13605TIP3   OH262229   3.463   3.615  14.632  0.2046 -0.5294  0.1617
13605TIP3    H162230   3.402   3.566  14.686  0.7728 -1.5120 -0.0831
13605TIP3    H262231   3.432   3.706  14.637 -0.7104 -0.8733  0.7925
13606TIP3   OH262232   2.157   6.440  16.842 -0.2345 -0.7283  0.3293
13606TIP3    H162233   2.206   6.480  16.771 -1.6241  0.3747 -0.0362
13606TIP3    H262234   2.065   6.459  16.822 -0.6383 -0.1864  2.5448
13607TIP3   OH262235   0.351   4.479   6.469  0.0717  0.0818 -0.1911
13607TIP3    H162236   0.289   4.454   6.538  0.0850 -0.3740 -0.3486
13607TIP3    H262237   0.406   4.402   6.457 -0.7128 -0.2670 -1.5860
13608TIP3   OH262238   4.397   5.167  13.612 -0.1799  0.0522 -0.1587
13608TIP3    H162239   4.374   5.091  13.559 -1.5440  0.4095 -0.0967
13608TIP3    H262240   4.321   5.181  13.669 -0.6949  2.4969 -1.3590
13609TIP3   OH262241   4.420   2.653   2.733  0.4777 -0.3127 -0.2568
13609TIP3    H162242   4.452   2.577   2.781 -1.0048  0.9905  2.9969
13609TIP3    H262243   4.379   2.618   2.655  0.4373 -2.7915  0.8461
13610TIP3   OH262244   2.047   0.460   2.175  0.1526 -0.3926 -0.1006
13610TIP3    H162245   2.103   0.439   2.101 -0.0085  0.1976 -0.3957
13610TIP3    H262246   2.044   0.380   2.227  0.4478 -0.7375 -0.6140
13611TIP3   OH262247   6.427   1.625  17.122 -0.0910 -0.4882 -0.6026
13611TIP3    H162248   6.423   1.590  17.211 -0.0494 -0.3644 -0.5545
13611TIP3    H262249   6.516   1.605  17.092  0.9069  2.0912  0.4572
13612TIP3   OH262250   6.653   3.567  15.449  0.2085  0.2776 -0.2027
13612TIP3    H162251   6.620   3.502  15.512  0.1926 -0.6446 -1.1399
13612TIP3    H262252   6.737   3.594  15.484 -0.7057  1.2751  1.2642
13613TIP3   OH262253   6.784   1.453  15.235 -0.6485  0.6994 -0.0162
13613TIP3    H162254   6.772   1.548  15.228 -3.7244  0.2466 -1.8999
13613TIP3    H262255   6.825   1.428  15.152  2.0997  0.6176  1.3346
13614TIP3   OH262256   6.631   1.538  13.311  0.1155  0.5559  0.1460
13614TIP3    H162257   6.654   1.483  13.236  1.1939  1.8651 -0.4977
13614TIP3    H262258   6.581   1.610  13.273 -0.0372  0.7955  0.7969
13615TIP3   OH262259   4.455   5.901   4.091  0.2193 -0.4741 -0.5076
13615TIP3    H162260   4.434   5.935   4.178  0.7858 -0.4614 -0.3749
13615TIP3    H262261   4.439   5.807   4.098  0.9617 -0.5789 -0.1759
13616TIP3   OH262262   4.478   1.192   1.178  0.2898  0.0342  0.0533
13616TIP3    H162263   4.441   1.208   1.265 -2.1115  1.3828 -1.1584
13616TIP3    H262264   4.471   1.097   1.166 -2.3201  0.1638  0.1305
13617TIP3   OH262265   2.621   5.223   4.441 -0.0897 -0.5402 -0.0333
13617TIP3    H162266   2.626   5.156   4.510 -0.4488 -1.1478 -0.5905
13617TIP3    H262267   2.712   5.238   4.415 -0.0536 -1.3106 -0.3745
13618TIP3   OH262268   2.346   1.236  13.708 -0.0460 -0.0477  0.7224
13618TIP3    H162269   2.252   1.256  13.717  0.2195  1.3937  0.4500
13618TIP3    H262270   2.390   1.308  13.753  0.9884  0.5544 -1.1994
13619TIP3   OH262271   3.234   4.758   2.416 -0.2406 -0.5502 -0.1634
13619TIP3    H162272   3.167   4.814   2.377 -0.8446 -0.5163  0.9201
13619TIP3    H262273   3.309   4.815   2.431 -0.4521 -0.2880 -0.1126
13620TIP3   OH262274   6.321   3.042   2.643 -0.0925 -0.0350  0.4290
13620TIP3    H162275   6.258   2.986   2.689 -1.2842  1.8407  1.1282
13620TIP3    H262276   6.285   3.130   2.650  1.3207  0.7265 -1.4078
13621TIP3   OH262277   1.212   1.986   2.325  0.3325 -0.3895 -0.0719
13621TIP3    H162278   1.256   2.031   2.397 -1.6576  0.8932  0.3477
13621TIP3    H262279   1.257   2.017   2.246  0.1126  0.9931  0.3458
13622TIP3   OH262280   4.245   2.086   4.781 -0.5324  0.0617 -0.3511
13622TIP3    H162281   4.202   2.016   4.831 -1.2724 -0.4140 -1.6417
13622TIP3    H262282   4.218   2.071   4.691 -1.2288  2.3969 -0.5531
13623TIP3   OH262283   1.023   2.204   0.151  0.5162 -0.5434 -0.7297
13623TIP3    H162284   0.947   2.147   0.136  0.8411 -1.6770  1.6373
13623TIP3    H262285   0.986   2.287   0.181  0.1955 -1.1187  0.4855
13624TIP3   OH262286   5.247   2.533  15.951  0.3194  0.5618 -0.1627
13624TIP3    H162287   5.248   2.440  15.929  0.5236  0.9880 -2.0651
13624TIP3    H262288   5.234   2.535  16.046  1.8802 -1.4402  0.1356
13625TIP3   OH262289   3.443   1.537   1.380 -0.2297 -0.7467 -0.4738
13625TIP3    H162290   3.414   1.520   1.291 -0.0648  0.2181 -0.7251
13625TIP3    H262291   3.538   1.523   1.378  0.1627  1.7363 -1.0971
13626TIP3   OH262292   4.189   2.458   1.300  0.0554 -1.1206  0.3411
13626TIP3    H162293   4.104   2.413   1.293  1.1371 -2.8212 -2.8143
13626TIP3    H262294   4.214   2.477   1.210  0.9848  3.4744  1.4261
13627TIP3   OH262295   3.871   0.455  11.766  0.4036 -0.0812 -0.0813
13627TIP3    H162296   3.928   0.406  11.825 -1.0585 -0.8219  0.7581
13627TIP3    H262297   3.931   0.506  11.712  1.8270 -0.2984  1.2332
13628TIP3   OH262298   2.563   3.197   5.060  1.3737 -0.2263 -0.7462
13628TIP3    H162299   2.563   3.137   5.134  0.3060 -0.1163 -0.6483
13628TIP3    H262300   2.472   3.226   5.052  1.5537  0.0802 -1.8431
13629TIP3   OH262301   0.646   0.705  14.865  0.0061  0.5723 -0.1767
13629TIP3    H162302   0.727   0.693  14.914  1.1348 -0.2263 -2.1907
13629TIP3    H262303   0.669   0.685  14.774 -2.5397 -0.0908 -0.7246
13630TIP3   OH262304   2.846   5.695   6.841 -0.1160 -0.6758  0.1824
13630TIP3    H162305   2.884   5.629   6.784  0.7031 -0.5431  0.5743
13630TIP3    H262306   2.842   5.774   6.787 -2.3714 -1.3740 -0.7326
13631TIP3   OH262307   4.117   1.656  12.316 -0.3093 -0.1320 -0.4372
13631TIP3    H162308   4.153   1.582  12.365 -0.9538  1.0175  1.8408
13631TIP3    H262309   4.045   1.689  12.371 -0.4602  1.7589 -1.7069
13632TIP3   OH262310   1.256   0.886  14.194  0.1048  0.4338  0.8113
13632TIP3    H162311   1.335   0.939  14.206 -0.6252  2.2934 -2.0081
13632TIP3    H262312   1.287   0.804  14.158  0.7394  1.3365 -0.7371
13633TIP3   OH262313   6.363   4.874   3.947  0.1979 -0.5689 -0.0952
13633TIP3    H162314   6.362   4.799   4.006  1.1385  0.2802  1.0221
13633TIP3    H262315   6.387   4.838   3.862  0.9984 -1.4810  0.5154
13634TIP3   OH262316   3.970   4.030   2.674  0.5075 -0.0397  0.3433
13634TIP3    H162317   4.046   4.088   2.671  2.3297 -2.3363  0.4544
13634TIP3    H262318   3.940   4.025   2.583  1.3797 -0.2035  0.0498
13635TIP3   OH262319   2.769   0.693   1.851 -0.1371  0.2203  0.0418
13635TIP3    H162320   2.724   0.620   1.811  1.1556 -0.3307 -0.4257
13635TIP3    H262321   2.702   0.762   1.858 -0.4826  0.2196 -2.7014
13636TIP3   OH262322   3.103   2.255  13.667  0.4229 -0.0053 -0.7882
13636TIP3    H162323   3.078   2.176  13.714  1.5738  0.7678  1.2077
13636TIP3    H262324   3.199   2.254  13.668  0.4488  1.5130 -0.5615
13637TIP3   OH262325   4.042   4.782  11.499 -0.4617 -0.0979 -0.0798
13637TIP3    H162326   4.120   4.835  11.482 -0.3440 -0.5493 -0.9655
13637TIP3    H262327   3.977   4.844  11.531 -0.0158  0.4258 -0.1858
13638TIP3   OH262328   1.773   0.299   1.120  0.3367 -0.5761 -0.1260
13638TIP3    H162329   1.721   0.305   1.040 -1.0356 -0.1053  0.7643
13638TIP3    H262330   1.783   0.390   1.149  0.9836 -0.7251  0.1373
13639TIP3   OH262331   4.465   0.312  13.287 -0.0940  0.3929 -0.5930
13639TIP3    H162332   4.418   0.230  13.275  1.1369 -0.3363 -0.4719
13639TIP3    H262333   4.427   0.351  13.365 -1.7184  0.6673 -1.5036
13640TIP3   OH262334   2.765   6.738   2.990 -0.2963  0.1125 -0.1511
13640TIP3    H162335   2.721   6.823   2.982  0.2637  0.4803  0.5198
13640TIP3    H262336   2.768   6.722   3.085 -1.0344 -1.0061 -0.3021
13641TIP3   OH262337   5.542   3.340  17.057  0.8744 -0.2088  0.0747
13641TIP3    H162338   5.626   3.338  17.012  1.6718 -2.6702  1.5701
13641TIP3    H262339   5.502   3.255  17.038 -1.4945  1.0787 -0.9488
13642TIP3   OH262340   5.631   0.824   0.883 -0.1564  0.4467 -0.6612
13642TIP3    H162341   5.724   0.844   0.891 -0.5022  2.5912 -1.6366
13642TIP3    H262342   5.587   0.889   0.938 -1.1232  0.2253 -1.1529
13643TIP3   OH262343   2.169   5.943   6.224 -0.0316  0.4092 -0.0053
13643TIP3    H162344   2.117   5.877   6.270 -1.5337  1.8307  0.3880
13643TIP3    H262345   2.229   5.977   6.290  0.9364 -0.7550 -0.2819
13644TIP3   OH262346   6.389   6.760  14.884  0.4835  0.0056  0.3881
13644TIP3    H162347   6.369   6.843  14.841 -0.0206  0.5198  1.5913
13644TIP3    H262348   6.330   6.757  14.960  0.5863 -1.3904  0.4271
13645TIP3   OH262349   2.476   3.659  16.102 -0.6053  0.0550  0.2360
13645TIP3    H162350   2.560   3.613  16.109  0.1250  1.0414 -1.4890
13645TIP3    H262351   2.451   3.649  16.010 -2.2645 -0.0004  0.6716
13646TIP3   OH262352   2.556   3.578  15.812 -0.6791 -0.0945  0.1892
13646TIP3    H162353   2.622   3.547  15.750 -0.4196  1.2653 -0.2447
13646TIP3    H262354   2.475   3.537  15.784 -0.7040  1.0826 -1.5220
13647TIP3   OH262355   5.335   2.520  14.525 -0.2321 -0.4169  0.4572
13647TIP3    H162356   5.372   2.466  14.456  0.9141 -0.7262  1.3046
13647TIP3    H262357   5.243   2.495  14.529 -0.4779  0.1262 -1.4399
13648TIP3   OH262358   4.262   1.291   0.489  0.0730  0.2126 -0.2592
13648TIP3    H162359   4.331   1.255   0.545  0.2012  2.1068  0.8508
13648TIP3    H262360   4.310   1.341   0.422 -0.0957 -1.6834 -1.8412
13649TIP3   OH262361   6.614   4.089  12.505  0.5509  0.0792 -0.3309
13649TIP3    H162362   6.646   4.155  12.443 -0.9602  0.6748 -0.4916
13649TIP3    H262363   6.596   4.013  12.450  3.2182 -0.8305 -0.0121
13650TIP3   OH262364   6.661   6.583   6.028  0.3690  0.2626  0.0300
13650TIP3    H162365   6.682   6.631   5.948 -1.5509  1.6585  0.3331
13650TIP3    H262366   6.671   6.648   6.098 -0.8745 -0.1455  0.5970
13651TIP3   OH262367   2.135   4.569   1.764 -0.4976 -0.5014 -0.0070
13651TIP3    H162368   2.073   4.499   1.786 -1.4658  0.8962  1.7939
13651TIP3    H262369   2.085   4.650   1.774  1.4493  0.6229  0.9525
13652TIP3   OH262370   2.005   3.195   4.691 -0.1376 -0.2559 -0.4598
13652TIP3    H162371   2.080   3.191   4.632 -0.5171  0.6422 -1.0223
13652TIP3    H262372   2.035   3.155   4.772  0.5014 -1.1844 -1.1514
13653TIP3   OH262373   3.660   3.232  16.641 -0.1686  0.1614  0.2333
13653TIP3    H162374   3.636   3.278  16.721  1.4755  0.8741  0.3275
13653TIP3    H262375   3.752   3.255  16.626  0.2441 -1.8963 -0.5364
13654TIP3   OH262376   3.853   4.983  13.868 -0.0688 -0.2424  0.8036
13654TIP3    H162377   3.764   5.009  13.844  0.7443  0.0435 -2.0346
13654TIP3    H262378   3.888   4.941  13.790  1.6835 -2.0058  2.4825
13655TIP3   OH262379   2.727   6.710   0.419 -0.2809 -0.3767  0.0837
13655TIP3    H162380   2.700   6.621   0.441 -2.0952 -0.1272 -1.0103
13655TIP3    H262381   2.803   6.699   0.362  0.5280 -1.1747  1.2996
13656TIP3   OH262382   6.313   1.374  12.663  0.1061  0.3086 -0.1741
13656TIP3    H162383   6.253   1.402  12.733  2.8522  2.4648  1.3840
13656TIP3    H262384   6.288   1.428  12.588 -0.7200  0.2907  0.0742
13657TIP3   OH262385   4.318   0.560  11.196  0.1005 -0.5115  0.0133
13657TIP3    H162386   4.387   0.625  11.208 -0.0345 -0.7118  2.0614
13657TIP3    H262387   4.333   0.525  11.108  0.8153  1.5212 -0.7012
13658TIP3   OH262388   4.785   6.004  16.357 -0.2729  0.1611 -0.1286
13658TIP3    H162389   4.776   5.916  16.319  0.3883 -0.5658  1.3570
13658TIP3    H262390   4.700   6.046  16.341 -0.9506 -1.1149  0.0894
13659TIP3   OH262391   1.249   0.790  13.394  0.2282 -0.3481 -0.2334
13659TIP3    H162392   1.186   0.856  13.365 -0.0724 -0.6870 -0.3361
13659TIP3    H262393   1.320   0.842  13.433  1.6517  0.2606 -3.4366
13660TIP3   OH262394   3.351   0.883  16.846 -0.0868  0.2195 -0.5946
13660TIP3    H162395   3.443   0.879  16.823  0.5641  1.6042  1.6115
13660TIP3    H262396   3.342   0.823  16.920 -1.0424 -0.1977 -1.0346
13661TIP3   OH262397   4.679   3.115  13.099 -0.1197 -0.1903  0.7571
13661TIP3    H162398   4.676   3.047  13.032 -0.6463  0.7747 -0.1970
13661TIP3    H262399   4.671   3.067  13.182  3.4261 -1.7134  0.3512
13662TIP3   OH262400   6.164   1.898   5.313 -0.3059  0.6055 -0.5317
13662TIP3    H162401   6.202   1.833   5.253  0.0233  1.3509 -1.1331
13662TIP3    H262402   6.073   1.870   5.324 -0.3134  0.3592 -1.2200
13663TIP3   OH262403   5.351   5.694   4.083 -0.9967  0.0254  0.2536
13663TIP3    H162404   5.407   5.769   4.105 -1.8013  0.6042  0.3412
13663TIP3    H262405   5.271   5.708   4.133  0.3471 -2.9681  3.4103
13664TIP3   OH262406   5.053   0.119  13.187  0.0403 -0.2769 -0.6856
13664TIP3    H162407   4.957   0.121  13.195  0.1996 -0.3967  1.5268
13664TIP3    H262408   5.079   0.039  13.233  1.2840  0.1763 -0.5916
13665TIP3   OH262409   4.850   4.017  12.962  0.0668  0.2012  0.1180
13665TIP3    H162410   4.808   3.948  12.911 -0.3183  1.3014 -1.0691
13665TIP3    H262411   4.785   4.041  13.028  0.4868 -1.0714  1.0416
13666TIP3   OH262412   6.114   1.224  14.818 -0.1051 -0.3385  0.3825
13666TIP3    H162413   6.131   1.131  14.804 -1.2905 -0.4716 -0.2479
13666TIP3    H262414   6.024   1.227  14.852 -0.0278  0.5665  0.5208
13667TIP3   OH262415   5.549   2.084   3.381 -0.0687  0.0119 -0.2250
13667TIP3    H162416   5.493   2.132   3.321  1.5046  0.7616 -1.1219
13667TIP3    H262417   5.577   2.149   3.446 -1.3605 -0.6801  1.0712
13668TIP3   OH262418   4.719   2.834  12.670 -0.1087 -0.3618  0.3686
13668TIP3    H162419   4.641   2.780  12.663 -0.1470 -0.3727  0.8933
13668TIP3    H262420   4.694   2.905  12.729 -0.9937  1.8845 -2.5877
13669TIP3   OH262421   4.601   2.682   2.264  0.4725 -0.1206  0.2654
13669TIP3    H162422   4.621   2.775   2.275 -0.2542  0.1089 -0.2898
13669TIP3    H262423   4.661   2.637   2.323  0.1255  0.7738  1.3111
13670TIP3   OH262424   2.074   0.372  14.873 -0.1559  0.3675 -0.0132
13670TIP3    H162425   2.050   0.353  14.783  1.0678 -0.3730 -0.1875
13670TIP3    H262426   2.044   0.462  14.887 -2.7247 -0.3864 -0.3139
13671TIP3   OH262427   3.589   6.776   6.279 -0.7912 -0.3556 -0.2972
13671TIP3    H162428   3.600   6.804   6.188  0.5859  0.0746 -0.0149
13671TIP3    H262429   3.516   6.830   6.312 -3.0519 -2.3492 -1.8633
13672TIP3   OH262430   6.539   3.110  15.625  0.0882 -0.3407 -0.1317
13672TIP3    H162431   6.477   3.042  15.648  0.0344 -1.3137 -2.9352
13672TIP3    H262432   6.597   3.069  15.561  0.4438  2.0315 -1.4103
13673TIP3   OH262433   3.076   6.692  15.716  0.0465  0.2037 -0.7326
13673TIP3    H162434   3.096   6.733  15.632 -0.1097  0.2992 -0.7233
13673TIP3    H262435   3.154   6.708  15.770  1.1748 -1.9871 -1.6484
13674TIP3   OH262436   3.256   1.866   4.849 -0.0151  0.2803 -0.0482
13674TIP3    H162437   3.217   1.880   4.936  0.1529 -0.7087  0.1923
13674TIP3    H262438   3.279   1.773   4.848  3.4951  1.0606  0.3009
13675TIP3   OH262439   5.516   4.488  16.578  0.0758  0.3292 -0.0495
13675TIP3    H162440   5.521   4.514  16.670 -1.0367  1.5737 -0.3215
13675TIP3    H262441   5.524   4.392  16.579 -1.9891  0.1387  1.5219
13676TIP3   OH262442   4.820   2.424   2.633  0.7358  0.1885  0.0346
13676TIP3    H162443   4.814   2.330   2.618  0.0694  0.1578  0.4698
13676TIP3    H262444   4.754   2.462   2.576  0.6902  0.3542  0.1956
13677TIP3   OH262445   5.381   0.101  16.620  0.0192 -0.5560 -0.2741
13677TIP3    H162446   5.376   0.013  16.657  0.9666  0.2255  1.7835
13677TIP3    H262447   5.295   0.140  16.638  0.6317 -0.0143  1.6053
13678TIP3   OH262448   6.391   2.100   3.593  0.1109 -0.2014 -0.1100
13678TIP3    H162449   6.456   2.156   3.634  0.9704 -2.3641  1.6128
13678TIP3    H262450   6.442   2.038   3.540 -0.7393 -0.1240 -1.0430
13679TIP3   OH262451   4.018   0.195   5.017 -0.2064  0.1359 -0.1913
13679TIP3    H162452   4.063   0.121   5.058  0.2267  0.0604 -0.7989
13679TIP3    H262453   4.083   0.265   5.018  0.1568 -0.1536 -1.6302
13680TIP3   OH262454   3.161   2.913  16.943 -0.5627 -0.2454 -0.3981
13680TIP3    H162455   3.213   2.974  16.995 -0.9738  1.2101 -1.6719
13680TIP3    H262456   3.222   2.881  16.877 -1.4358  2.1241 -2.4423
13681TIP3   OH262457   2.325   6.762  15.017 -0.0908  0.0281 -0.2418
13681TIP3    H162458   2.342   6.749  14.923  0.5204  0.9329 -0.2678
13681TIP3    H262459   2.237   6.728  15.030  0.6578 -2.2037 -0.6878
13682TIP3   OH262460   0.258   1.929   4.381  0.4398  0.5201  0.3507
13682TIP3    H162461   0.350   1.904   4.372  0.5283  0.6635  0.8104
13682TIP3    H262462   0.213   1.849   4.405 -0.0083 -0.1420 -2.5480
13683TIP3   OH262463   1.897   3.795  16.980  0.3677 -0.2228  0.0764
13683TIP3    H162464   1.914   3.830  16.892 -0.8584  1.3661  0.4383
13683TIP3    H262465   1.808   3.824  17.000  0.2647 -1.4377  1.4409
13684TIP3   OH262466   1.391   1.932  15.612 -0.8446  0.0446  0.3669
13684TIP3    H162467   1.307   1.936  15.567 -0.3949 -2.1611 -0.7498
13684TIP3    H262468   1.371   1.956  15.703 -2.4258  0.8422 -0.1815
13685TIP3   OH262469   5.230   0.702   0.475 -0.4047  0.3707 -0.0219
13685TIP3    H162470   5.151   0.648   0.473 -0.9627  1.2163 -1.5190
13685TIP3    H262471   5.288   0.661   0.411  0.3428 -0.2019  1.0204
13686TIP3   OH262472   1.459   5.658   0.373 -0.0190 -0.0736 -0.8038
13686TIP3    H162473   1.400   5.638   0.446 -1.4164  1.2038 -1.5414
13686TIP3    H262474   1.546   5.654   0.411 -0.7238  0.6143  0.9611
13687TIP3   OH262475   4.620   6.061  11.530 -0.1990  0.3864 -0.2036
13687TIP3    H162476   4.551   5.996  11.512 -1.2333  1.4425 -0.0835
13687TIP3    H262477   4.684   6.013  11.583 -1.6340 -0.1474  1.0725
13688TIP3   OH262478   3.072   5.865  12.190 -0.0489 -0.3110 -0.2394
13688TIP3    H162479   3.134   5.801  12.154 -0.4950 -0.1215 -1.3773
13688TIP3    H262480   3.110   5.950  12.168 -0.3958 -0.1942 -0.3854
13689TIP3   OH262481   3.782   3.896  17.141 -0.2339  0.4705  0.2607
13689TIP3    H162482   3.741   3.809  17.140 -0.4931  0.6007 -1.5172
13689TIP3    H262483   3.709   3.957  17.134 -0.0011  0.8361  0.8992
13690TIP3   OH262484   1.527   0.902  12.322 -0.1897 -0.2969 -0.4356
13690TIP3    H162485   1.615   0.874  12.298  0.2110  0.0308  0.6292
13690TIP3    H262486   1.540   0.967  12.391 -1.2642 -0.1645 -0.3444
13691TIP3   OH262487   2.259   4.845   5.383  0.0576 -0.1171 -0.0845
13691TIP3    H162488   2.167   4.817   5.384  0.3020 -1.1178 -2.0652
13691TIP3    H262489   2.255   4.939   5.396 -1.2132 -0.2328  0.5089
13692TIP3   OH262490   6.087   5.934  12.849 -0.0071 -0.3047  0.1946
13692TIP3    H162491   6.046   6.000  12.794 -0.4764 -0.4661  0.3486
13692TIP3    H262492   6.073   5.852  12.802  0.7926 -0.2665 -0.1217
13693TIP3   OH262493   0.673   6.480   2.388 -0.2368 -0.1332 -0.0269
13693TIP3    H162494   0.614   6.459   2.460  0.0293 -1.0803 -0.0871
13693TIP3    H262495   0.642   6.565   2.356 -0.3007  0.3257  1.2484
13694TIP3   OH262496   2.852   1.421  11.740 -0.2512  0.0489  0.6960
13694TIP3    H162497   2.943   1.443  11.721  0.5795 -2.9883  0.9157
13694TIP3    H262498   2.849   1.406  11.835 -0.9611  0.0994  0.6897
13695TIP3   OH262499   6.354   0.646  10.626  0.0160 -0.2654  0.1994
13695TIP3    H162500   6.430   0.700  10.600 -1.7205  2.2508  0.1563
13695TIP3    H262501   6.392   0.561  10.647  3.1318  1.4076  1.9007
13696TIP3   OH262502   5.289   6.765   2.110 -0.3698 -0.3185 -0.1580
13696TIP3    H162503   5.244   6.681   2.115 -1.1468  0.0840 -0.3242
13696TIP3    H262504   5.359   6.751   2.046 -2.0811 -0.1298 -2.1339
13697TIP3   OH262505   6.563   1.726  16.534  0.2832  0.1150 -0.4247
13697TIP3    H162506   6.581   1.646  16.486  0.8148  0.7011 -1.2218
13697TIP3    H262507   6.468   1.724  16.550  0.2045 -0.3848 -0.9574
13698TIP3   OH262508   3.000   2.332  13.387  0.8595  0.4038  0.0112
13698TIP3    H162509   2.993   2.318  13.481  2.6584  0.8573  0.2299
13698TIP3    H262510   3.003   2.428  13.377  0.6772  0.3582 -0.4980
13699TIP3   OH262511   5.167   4.423  14.406 -0.2257 -0.3026 -0.0220
13699TIP3    H162512   5.107   4.377  14.347 -1.1676  0.7919  0.0561
13699TIP3    H262513   5.220   4.478  14.348  1.1364 -1.6902 -0.1484
13700TIP3   OH262514   0.457   3.891  16.349  0.0107 -0.1389 -0.2610
13700TIP3    H162515   0.377   3.943  16.337  0.3084  0.5321  0.6214
13700TIP3    H262516   0.452   3.861  16.440  0.8798  0.0957 -0.1381
13701TIP3   OH262517   4.659   1.087  15.030 -0.1484  0.7788  0.0359
13701TIP3    H162518   4.713   1.018  14.991  0.6480  0.7245  1.1914
13701TIP3    H262519   4.662   1.159  14.967 -0.2644  0.0833 -0.7682
13702TIP3   OH262520   5.385   2.734   3.018 -0.1452  0.6144  0.5167
13702TIP3    H162521   5.325   2.760   2.948  1.2217 -0.4452 -1.0917
13702TIP3    H262522   5.349   2.651   3.050 -0.9021  1.2173  1.2422
13703TIP3   OH262523   4.663   2.395  13.737 -0.0465 -0.0216 -0.4331
13703TIP3    H162524   4.597   2.410  13.669  1.0121  0.4057 -1.3881
13703TIP3    H262525   4.734   2.349  13.692 -0.7408 -2.7114  1.1479
13704TIP3   OH262526   1.425   2.099  17.043 -0.1117 -0.2037 -0.1150
13704TIP3    H162527   1.346   2.051  17.017  0.5935 -1.6409  0.3507
13704TIP3    H262528   1.396   2.190  17.051 -1.7748 -0.7546  0.3098
13705TIP3   OH262529   0.501   6.043  16.603 -0.2274  0.4406 -0.3245
13705TIP3    H162530   0.437   5.982  16.640 -1.2322  0.8286 -1.4015
13705TIP3    H262531   0.472   6.129  16.632  0.6598  0.5052  0.4156
13706TIP3   OH262532   2.194   3.494   0.078  0.3533  0.1336 -0.3583
13706TIP3    H162533   2.159   3.445   0.004 -0.4541 -0.8103  0.6263
13706TIP3    H262534   2.289   3.480   0.073  0.1239 -1.6633 -0.0157
13707TIP3   OH262535   1.327   2.643  11.963  0.0552  0.1921 -0.1674
13707TIP3    H162536   1.420   2.625  11.946 -0.3271  0.3405 -2.6240
13707TIP3    H262537   1.299   2.693  11.887 -2.5647 -1.6269 -0.4590
13708TIP3   OH262538   1.079   5.243   5.159 -0.3917 -0.0567 -0.2033
13708TIP3    H162539   1.100   5.200   5.242 -1.9229 -3.1006 -1.3462
13708TIP3    H262540   1.009   5.304   5.181 -2.2605 -2.3579  0.4099
13709TIP3   OH262541   1.633   6.428   4.788 -0.1147 -0.0348  0.2480
13709TIP3    H162542   1.629   6.522   4.769 -0.7178  0.4879  2.8123
13709TIP3    H262543   1.680   6.423   4.871 -0.2821 -2.0104  0.2367
13710TIP3   OH262544   3.910   3.317   5.107 -0.2274 -0.2124  0.3867
13710TIP3    H162545   3.968   3.386   5.076  0.0414  0.1477  1.6431
13710TIP3    H262546   3.959   3.236   5.093 -0.5521 -0.1634 -1.1045
13711TIP3   OH262547   1.815   2.988  11.010 -0.0581 -0.2161 -0.8088
13711TIP3    H162548   1.817   3.072  11.058  0.4994 -0.4076 -0.4865
13711TIP3    H262549   1.727   2.983  10.974 -0.1837  0.3849 -0.5941
13712TIP3   OH262550   1.368   2.769  14.072  0.1095  0.0100 -0.1950
13712TIP3    H162551   1.410   2.754  14.157  0.9410 -0.6931 -0.7203
13712TIP3    H262552   1.356   2.864  14.068 -0.4273 -0.0016  0.9318
13713TIP3   OH262553   1.466   5.673  14.753  0.6739 -0.5277 -0.0612
13713TIP3    H162554   1.483   5.591  14.707  0.1698 -0.3661 -0.5476
13713TIP3    H262555   1.413   5.648  14.828 -1.5225 -0.3771 -1.5121
13714TIP3   OH262556   3.942   1.031  12.453 -0.6096  0.1264  0.0678
13714TIP3    H162557   3.950   1.036  12.548 -0.9297  1.8497  0.0082
13714TIP3    H262558   3.862   0.980  12.439  0.2023 -1.3536  0.6980
13715TIP3   OH262559   0.799   4.426  15.175  0.2452 -0.5711 -0.2516
13715TIP3    H162560   0.765   4.490  15.112  1.9837 -0.4296 -1.0749
13715TIP3    H262561   0.893   4.423  15.157  0.2137 -3.2960 -0.1729
13716TIP3   OH262562   1.525   0.906  13.537 -0.1812 -0.2576 -0.1226
13716TIP3    H162563   1.518   0.879  13.629  0.9495 -0.1003  0.0219
13716TIP3    H262564   1.560   0.829  13.492  1.0060  0.2438 -0.0882
13717TIP3   OH262565   1.503   6.166  11.690  0.3098 -0.2737 -0.1413
13717TIP3    H162566   1.552   6.085  11.706  0.0186 -0.3397  0.4119
13717TIP3    H262567   1.422   6.138  11.649 -0.8842 -0.4862  2.2955
13718TIP3   OH262568   2.830   2.567   0.812 -0.2142  0.1981 -0.3205
13718TIP3    H162569   2.745   2.538   0.781  0.7968 -1.9570 -1.1742
13718TIP3    H262570   2.891   2.542   0.743  1.0159  2.3901 -0.0598
13719TIP3   OH262571   6.771   2.884   2.874  0.4794 -0.3965  0.1904
13719TIP3    H162572   6.847   2.908   2.926  0.7002 -1.5367  0.4070
13719TIP3    H262573   6.762   2.789   2.885  0.8962 -0.7763 -2.3177
13720TIP3   OH262574   3.624   0.506   0.691  0.0290  0.5881 -0.2172
13720TIP3    H162575   3.698   0.550   0.733  0.2942  1.7912 -1.8806
13720TIP3    H262576   3.547   0.536   0.740  0.5239  0.2633  0.7682
13721TIP3   OH262577   4.574   1.416   3.238 -0.1211 -0.2414  0.8024
13721TIP3    H162578   4.554   1.498   3.284 -1.9288 -1.7393  2.7370
13721TIP3    H262579   4.563   1.348   3.304  1.0158 -2.1068 -0.8866
13722TIP3   OH262580   4.742   4.133  15.058 -0.4926  0.2107 -0.0274
13722TIP3    H162581   4.715   4.126  14.966  0.3930 -0.6100 -0.2343
13722TIP3    H262582   4.833   4.102  15.058  0.7780  3.7205  0.4946
13723TIP3   OH262583   5.330   4.393  15.369 -0.7236 -0.1348 -0.2173
13723TIP3    H162584   5.276   4.443  15.431  0.1560 -0.2138  0.6316
13723TIP3    H262585   5.308   4.302  15.387  1.4963 -0.3030  1.8721
13724TIP3   OH262586   5.830   4.552   5.891  0.5016  0.1155 -0.3367
13724TIP3    H162587   5.917   4.533   5.928  0.6602  0.1015 -0.7126
13724TIP3    H262588   5.772   4.488   5.931  0.1829  1.6938  1.8435
13725TIP3   OH262589   4.142   1.744   5.402 -0.0108 -0.2155  0.4335
13725TIP3    H162590   4.094   1.811   5.354 -0.5768  0.7591  2.3167
13725TIP3    H262591   4.083   1.717   5.472  0.8070 -1.5864  0.6293
13726TIP3   OH262592   0.791   6.541   3.256  0.1547  0.0985 -0.2520
13726TIP3    H162593   0.775   6.580   3.342  2.5394 -3.4823  1.9840
13726TIP3    H262594   0.705   6.539   3.214 -1.7858 -1.3742  3.5759
13727TIP3   OH262595   4.427   4.410   0.155 -1.0208 -0.5103  0.1108
13727TIP3    H162596   4.458   4.451   0.074  0.2940 -1.9831 -0.1495
13727TIP3    H262597   4.420   4.317   0.134  0.9073 -1.1613  2.1255
13728TIP3   OH262598   6.036   2.117   5.477  0.2875  0.0816 -0.1969
13728TIP3    H162599   6.049   2.050   5.410 -0.7475 -0.2750 -0.0551
13728TIP3    H262600   5.956   2.090   5.523  1.5006 -0.2022  1.8080
13729TIP3   OH262601   0.651   4.700  12.867  0.3136 -0.1707 -0.0159
13729TIP3    H162602   0.609   4.696  12.781 -0.8002 -1.3871  0.5713
13729TIP3    H262603   0.667   4.608  12.891  4.3704  0.2330 -0.7135
13730TIP3   OH262604   5.065   4.695  15.146 -0.2207  0.2266  0.5331
13730TIP3    H162605   5.051   4.690  15.051 -1.0083  1.6289  0.5604
13730TIP3    H262606   5.155   4.726  15.156  0.3753 -1.3912  0.2680
13731TIP3   OH262607   4.096   6.194   2.290  0.9991  0.1387 -0.3339
13731TIP3    H162608   4.088   6.234   2.377  1.6880  2.5863 -1.3416
13731TIP3    H262609   4.050   6.110   2.298 -0.7195  1.2112  1.8302
13732TIP3   OH262610   2.181   2.605  11.464  0.3733  0.4519 -0.9234
13732TIP3    H162611   2.099   2.605  11.413  0.3925 -1.3756 -0.9750
13732TIP3    H262612   2.173   2.682  11.520 -2.0119 -0.4540  0.0609
13733TIP3   OH262613   5.601   5.997   1.239  0.1318 -0.1358  0.0784
13733TIP3    H162614   5.512   6.025   1.259  1.0503  1.2681  2.3781
13733TIP3    H262615   5.616   6.027   1.149 -2.3767 -2.2357 -1.1422
13734TIP3   OH262616   4.032   1.084   2.558  0.0498  0.2509  0.1980
13734TIP3    H162617   3.990   1.078   2.643 -1.8854 -0.4894 -0.7706
13734TIP3    H262618   3.979   1.029   2.501  1.5144  0.4483 -1.4150
13735TIP3   OH262619   0.148   0.203  11.468  0.0367  0.4322 -0.0976
13735TIP3    H162620   0.191   0.249  11.396  2.3474  0.1317  1.0389
13735TIP3    H262621   0.220   0.165  11.518 -1.6275 -0.9807  1.2941
13736TIP3   OH262622   4.011   2.634   5.662 -0.0790 -0.5659  1.1286
13736TIP3    H162623   4.087   2.620   5.718  1.4563 -2.1364 -1.2479
13736TIP3    H262624   3.944   2.574   5.696  0.9470 -1.7536  1.0644
13737TIP3   OH262625   0.556   5.147  16.173  0.0377 -0.4088 -0.5853
13737TIP3    H162626   0.465   5.173  16.159 -0.8486 -2.8511  0.5203
13737TIP3    H262627   0.580   5.101  16.093  1.2525  2.6555 -2.0644
13738TIP3   OH262628   0.645   5.421  13.042 -0.6593  0.1720  0.0118
13738TIP3    H162629   0.564   5.385  13.078 -0.8019  0.5120  0.0379
13738TIP3    H262630   0.669   5.491  13.102  0.0184 -0.3566  0.3714
13739TIP3   OH262631   3.281   0.131  16.488  0.5668 -0.0512 -0.1766
13739TIP3    H162632   3.218   0.197  16.459 -0.7071 -1.1970 -0.0797
13739TIP3    H262633   3.312   0.091  16.406 -0.3791 -0.8875 -0.1249
13740TIP3   OH262634   2.108   4.540   4.742  0.4409 -0.2252 -0.0549
13740TIP3    H162635   2.044   4.605   4.712 -0.2628 -0.9672 -0.1712
13740TIP3    H262636   2.158   4.586   4.810  0.0436  0.4813 -0.2314
13741TIP3   OH262637   5.031   3.812   3.596  0.1211  0.5457  0.1927
13741TIP3    H162638   5.058   3.796   3.506  3.1989  5.3718  0.0909
13741TIP3    H262639   5.098   3.768   3.649 -0.4207 -0.3739  0.1207
13742TIP3   OH262640   0.738   2.929   1.416 -0.5691  0.1626  0.2222
13742TIP3    H162641   0.757   2.859   1.478 -0.1232 -0.2503 -0.3683
13742TIP3    H262642   0.680   2.988   1.463 -0.5736 -0.3638  0.8858
13743TIP3   OH262643   5.098   1.329  12.348 -0.2032 -0.2211 -0.5284
13743TIP3    H162644   5.111   1.257  12.286 -1.3293  0.4600 -1.5802
13743TIP3    H262645   5.008   1.318  12.378 -0.1453  0.3406 -0.1484
13744TIP3   OH262646   4.186   3.692   4.822  0.5942 -0.8572 -0.0102
13744TIP3    H162647   4.220   3.679   4.734  1.5877 -0.3285  0.2852
13744TIP3    H262648   4.095   3.719   4.809 -0.0888 -3.4502 -0.7585
13745TIP3   OH262649   4.042   1.471   0.269  0.0423 -0.0421  0.3661
13745TIP3    H162650   4.035   1.416   0.347 -1.4927  0.5955  0.6953
13745TIP3    H262651   4.071   1.412   0.200  2.0484 -0.4916  1.5300
13746TIP3   OH262652   0.793   2.355   0.574  0.0006 -0.0220 -0.0538
13746TIP3    H162653   0.723   2.289   0.575  0.3390 -0.3796 -0.0643
13746TIP3    H262654   0.840   2.339   0.493 -0.2743  0.6119 -0.3418
13747TIP3   OH262655   2.092   5.492  16.819  0.1451  0.5381  0.4538
13747TIP3    H162656   2.035   5.470  16.893  2.6498 -0.7317  2.0973
13747TIP3    H262657   2.089   5.587  16.813 -0.3774  0.6250  1.9564
13748TIP3   OH262658   4.143   1.682   3.114 -0.0770 -0.4970  0.0153
13748TIP3    H162659   4.231   1.708   3.140 -0.7001  0.8311  0.8948
13748TIP3    H262660   4.093   1.683   3.196 -1.0607 -0.5551 -0.5759
13749TIP3   OH262661   2.875   5.008   0.992  0.0674  0.1440  0.1304
13749TIP3    H162662   2.949   4.948   0.983  0.8100  0.8230  1.4612
13749TIP3    H262663   2.873   5.029   1.086 -2.2909 -0.4721  0.2571
13750TIP3   OH262664   1.180   0.190  11.221 -0.0033 -0.5656 -0.3528
13750TIP3    H162665   1.100   0.137  11.224  0.4205 -1.2549 -1.0352
13750TIP3    H262666   1.201   0.196  11.128  0.2881  0.3061 -0.2347
13751TIP3   OH262667   5.167   6.214  14.162  0.0564  0.8273  0.1684
13751TIP3    H162668   5.260   6.197  14.146  0.1340  1.7605 -0.4366
13751TIP3    H262669   5.127   6.208  14.076 -0.6931 -1.0268  0.6400
13752TIP3   OH262670   1.909   1.174   3.054  0.1645  0.1767 -0.1748
13752TIP3    H162671   1.959   1.215   3.124  0.8953 -0.3224 -0.3935
13752TIP3    H262672   1.975   1.131   3.000 -0.2126  1.8569 -2.0579
13753TIP3   OH262673   5.390   6.202  13.204 -0.4153  0.4006 -0.4774
13753TIP3    H162674   5.478   6.196  13.169 -0.3444  0.6263 -0.3402
13753TIP3    H262675   5.370   6.114  13.236  0.0705  0.5536  0.2351
13754TIP3   OH262676   2.372   0.862   3.469 -0.2435  0.0024  0.0249
13754TIP3    H162677   2.402   0.832   3.555  1.1907  3.2763  0.7272
13754TIP3    H262678   2.420   0.807   3.407  1.1914 -0.2100  1.2754
13755TIP3   OH262679   3.781   1.598  10.489 -0.3927  0.3003 -0.4571
13755TIP3    H162680   3.713   1.665  10.493 -1.0415 -0.4191  1.0551
13755TIP3    H262681   3.757   1.536  10.558  1.3546 -0.3820 -0.4499
13756TIP3   OH262682   5.421   2.837   1.576  0.4822 -0.3168  0.5041
13756TIP3    H162683   5.402   2.822   1.483 -0.2673  0.3743  0.5434
13756TIP3    H262684   5.360   2.906   1.602  0.4728 -0.7248  1.5905
13757TIP3   OH262685   6.121   2.351   1.704 -0.2924 -0.2279 -0.7792
13757TIP3    H162686   6.169   2.270   1.722 -0.8032 -0.6855 -1.4960
13757TIP3    H262687   6.157   2.414   1.767 -0.6293 -1.2817  0.4838
13758TIP3   OH262688   1.353   0.300   4.702 -0.4968  0.5307  0.4067
13758TIP3    H162689   1.447   0.293   4.692 -0.2104  1.1551  2.4474
13758TIP3    H262690   1.327   0.215   4.738 -0.9287 -0.1816 -1.5520
13759TIP3   OH262691   3.351   5.665  11.323 -0.5811  0.4747 -0.0840
13759TIP3    H162692   3.355   5.705  11.237  0.8994  1.6611  0.5111
13759TIP3    H262693   3.318   5.576  11.307  0.7700  0.2831 -1.9905
13760TIP3   OH262694   2.039   4.420  13.453 -0.6973  0.5816  0.0797
13760TIP3    H162695   2.050   4.460  13.539 -0.7776  0.4039  0.1736
13760TIP3    H262696   2.083   4.480  13.393  2.5552 -1.0847  0.6848
13761TIP3   OH262697   4.990   2.603  14.513  0.1925 -0.3475 -0.2400
13761TIP3    H162698   4.984   2.681  14.569  0.6702 -0.4050 -0.1091
13761TIP3    H262699   5.039   2.540  14.566  1.2511 -0.1662 -0.9981
13762TIP3   OH262700   3.007   4.523  15.737 -0.3116  0.6296 -0.0021
13762TIP3    H162701   2.977   4.611  15.715  1.1299  1.1452  0.0787
13762TIP3    H262702   3.049   4.532  15.822  0.0461 -0.0969 -0.1032
13763TIP3   OH262703   3.532   0.568  16.801  0.1765  0.5111 -0.0043
13763TIP3    H162704   3.442   0.595  16.822  0.4619  1.8206 -0.4074
13763TIP3    H262705   3.521   0.496  16.739 -0.6182 -0.8497  1.6935
13764TIP3   OH262706   5.754   4.652  16.169 -0.2875 -0.2051  0.8319
13764TIP3    H162707   5.674   4.635  16.120 -1.0223  3.6905  0.5264
13764TIP3    H262708   5.727   4.650  16.261 -1.2480  3.0694  0.6769
13765TIP3   OH262709   1.542   4.969   4.526  0.0897 -0.1628 -0.0274
13765TIP3    H162710   1.579   4.881   4.538  1.6412  0.5401  0.5052
13765TIP3    H262711   1.555   4.987   4.433 -0.9523 -0.7912 -0.3110
13766TIP3   OH262712   1.890   5.996  16.494 -0.7215  0.4838  0.2264
13766TIP3    H162713   1.893   6.029  16.584 -0.4638  3.4806 -0.8225
13766TIP3    H262714   1.803   6.022  16.462 -1.3816 -1.8434  0.0366
13767TIP3   OH262715   2.789   4.857  11.491  0.5857 -0.2398  0.3184
13767TIP3    H162716   2.846   4.830  11.420 -0.9457  1.2448 -1.5573
13767TIP3    H262717   2.764   4.947  11.469 -1.2883 -0.3389  1.8245
13768TIP3   OH262718   4.934   3.878   1.050 -0.3770 -0.1362  0.4852
13768TIP3    H162719   5.017   3.834   1.033  0.2423  0.7832  1.0978
13768TIP3    H262720   4.959   3.962   1.089 -1.5072  1.2167 -1.6449
13769TIP3   OH262721   4.403   0.944  12.241  0.1047  0.0756  0.2721
13769TIP3    H162722   4.493   0.938  12.274  0.0634 -0.6797  0.2536
13769TIP3    H262723   4.404   0.894  12.159 -0.1640  0.6566 -0.0868
13770TIP3   OH262724   2.376   3.037   2.641 -0.1431  0.5616  0.0289
13770TIP3    H162725   2.417   2.991   2.568 -0.0223  0.1132  0.3800
13770TIP3    H262726   2.437   3.108   2.662  0.4482 -0.0874  0.5343
13771TIP3   OH262727   4.804   6.658  12.929 -0.1332  0.3077 -0.1114
13771TIP3    H162728   4.811   6.683  13.021 -3.7381 -0.2460  0.3588
13771TIP3    H262729   4.791   6.740  12.882 -1.0667  0.3491  0.2101
13772TIP3   OH262730   1.098   5.811   3.853  0.5932  0.1738  0.0427
13772TIP3    H162731   1.171   5.834   3.797  2.0674 -1.3602  1.2776
13772TIP3    H262732   1.110   5.865   3.931  1.3666 -1.2469  0.9330
13773TIP3   OH262733   0.108   3.919   5.466 -1.0228 -0.3552 -0.0910
13773TIP3    H162734   0.171   3.867   5.415 -1.9004 -0.3018 -1.2573
13773TIP3    H262735   0.163   3.969   5.527  0.1513  0.2555 -1.6034
13774TIP3   OH262736   0.381   5.086  16.428 -0.2863  0.6025 -0.3871
13774TIP3    H162737   0.427   5.041  16.358 -1.3166  0.0671 -0.7332
13774TIP3    H262738   0.329   5.018  16.471  1.4204  0.6381  1.8208
13775TIP3   OH262739   4.703   5.355  15.691 -0.4225 -0.6030 -0.2432
13775TIP3    H162740   4.726   5.444  15.716 -0.1178  0.2128 -3.1873
13775TIP3    H262741   4.615   5.363  15.652 -0.0056 -1.4186 -1.3683
13776TIP3   OH262742   0.845   0.322   4.100  0.0637 -0.2805 -0.2494
13776TIP3    H162743   0.882   0.330   4.188  0.3947  0.0636 -0.4157
13776TIP3    H262744   0.754   0.298   4.114  0.1599 -0.4026  0.1863
13777TIP3   OH262745   0.391   6.601   4.201 -0.7741  0.3664 -0.7598
13777TIP3    H162746   0.431   6.636   4.280  0.3627  0.3396 -1.3140
13777TIP3    H262747   0.302   6.575   4.228 -0.6003  0.9099  0.3498
13778TIP3   OH262748   3.118   3.530   3.618  0.6659 -0.3896 -0.3085
13778TIP3    H162749   3.176   3.496   3.549  1.6417  0.1466  0.2464
13778TIP3    H262750   3.171   3.528   3.697  0.4998  1.7465 -0.1246
13779TIP3   OH262751   0.077   2.725   1.037 -0.2565 -0.8827  1.3735
13779TIP3    H162752   0.025   2.779   1.096  1.4631  0.2865  1.8305
13779TIP3    H262753   0.043   2.636   1.050 -2.8285 -0.0011  0.9092
13780TIP3   OH262754   1.274   2.052  14.052  0.7025  0.1283  0.2206
13780TIP3    H162755   1.341   2.016  14.110  1.4971  0.0019 -0.7663
13780TIP3    H262756   1.238   1.977  14.006 -1.2338  0.0075  1.8807
13781TIP3   OH262757   0.719   4.103   0.797  0.0727  0.1083  0.3754
13781TIP3    H162758   0.742   4.064   0.881  2.0027  0.3567  0.0056
13781TIP3    H262759   0.684   4.031   0.745 -0.7934 -0.1192  1.2810
13782TIP3   OH262760   5.074   4.945   2.304 -0.4084  0.4497 -0.4431
13782TIP3    H162761   5.062   4.988   2.219 -0.4589  0.2082 -0.5608
13782TIP3    H262762   5.139   4.877   2.286  0.4454  1.1467 -0.0244
13783TIP3   OH262763   3.988   1.422  14.400 -0.3752 -0.0277  0.0592
13783TIP3    H162764   4.033   1.410  14.316 -0.0091 -1.8978  0.5004
13783TIP3    H262765   4.055   1.460  14.457 -0.5380  0.9605 -0.3836
13784TIP3   OH262766   0.463   1.831   3.991  0.3742 -0.6712  0.2573
13784TIP3    H162767   0.430   1.746   4.020 -1.7887  0.3503  0.8752
13784TIP3    H262768   0.427   1.843   3.903  2.4871 -1.3429 -0.7377
13785TIP3   OH262769   3.862   0.357   1.336  0.0285 -0.4914  0.2173
13785TIP3    H162770   3.788   0.301   1.357  0.2901 -0.9910 -0.1864
13785TIP3    H262771   3.830   0.446   1.349 -1.0127 -0.6547 -1.1290
13786TIP3   OH262772   2.808   3.323  12.473 -0.1086  0.0023 -0.5510
13786TIP3    H162773   2.789   3.394  12.535  0.1702  0.5703 -1.1101
13786TIP3    H262774   2.821   3.246  12.528  0.7442  0.6332  0.1437
13787TIP3   OH262775   1.812   4.558   2.845 -0.3910 -0.5372 -0.6864
13787TIP3    H162776   1.724   4.522   2.835  0.1144 -2.6760  1.8758
13787TIP3    H262777   1.798   4.648   2.872 -1.8454 -1.2640  1.0857
13788TIP3   OH262778   2.841   3.698   6.458 -0.5585 -0.5891  0.1476
13788TIP3    H162779   2.930   3.732   6.469 -0.5054 -0.8818  0.6263
13788TIP3    H262780   2.785   3.763   6.500 -0.6297 -0.0767 -0.7251
13789TIP3   OH262781   5.647   0.540  13.937  0.1989  0.4438 -0.3633
13789TIP3    H162782   5.721   0.490  13.972 -0.1289  1.4628  1.8567
13789TIP3    H262783   5.570   0.491  13.965 -0.0607  1.2198  0.3083
13790TIP3   OH262784   0.313   1.483  15.226 -0.1110  0.4600  0.7950
13790TIP3    H162785   0.315   1.394  15.263  0.5028  0.9302  1.9090
13790TIP3    H262786   0.236   1.523  15.265  0.9404  1.1982  2.1795
13791TIP3   OH262787   4.922   6.308   3.314 -0.2574 -1.0044  0.2289
13791TIP3    H162788   4.926   6.259   3.397 -0.0315 -0.7271  0.3832
13791TIP3    H262789   4.905   6.398   3.341 -1.5709 -1.1506 -0.1012
13792TIP3   OH262790   0.306   6.722  12.040 -0.3746  0.2210 -0.0390
13792TIP3    H162791   0.215   6.696  12.052 -0.4290  0.7985  0.8570
13792TIP3    H262792   0.335   6.747  12.128  0.9386 -0.8836 -0.1466
13793TIP3   OH262793   1.671   4.543  14.027 -0.2557 -0.5682 -0.3928
13793TIP3    H162794   1.687   4.513  14.116  1.3653  3.0378  0.5923
13793TIP3    H262795   1.582   4.579  14.030  0.7183  1.8268  0.4411
13794TIP3   OH262796   1.813   5.691   1.402  0.9849  0.3568 -0.0660
13794TIP3    H162797   1.899   5.651   1.386  0.8024  0.2894 -0.9199
13794TIP3    H262798   1.750   5.625   1.376  0.6479 -0.0652  1.7666
13795TIP3   OH262799   5.704   1.021   1.988  0.5323 -0.1838  0.0711
13795TIP3    H162800   5.759   1.099   1.992  0.9437 -0.3221 -2.2138
13795TIP3    H262801   5.617   1.053   1.963  0.7556 -0.4467 -1.1023
13796TIP3   OH262802   3.345   4.999   4.638  0.7033 -0.6624  0.4569
13796TIP3    H162803   3.346   5.085   4.678  2.0315 -1.1778  1.5541
13796TIP3    H262804   3.399   5.008   4.560  0.8451 -0.5007  0.5740
13797TIP3   OH262805   2.909   3.749  12.499 -0.5030  0.0712 -0.2708
13797TIP3    H162806   2.884   3.700  12.577 -1.1376  1.3049  0.3019
13797TIP3    H262807   2.883   3.692  12.426  1.7827 -1.9301  0.3880
13798TIP3   OH262808   6.772   2.332  16.323 -0.2256 -0.8572  0.1595
13798TIP3    H162809   6.738   2.250  16.288 -1.1890 -0.4190  0.0621
13798TIP3    H262810   6.718   2.351  16.399 -0.4862  0.0664 -0.2464
13799TIP3   OH262811   1.287   1.171  11.719  0.4315  0.0557 -0.4763
13799TIP3    H162812   1.381   1.157  11.728  0.4360 -0.0935 -0.7417
13799TIP3    H262813   1.270   1.159  11.625 -0.0919 -1.3931 -0.2150
13800TIP3   OH262814   1.364   5.636   6.331 -0.1605 -0.4477 -0.1304
13800TIP3    H162815   1.314   5.710   6.365 -1.4467 -1.9448  1.3190
13800TIP3    H262816   1.298   5.580   6.290  0.7087 -1.1011 -0.6471
13801TIP3   OH262817   4.380   4.874   3.841  0.2771  0.2972 -0.1390
13801TIP3    H162818   4.468   4.881   3.878  0.1164  0.6600  0.1783
13801TIP3    H262819   4.321   4.893   3.914 -0.1180 -1.3374 -0.0057
13802TIP3   OH262820   0.730   5.555   3.736  0.5942  0.4009  0.6606
13802TIP3    H162821   0.648   5.509   3.719  0.1984  0.2494  2.7821
13802TIP3    H262822   0.796   5.505   3.687 -0.6106  0.7880 -1.4086
13803TIP3   OH262823   5.710   5.265   4.125 -0.0648 -0.8599 -0.0306
13803TIP3    H162824   5.673   5.177   4.121  0.1941 -0.9540 -0.4297
13803TIP3    H262825   5.659   5.315   4.060  0.2032 -0.8750 -0.2532
13804TIP3   OH262826   5.676   5.358  12.264  0.5908 -0.2556 -0.0428
13804TIP3    H162827   5.766   5.333  12.286 -0.0581 -1.3093  1.5391
13804TIP3    H262828   5.621   5.296  12.312 -0.9800 -0.7202 -2.3499
13805TIP3   OH262829   3.676   5.280  11.650  0.0386  0.1698 -0.9065
13805TIP3    H162830   3.611   5.350  11.648  0.9802  1.0818 -0.1627
13805TIP3    H262831   3.662   5.232  11.568 -0.2522  1.5735 -1.6995
13806TIP3   OH262832   4.886   0.715   0.202 -0.1199  0.2437  0.3508
13806TIP3    H162833   4.819   0.756   0.257  2.0076  1.1208  2.3394
13806TIP3    H262834   4.886   0.623   0.229 -0.2600  0.3127  0.5889
13807TIP3   OH262835   2.153   3.750  13.193  0.2397 -0.2345 -0.4301
13807TIP3    H162836   2.198   3.666  13.198  2.6578  1.0675  0.5481
13807TIP3    H262837   2.177   3.795  13.274 -1.2993  1.2589 -0.7708
13808TIP3   OH262838   6.021   4.811  13.762  0.7302  0.3872 -0.0315
13808TIP3    H162839   6.030   4.716  13.759 -0.7696  0.2979 -3.6406
13808TIP3    H262840   6.099   4.841  13.809  1.0553 -2.6034  1.4638
13809TIP3   OH262841   2.596   1.419  15.043  0.3344 -0.6949 -0.4040
13809TIP3    H162842   2.594   1.482  14.971  1.7650  0.6073  0.6516
13809TIP3    H262843   2.684   1.382  15.040  0.1685 -1.1397  0.2387
13810TIP3   OH262844   4.357   1.502   0.663 -0.2233 -0.1342  0.2556
13810TIP3    H162845   4.288   1.455   0.616 -0.7672  0.2200  0.6929
13810TIP3    H262846   4.416   1.434   0.693  0.0072 -0.3856 -0.7409
13811TIP3   OH262847   4.995   3.081  12.094  1.1523  0.2821 -0.0175
13811TIP3    H162848   5.059   3.148  12.069  1.1737 -0.1834 -1.2104
13811TIP3    H262849   4.952   3.118  12.171  1.2818  1.6029 -0.5614
13812TIP3   OH262850   1.816   6.021  11.247  0.2547  0.5534 -0.0252
13812TIP3    H162851   1.791   5.999  11.158  0.9987  3.1212 -0.8959
13812TIP3    H262852   1.733   6.036  11.293 -0.0631  1.3207 -0.8485
13813TIP3   OH262853   2.773   5.063   5.323  0.4476  0.2181  0.3243
13813TIP3    H162854   2.777   5.091   5.415  1.6550 -0.2960  0.4315
13813TIP3    H262855   2.680   5.068   5.301  0.1743  0.5505  1.5133
13814TIP3   OH262856   3.835   2.481   1.629  0.4914 -0.1085 -0.3986
13814TIP3    H162857   3.917   2.432   1.632 -1.0023 -2.6039  3.2527
13814TIP3    H262858   3.783   2.437   1.562 -0.2114 -2.6421  1.7209
13815TIP3   OH262859   4.503   0.507  14.376 -0.4708 -0.5020 -0.7499
13815TIP3    H162860   4.439   0.471  14.438 -1.0750  0.2607 -0.9284
13815TIP3    H262861   4.575   0.444  14.377 -2.1290 -2.4844 -2.1350
13816TIP3   OH262862   2.108   6.289  12.420 -0.4073  0.4654  0.5457
13816TIP3    H162863   2.086   6.275  12.328 -1.0401  0.2837  0.7168
13816TIP3    H262864   2.200   6.265  12.427 -0.3232  0.5961 -0.0652
13817TIP3   OH262865   4.751   0.573  13.792  0.2092 -0.3994 -0.1833
13817TIP3    H162866   4.777   0.620  13.712  1.3717  0.1548  0.5138
13817TIP3    H262867   4.731   0.484  13.762  0.7969 -0.2349 -1.0648
13818TIP3   OH262868   1.861   4.787   1.352  0.3704  0.3044 -0.0732
13818TIP3    H162869   1.876   4.712   1.295  2.6617  1.4475 -1.0188
13818TIP3    H262870   1.820   4.852   1.296  0.2956  0.5259  0.2384
13819TIP3   OH262871   3.114   1.322   1.797 -0.0587  0.7469  1.2718
13819TIP3    H162872   3.025   1.300   1.823  0.2534  0.0535  1.7737
13819TIP3    H262873   3.104   1.367   1.713 -0.9362  1.4058  1.7201
13820TIP3   OH262874   1.014   5.710   2.048 -0.6782  0.0974  0.0554
13820TIP3    H162875   0.947   5.755   2.100 -1.7570 -0.4325 -0.8726
13820TIP3    H262876   1.068   5.664   2.112 -0.8734  0.9588  0.8448
13821TIP3   OH262877   0.095   5.235  16.642  0.8197  0.2656  0.0333
13821TIP3    H162878   0.161   5.237  16.711 -0.5286 -2.0788  1.4511
13821TIP3    H262879   0.017   5.202  16.684 -1.5080  3.5025 -1.4921
13822TIP3   OH262880   2.870   3.617   4.327 -0.2647  0.0934  0.5218
13822TIP3    H162881   2.777   3.601   4.342  0.3689 -2.9345  1.6634
13822TIP3    H262882   2.889   3.572   4.244 -0.1655  2.2957 -0.6952
13823TIP3   OH262883   3.450   2.775   3.953  0.0299  0.0859  0.2440
13823TIP3    H162884   3.489   2.690   3.934 -0.2384 -0.7026  3.0117
13823TIP3    H262885   3.516   2.819   4.007 -1.4718  0.0488  2.1556
13824TIP3   OH262886   6.784   6.232   0.077  0.5626 -0.4962 -0.0057
13824TIP3    H162887   6.846   6.177   0.028  0.2930 -0.6887 -0.1298
13824TIP3    H262888   6.701   6.185   0.073 -0.1937  0.9314 -1.9242
13825TIP3   OH262889   3.002   5.774  13.608 -0.3767 -0.1612  0.0372
13825TIP3    H162890   2.995   5.744  13.698  1.8098  4.7333  2.0247
13825TIP3    H262891   2.926   5.831  13.595 -0.0442  0.1145 -0.7664
13826TIP3   OH262892   4.770   3.051  15.588 -0.1838 -0.4482  0.1822
13826TIP3    H162893   4.712   3.050  15.664  0.1769  1.8010  0.5116
13826TIP3    H262894   4.855   3.076  15.623  0.2096 -0.3355 -0.8266
13827TIP3   OH262895   5.294   1.880  16.604 -0.1604 -0.4848 -0.2331
13827TIP3    H162896   5.369   1.890  16.663  0.1447 -0.2482 -0.6595
13827TIP3    H262897   5.219   1.868  16.663  0.0831  0.1271  0.2064
13828TIP3   OH262898   0.558   6.342   1.300 -0.0397 -0.2047  0.2464
13828TIP3    H162899   0.577   6.420   1.247  0.4646  0.6736  1.6997
13828TIP3    H262900   0.463   6.339   1.304 -0.0595  0.4115  0.2926
13829TIP3   OH262901   6.159   4.166  14.021  0.2657 -0.0993 -0.1229
13829TIP3    H162902   6.247   4.204  14.028 -0.0291  0.7502 -0.9787
13829TIP3    H262903   6.131   4.154  14.112  1.1251 -0.0502  0.1527
13830TIP3   OH262904   6.073   5.911  16.467 -0.3048  0.3614  0.1163
13830TIP3    H162905   6.161   5.948  16.460  0.2731 -0.8319  0.8502
13830TIP3    H262906   6.045   5.932  16.557 -1.5842  2.4493 -0.7235
13831TIP3   OH262907   1.259   6.282   1.547 -1.1983  0.4761  0.2463
13831TIP3    H162908   1.170   6.265   1.515 -2.0263 -0.0991  2.7126
13831TIP3    H262909   1.301   6.195   1.548 -0.4953  0.7818 -1.1652
13832TIP3   OH262910   0.328   1.321   2.957  0.3197  0.5124  0.2864
13832TIP3    H162911   0.243   1.353   2.987  0.1236  2.9651 -2.6902
13832TIP3    H262912   0.383   1.399   2.956  2.5844 -0.9998  1.9158
13833TIP3   OH262913   1.459   2.943   3.402 -0.5911  0.3384  0.3534
13833TIP3    H162914   1.464   2.922   3.308  0.0775 -1.6182  0.8065
13833TIP3    H262915   1.479   2.860   3.446 -2.3194  0.8909  2.2326
13834TIP3   OH262916   4.173   2.996  16.417 -0.6660 -0.4052  0.4726
13834TIP3    H162917   4.231   3.050  16.470 -1.9264 -0.4587  1.9133
13834TIP3    H262918   4.193   2.906  16.443 -0.9487 -0.4584  0.5083
13835TIP3   OH262919   4.708   3.597  13.816 -0.3546 -0.2960  0.5139
13835TIP3    H162920   4.638   3.576  13.878 -0.7234 -1.9075 -0.4157
13835TIP3    H262921   4.743   3.511  13.790  1.6117  0.4750  0.5686
13836TIP3   OH262922   5.265   4.292   0.276  0.1391  0.2195 -0.1060
13836TIP3    H162923   5.252   4.382   0.246 -2.3333 -0.0389  0.0784
13836TIP3    H262924   5.176   4.259   0.292  0.8183 -3.0522 -2.5661
13837TIP3   OH262925   2.784   3.396   6.961 -0.4861 -0.0385  0.4717
13837TIP3    H162926   2.776   3.350   6.877 -0.7190  0.2821  0.3187
13837TIP3    H262927   2.840   3.339   7.014  0.5707  0.3008 -0.2820
13838TIP3   OH262928   5.993   5.014  10.777  0.3495  0.0240  0.1090
13838TIP3    H162929   6.071   5.053  10.736  0.6799  0.6002  1.2714
13838TIP3    H262930   6.024   4.932  10.815 -0.4854 -1.7762 -2.9145
13839TIP3   OH262931   2.374   2.399  13.588  0.0957  0.1236  0.4050
13839TIP3    H162932   2.367   2.459  13.513 -0.4916  0.3993  0.6797
13839TIP3    H262933   2.340   2.449  13.662  0.1922 -0.3327  0.7612
13840TIP3   OH262934   5.260   6.399   4.746 -0.4127  0.0470  0.0680
13840TIP3    H162935   5.173   6.440   4.746 -0.5686 -0.2724 -0.6127
13840TIP3    H262936   5.246   6.315   4.704  0.2388  0.0092 -0.0704
13841TIP3   OH262937   2.117   1.353  13.804  0.1269 -0.4016 -0.0649
13841TIP3    H162938   2.134   1.332  13.896 -0.6238 -1.7869 -0.2244
13841TIP3    H262939   2.025   1.380  13.802 -0.4039 -2.1394 -0.6605
13842TIP3   OH262940   1.158   0.229  15.158 -0.1477  0.4827 -0.1328
13842TIP3    H162941   1.077   0.190  15.127  0.4089  0.0215 -1.0265
13842TIP3    H262942   1.194   0.275  15.082  0.8509 -0.0409  0.0103
13843TIP3   OH262943   3.683   3.778  16.133  0.5378 -0.6377  0.3368
13843TIP3    H162944   3.773   3.753  16.153  0.1386  0.2908  3.7392
13843TIP3    H262945   3.691   3.866  16.095  1.0829 -0.3681  1.0467
13844TIP3   OH262946   1.292   2.266  15.470 -0.1201 -0.3679 -0.2269
13844TIP3    H162947   1.282   2.198  15.403 -2.0830 -0.3628  0.0418
13844TIP3    H262948   1.289   2.218  15.553 -2.5909  0.1410 -0.0040
13845TIP3   OH262949   2.913   0.987  13.321  0.5070  0.5298  0.7957
13845TIP3    H162950   2.919   1.065  13.377  0.0133  0.0825  1.4872
13845TIP3    H262951   2.844   0.934  13.362  0.2664  0.1101 -0.1442
13846TIP3   OH262952   3.262   2.554   1.291  0.7002  0.2826  0.9237
13846TIP3    H162953   3.310   2.472   1.306  2.4066  1.5181  2.5887
13846TIP3    H262954   3.305   2.617   1.350 -0.7693  2.2890 -0.1047
13847TIP3   OH262955   5.701   4.165  16.564 -0.0843  0.0854 -0.4867
13847TIP3    H162956   5.780   4.159  16.617 -0.3307  1.3677  0.0465
13847TIP3    H262957   5.634   4.119  16.616  0.3926 -1.3427 -1.1197
13848TIP3   OH262958   4.989   4.258   1.071 -0.4463  0.2260  0.0627
13848TIP3    H162959   4.966   4.299   1.154  1.4368  2.4327 -0.4746
13848TIP3    H262960   5.080   4.283   1.055 -0.7349 -0.2391 -2.6116
13849TIP3   OH262961   3.284   6.693   4.909 -0.6595  0.2238  0.0431
13849TIP3    H162962   3.268   6.787   4.918  1.2034  0.8501 -2.5615
13849TIP3    H262963   3.372   6.681   4.944  0.5668  0.1257 -2.9166
13850TIP3   OH262964   0.765   2.540   3.423  0.1807  0.0922 -0.1284
13850TIP3    H162965   0.731   2.617   3.468 -1.1604 -0.4472 -0.1788
13850TIP3    H262966   0.788   2.571   3.335  0.7350  0.6739  0.2205
13851TIP3   OH262967   1.376   0.279   3.541  0.1876 -0.2849  0.4082
13851TIP3    H162968   1.359   0.372   3.523  1.3466  0.1870  1.6989
13851TIP3    H262969   1.291   0.244   3.568  0.1649  0.8704  1.8744
13852TIP3   OH262970   6.471   3.528   2.344 -0.1914  0.1001 -0.0588
13852TIP3    H162971   6.534   3.479   2.290  0.0982  0.8332 -0.3881
13852TIP3    H262972   6.410   3.566   2.281  0.7102  1.7525  0.0428
13853TIP3   OH262973   2.905   3.612  14.008  0.0823  0.0785  0.5607
13853TIP3    H162974   2.891   3.702  13.979 -1.5346 -0.0698  0.8550
13853TIP3    H262975   2.832   3.563  13.971  1.0490 -1.1565  0.2584
13854TIP3   OH262976   3.458   6.006  16.801  0.6785 -0.3365 -0.4348
13854TIP3    H162977   3.448   6.097  16.773  3.5317  0.5767  1.3437
13854TIP3    H262978   3.368   5.975  16.811 -0.3528  2.2960 -1.0495
13855TIP3   OH262979   0.670   4.380   2.300  0.1193 -0.4085 -0.3826
13855TIP3    H162980   0.673   4.395   2.394  2.0504  0.1748 -0.5078
13855TIP3    H262981   0.719   4.454   2.262  0.4748 -1.3159 -1.7438
13856TIP3   OH262982   0.126   5.442   1.386 -0.2609  0.1379  0.3263
13856TIP3    H162983   0.163   5.393   1.312 -1.7703 -0.1950 -0.2367
13856TIP3    H262984   0.199   5.452   1.447  0.9707  0.2594 -1.1231
13857TIP3   OH262985   5.983   4.345  13.555  0.2407  0.1031  0.8259
13857TIP3    H162986   5.993   4.253  13.577 -1.2799 -0.2248  0.1962
13857TIP3    H262987   6.072   4.378  13.547  0.7960 -1.1228  1.8071
13858TIP3   OH262988   6.730   2.218   3.094  0.3461 -0.1349 -0.3447
13858TIP3    H162989   6.703   2.131   3.122  1.1573 -0.4480 -0.5134
13858TIP3    H262990   6.711   2.220   3.000 -1.8905  0.7301  0.0957
13859TIP3   OH262991   3.086   4.760   1.890  0.0561 -0.2850  0.2511
13859TIP3    H162992   3.173   4.755   1.928 -0.4386  1.1193  1.6350
13859TIP3    H262993   3.042   4.679   1.919  0.6838 -0.6913  0.0695
13860TIP3   OH262994   5.722   1.219  15.187 -0.3824 -0.2269 -0.6718
13860TIP3    H162995   5.777   1.181  15.119 -0.7352 -0.2358 -0.9539
13860TIP3    H262996   5.722   1.313  15.168 -0.7767 -0.2739 -0.8983
13861TIP3   OH262997   1.962   0.844  14.204  0.0501  0.1349  0.2547
13861TIP3    H162998   2.021   0.851  14.279  3.2885  2.1613 -2.3015
13861TIP3    H262999   2.021   0.831  14.129 -2.8879  0.6974 -2.2532
13862TIP3   OH263000   0.821   4.451  12.667 -0.3335 -0.6941  0.7529
13862TIP3    H163001   0.767   4.530  12.659 -1.7523 -1.5872  1.4204
13862TIP3    H263002   0.765   4.380  12.636  1.0863 -1.4060 -0.2478
13863TIP3   OH263003   3.438   5.091   5.881  0.9846  0.6150 -0.0065
13863TIP3    H163004   3.363   5.109   5.938 -0.3337 -0.7955 -1.2318
13863TIP3    H263005   3.513   5.131   5.926 -0.2506  0.7817  1.9685
13864TIP3   OH263006   3.064   5.693  15.473 -0.1346 -0.0821 -0.3591
13864TIP3    H163007   3.127   5.757  15.441 -0.0394  1.2447  2.3658
13864TIP3    H263008   2.978   5.733  15.457 -0.1556 -0.1873 -0.5173
13865TIP3   OH263009   2.512   4.490  13.431 -0.5017 -0.4736  0.1250
13865TIP3    H163010   2.493   4.397  13.417 -2.9355 -0.2740  1.8235
13865TIP3    H263011   2.602   4.500  13.401 -0.6026 -3.1022 -1.2832
13866TIP3   OH263012   6.717   1.282  15.462 -0.4091 -0.5209 -0.4399
13866TIP3    H163013   6.726   1.310  15.371  0.8801 -1.1338 -0.5159
13866TIP3    H263014   6.729   1.187  15.459  1.8410 -0.3065  0.6193
13867TIP3   OH263015   0.415   3.688   1.853  0.4059 -0.1105 -0.4816
13867TIP3    H163016   0.338   3.646   1.891 -1.1387  3.3112  0.3278
13867TIP3    H263017   0.411   3.665   1.760 -0.6741 -1.3151 -0.1515
13868TIP3   OH263018   6.035   3.173  13.644 -0.2958  0.0638  0.6250
13868TIP3    H163019   5.970   3.226  13.599  0.7302  0.2368 -0.6736
13868TIP3    H263020   6.083   3.128  13.574  0.1049 -1.0958  1.6128
13869TIP3   OH263021   3.613   3.179   3.370 -0.3100 -0.4102  0.4683
13869TIP3    H163022   3.577   3.232   3.441 -0.5712  1.5513 -1.0870
13869TIP3    H263023   3.707   3.196   3.373 -0.6589  2.0906 -1.5401
13870TIP3   OH263024   1.285   1.934   4.285 -0.0230 -0.7698 -0.5782
13870TIP3    H163025   1.195   1.926   4.252 -0.8964  0.3112  1.4039
13870TIP3    H263026   1.297   1.858   4.341 -0.8345  0.6300  1.5757
13871TIP3   OH263027   3.968   2.576  17.129  0.1608  0.1217 -0.8725
13871TIP3    H163028   4.046   2.585  17.073  0.4852  0.9278 -0.3005
13871TIP3    H263029   3.895   2.602  17.073  0.3170 -0.4574 -1.3549
13872TIP3   OH263030   6.357   0.977  11.281 -0.2882  0.3856  0.3243
13872TIP3    H163031   6.353   1.061  11.327 -0.7848  0.2082  0.6092
13872TIP3    H263032   6.266   0.948  11.278  0.0825 -0.9724  1.7596
13873TIP3   OH263033   5.483   6.332   5.445 -0.3290 -0.0655 -0.2076
13873TIP3    H163034   5.489   6.238   5.429 -0.0635  0.2752 -2.2375
13873TIP3    H263035   5.557   6.370   5.396  0.0941  1.1129  1.3127
13874TIP3   OH263036   2.520   6.080   1.810 -0.2012  0.1196 -0.1395
13874TIP3    H163037   2.502   6.124   1.893  1.3085 -0.4174  0.4876
13874TIP3    H263038   2.468   6.127   1.745 -0.2315  1.4796  0.8678
13875TIP3   OH263039   1.847   1.725  16.230  0.0591 -0.2202  0.3246
13875TIP3    H163040   1.926   1.770  16.201  0.8173 -1.4439  0.4401
13875TIP3    H263041   1.871   1.632  16.230 -1.0528 -0.5221  1.3873
13876TIP3   OH263042   4.858   2.027  14.912 -0.0090  0.3165 -0.6682
13876TIP3    H163043   4.864   2.110  14.960  0.3829  0.7321 -1.4199
13876TIP3    H263044   4.941   2.021  14.865 -0.6238  0.2093 -1.7665
13877TIP3   OH263045   3.019   5.433   3.680 -0.1571  0.1280 -0.0758
13877TIP3    H163046   3.036   5.371   3.609 -0.4189 -0.4014  0.3184
13877TIP3    H263047   3.036   5.519   3.642 -0.1176 -0.1660 -0.7250
13878TIP3   OH263048   0.012   5.581   3.595 -0.3748 -1.1962  0.0220
13878TIP3    H163049   0.081   5.516   3.609  0.1483 -0.7662 -0.5414
13878TIP3    H263050  -0.047   5.540   3.531  0.9576 -0.3970 -1.7848
13879TIP3   OH263051   0.003   3.927   3.788  0.0332 -0.0192 -0.1228
13879TIP3    H163052   0.086   3.908   3.745  0.4576  1.6408 -0.0426
13879TIP3    H263053   0.027   3.958   3.875 -0.6327  1.0383 -0.3039
13880TIP3   OH263054   6.648   1.488   3.427  0.1738  0.1358 -0.0902
13880TIP3    H163055   6.665   1.398   3.456 -0.0515  0.1393  0.0596
13880TIP3    H263056   6.730   1.534   3.440  0.5085 -0.2329 -0.8655
13881TIP3   OH263057   5.671   4.327  14.841 -0.2542  0.0187 -0.3883
13881TIP3    H163058   5.640   4.256  14.898  0.6041  0.2847  0.4179
13881TIP3    H263059   5.646   4.299  14.753 -2.7722  0.2143  0.2205
13882TIP3   OH263060   3.786   2.338  11.057  0.1650  0.8205 -0.2248
13882TIP3    H163061   3.865   2.345  11.004  0.7762 -0.3046  0.5393
13882TIP3    H263062   3.799   2.402  11.128  1.6684 -1.3173  1.5045
13883TIP3   OH263063   0.442   1.096  13.666 -0.4910  0.0861 -0.2140
13883TIP3    H163064   0.501   1.023  13.683  0.2480  0.7584  0.1410
13883TIP3    H263065   0.362   1.075  13.716  1.2694  1.5599  3.4053
13884TIP3   OH263066   2.649   5.384   5.529 -0.9714 -0.0533  0.5691
13884TIP3    H163067   2.631   5.395   5.623  0.2991  1.0525  0.6951
13884TIP3    H263068   2.743   5.363   5.525 -1.3065 -1.4277 -0.3633
13885TIP3   OH263069   6.704   3.930  14.683 -0.4013 -0.2766 -0.7602
13885TIP3    H163070   6.723   3.836  14.674  0.4896 -0.1973  0.1779
13885TIP3    H263071   6.699   3.961  14.592 -2.0335 -1.4744 -1.1048
13886TIP3   OH263072   4.796   2.594  16.275 -0.1077 -0.8213 -0.0497
13886TIP3    H163073   4.795   2.615  16.369 -0.6386 -1.8506  0.1730
13886TIP3    H263074   4.855   2.520  16.267 -0.0683 -0.7410 -0.5375
13887TIP3   OH263075   0.302   3.342  15.400 -0.5221 -0.3889 -0.1032
13887TIP3    H163076   0.264   3.386  15.324  1.0867 -0.6717 -1.1107
13887TIP3    H263077   0.248   3.265  15.413 -1.9859  0.6752  0.2649
13888TIP3   OH263078   0.025   3.463  13.320 -0.1447  0.3063  0.1181
13888TIP3    H163079  -0.014   3.503  13.242  1.4372  0.6445 -0.5156
13888TIP3    H263080   0.068   3.536  13.365 -1.8246  0.2862  1.8012
13889TIP3   OH263081   2.050   0.675   3.952 -0.3919 -0.3797  0.2017
13889TIP3    H163082   2.015   0.613   4.016  0.1398 -1.3939 -0.4872
13889TIP3    H263083   1.972   0.721   3.919 -1.0151 -2.0900 -0.7575
13890TIP3   OH263084   4.660   6.164  12.010  0.2445 -0.1364 -0.2456
13890TIP3    H163085   4.598   6.207  11.953 -1.1590 -2.1258 -0.2795
13890TIP3    H263086   4.721   6.119  11.951 -0.1073 -0.6716 -0.2087
13891TIP3   OH263087   1.109   1.439   0.600  0.2893 -0.0009 -0.3531
13891TIP3    H163088   1.163   1.512   0.571  0.6801 -0.1285  0.0467
13891TIP3    H263089   1.035   1.439   0.540  0.3545  0.6367 -0.4384
13892TIP3   OH263090   4.310   6.051   4.256  0.7199 -0.2847 -0.2783
13892TIP3    H163091   4.235   6.004   4.221  0.8985 -0.1452 -0.8446
13892TIP3    H263092   4.295   6.052   4.351 -0.6090  0.8191 -0.4855
13893TIP3   OH263093   0.546   0.803   0.562  0.4817 -0.8165  0.6443
13893TIP3    H163094   0.632   0.831   0.593  0.4592 -1.6958  1.5036
13893TIP3    H263095   0.517   0.874   0.504  3.0549 -1.8710 -2.0296
13894TIP3   OH263096   1.975   4.129  12.769  0.6653 -0.4790 -0.2677
13894TIP3    H163097   1.968   4.164  12.858 -0.7517  1.4536 -1.0853
13894TIP3    H263098   1.909   4.060  12.765  1.4026 -1.2296  0.4651
13895TIP3   OH263099   1.244   6.612  15.241  0.6204  0.1954  0.0661
13895TIP3    H163100   1.248   6.612  15.145 -0.8418  0.5423  0.0013
13895TIP3    H263101   1.290   6.532  15.267 -0.2432 -0.6484 -0.9724
13896TIP3   OH263102   3.711   3.318   1.259  0.0636  0.0148  0.0199
13896TIP3    H163103   3.716   3.304   1.164  2.2065  1.4490 -0.1082
13896TIP3    H263104   3.625   3.358   1.273 -0.0990  0.1563 -1.3488
13897TIP3   OH263105   0.780   5.946  12.483 -0.3712  0.0122  0.3688
13897TIP3    H163106   0.821   6.031  12.465  0.1839 -0.5458 -1.0704
13897TIP3    H263107   0.703   5.944  12.427 -0.5824 -0.2868  0.6704
13898TIP3   OH263108   5.839   3.909   2.183  0.4965  0.5410 -0.6819
13898TIP3    H163109   5.814   3.972   2.115  1.3810  2.5748  0.8109
13898TIP3    H263110   5.935   3.911   2.183  0.5207 -0.5144 -0.3580
13899TIP3   OH263111   1.223   6.395   2.448  0.1036 -0.1855 -0.1449
13899TIP3    H163112   1.150   6.417   2.506 -0.6253 -0.1950 -1.0448
13899TIP3    H263113   1.297   6.444   2.484 -0.6892  0.9835 -0.0603
13900TIP3   OH263114   6.055   5.599  14.237 -0.0915 -0.0156 -0.3334
13900TIP3    H163115   5.978   5.655  14.238  0.8487  1.2674  0.1332
13900TIP3    H263116   6.130   5.659  14.241  0.9449 -1.2256 -1.0627
13901TIP3   OH263117   3.341   4.094   3.812  0.0170  0.0451  0.0675
13901TIP3    H163118   3.305   4.020   3.762 -2.8867  1.5731 -0.2651
13901TIP3    H263119   3.435   4.078   3.814 -0.1653 -1.9519 -2.8182
13902TIP3   OH263120   5.367   0.466  13.954  0.5082 -0.0859 -0.0522
13902TIP3    H163121   5.389   0.394  13.894  1.3783  0.3107 -0.2106
13902TIP3    H263122   5.326   0.532  13.899  0.4422 -0.1244 -0.0483
13903TIP3   OH263123   3.620   3.289   0.783  0.0890 -0.5650  0.1788
13903TIP3    H163124   3.606   3.198   0.758 -0.4867 -0.0286 -1.5219
13903TIP3    H263125   3.532   3.323   0.800  0.4455 -0.8427  2.7689
13904TIP3   OH263126   4.788   6.539  16.180 -0.0614  0.0202 -0.1062
13904TIP3    H163127   4.741   6.607  16.229 -2.2142 -0.8799 -0.8311
13904TIP3    H263128   4.724   6.467  16.172  1.1913 -0.9464 -1.8093
13905TIP3   OH263129   6.429   0.957   3.574  0.5574  0.3723 -0.3192
13905TIP3    H163130   6.414   0.995   3.660 -0.9921 -0.5775 -0.1609
13905TIP3    H263131   6.354   0.900   3.559  1.9906 -1.3251 -1.2756
13906TIP3   OH263132   3.808   0.172   2.945 -0.3311  0.1405 -0.0644
13906TIP3    H163133   3.879   0.201   2.888 -0.8859 -0.5069 -1.0977
13906TIP3    H263134   3.851   0.115   3.010  0.5296  2.0574  1.0963
13907TIP3   OH263135   1.475   2.622  11.130  0.2823 -0.4247 -0.2831
13907TIP3    H163136   1.462   2.690  11.063 -1.2877  0.5235  0.9460
13907TIP3    H263137   1.388   2.584  11.143  0.6854 -1.0081  0.7828
13908TIP3   OH263138   1.055   0.425  10.833 -0.0781  0.2666  0.0283
13908TIP3    H163139   1.094   0.462  10.754  2.5535  0.2422  1.2535
13908TIP3    H263140   1.128   0.418  10.894 -1.9801 -0.1703  2.3024
13909TIP3   OH263141   1.895   4.398   5.942  0.1318 -0.1487 -0.1500
13909TIP3    H163142   1.845   4.442   6.011 -0.8678 -0.1939 -0.8319
13909TIP3    H263143   1.878   4.449   5.863 -0.8372 -1.5801 -0.8964
13910TIP3   OH263144   6.734   5.325  12.972  0.1647 -0.0650 -0.0025
13910TIP3    H163145   6.753   5.381  13.046  3.2789 -0.0999 -0.7132
13910TIP3    H263146   6.665   5.266  13.003 -1.3329  2.4238  1.5546
13911TIP3   OH263147   5.692   0.840   2.196 -0.1336  0.2768 -0.0719
13911TIP3    H163148   5.700   0.897   2.120 -0.1469  0.8697  0.3713
13911TIP3    H263149   5.606   0.799   2.187 -0.4249  0.8651 -0.0225
13912TIP3   OH263150   3.949   5.705   6.333 -0.1124 -1.0760 -0.0324
13912TIP3    H163151   4.026   5.652   6.313  0.2823 -0.2505 -0.7111
13912TIP3    H263152   3.975   5.795   6.312 -0.8443 -0.6353  0.9155
13913TIP3   OH263153   1.281   5.935  17.205  0.2118 -0.1451 -0.4602
13913TIP3    H163154   1.343   6.004  17.181  2.2100 -1.5663  0.5392
13913TIP3    H263155   1.325   5.854  17.181  0.5100 -1.3886  3.9860
13914TIP3   OH263156   1.365   1.225  15.655 -0.0881 -0.9058  0.1246
13914TIP3    H163157   1.292   1.280  15.682  0.0240  0.0733 -1.4800
13914TIP3    H263158   1.428   1.232  15.727 -0.2840  0.6744  0.1578
13915TIP3   OH263159   1.915   2.562  13.685 -0.2938  0.2877 -0.2931
13915TIP3    H163160   1.821   2.565  13.664 -0.2774  0.5174 -0.3338
13915TIP3    H263161   1.956   2.612  13.614 -0.3806  2.4683  1.1373
13916TIP3   OH263162   2.750   6.372   0.827  0.3149  0.1503 -0.4144
13916TIP3    H163163   2.823   6.316   0.801  0.1852 -0.2552  0.0789
13916TIP3    H263164   2.684   6.358   0.759  0.7743  0.6789 -0.9733
13917TIP3   OH263165   0.092   1.389  11.679  0.3657  0.4824 -0.5698
13917TIP3    H163166   0.135   1.306  11.696  0.8791  0.4684 -1.8807
13917TIP3    H263167   0.036   1.404  11.755  1.1944 -0.4599  0.2252
13918TIP3   OH263168   5.232   3.528   4.483 -0.1482 -0.2290  0.3436
13918TIP3    H163169   5.214   3.434   4.479 -0.5591 -0.2005  1.3089
13918TIP3    H263170   5.303   3.537   4.546 -1.3109  0.2569  1.6024
13919TIP3   OH263171   1.932   4.694  14.818  0.1675 -0.5294  0.4667
13919TIP3    H163172   1.909   4.781  14.785 -1.1825 -1.1589 -0.3182
13919TIP3    H263173   1.986   4.711  14.895 -0.0621  1.0068  0.3114
13920TIP3   OH263174   0.174   4.151  13.996 -0.2940  0.1201  0.0746
13920TIP3    H163175   0.177   4.063  13.959  0.3875 -0.2314  0.9600
13920TIP3    H263176   0.137   4.205  13.926 -0.4045 -0.8010 -0.5880
13921TIP3   OH263177   5.426   4.149   4.072  0.4580  0.1312 -0.1962
13921TIP3    H163178   5.366   4.184   4.137  0.9897  2.7750 -1.0722
13921TIP3    H263179   5.509   4.142   4.117  0.4665  0.4762 -0.1588
13922TIP3   OH263180   2.561   4.249  11.707 -0.2448  0.2495 -0.5936
13922TIP3    H163181   2.641   4.298  11.689 -0.7436  0.5196 -2.1489
13922TIP3    H263182   2.571   4.168  11.657 -1.3798  0.7421 -1.6645
13923TIP3   OH263183   3.130   2.308  14.409  0.6339 -1.2405  0.2799
13923TIP3    H163184   3.183   2.387  14.401  1.2966 -1.8394 -1.4270
13923TIP3    H263185   3.041   2.341  14.424  0.8223 -0.1515 -0.9026
13924TIP3   OH263186   6.570   2.145  11.307  0.1139 -0.4934  0.5915
13924TIP3    H163187   6.620   2.134  11.226 -0.3520  1.2573  0.0430
13924TIP3    H263188   6.576   2.060  11.351  0.7239 -1.3275 -1.0709
13925TIP3   OH263189   3.692   0.808   5.031  0.5292 -0.1187  0.1601
13925TIP3    H163190   3.633   0.786   4.959  1.0532 -1.3388  0.0907
13925TIP3    H263191   3.698   0.903   5.029  0.4584 -0.1360 -1.3499
13926TIP3   OH263192   0.036   3.177   5.229 -0.0133  0.0719  0.5944
13926TIP3    H163193   0.070   3.217   5.148  0.0028 -0.2088  0.4596
13926TIP3    H263194   0.091   3.213   5.298  0.1627  0.0938  0.4446
13927TIP3   OH263195   4.799   5.074  16.754  0.3549  0.3352 -0.1190
13927TIP3    H163196   4.706   5.094  16.742  0.0412 -0.6396  0.6236
13927TIP3    H263197   4.814   4.998  16.697  0.2287 -0.6941  1.1825
13928TIP3   OH263198   4.461   2.587  12.311 -0.4671 -0.1059  0.4497
13928TIP3    H163199   4.496   2.559  12.395  0.8020 -1.6081 -0.5482
13928TIP3    H263200   4.509   2.667  12.290  2.4284 -2.1148 -0.8837
13929TIP3   OH263201   6.185   6.548   2.300  0.3654 -0.0128 -0.4946
13929TIP3    H163202   6.147   6.631   2.274 -0.3831 -0.6590 -1.5392
13929TIP3    H263203   6.171   6.542   2.394  0.9421  1.2967 -0.3273
13930TIP3   OH263204   4.265   1.991   5.098 -0.6494 -0.1189 -0.1724
13930TIP3    H163205   4.322   2.053   5.144  0.6279  0.0157 -1.8746
13930TIP3    H263206   4.318   1.961   5.024 -1.5682 -2.6087  0.1372
13931TIP3   OH263207   1.924   0.806   3.662  0.5369 -0.0760 -0.4030
13931TIP3    H163208   1.858   0.873   3.677 -0.2033 -1.0166  0.5876
13931TIP3    H263209   1.971   0.836   3.584  0.9247  2.1202  0.6453
13932TIP3   OH263210   2.528   4.964  11.751 -0.4749  0.0024 -0.0655
13932TIP3    H163211   2.623   4.960  11.743 -0.2523  0.7378  1.9040
13932TIP3    H263212   2.495   4.939  11.664  1.4896 -0.8393 -0.5921
13933TIP3   OH263213   2.647   0.608  14.837  0.0217  0.1341 -0.0029
13933TIP3    H163214   2.596   0.551  14.780  1.8007 -0.7598 -0.7364
13933TIP3    H263215   2.657   0.559  14.919  0.7267 -0.2181 -0.2926
13934TIP3   OH263216   6.077   0.236   0.548  0.4161 -0.0514  0.2491
13934TIP3    H163217   6.084   0.307   0.484  0.9159  0.2185  0.5958
13934TIP3    H263218   6.070   0.281   0.632 -0.2932 -0.4039  0.3868
13935TIP3   OH263219   1.375   4.238  13.802  0.1037  0.6491  0.2438
13935TIP3    H163220   1.451   4.288  13.771  0.0371 -1.1915 -3.1366
13935TIP3    H263221   1.301   4.298  13.791  0.2595  0.4521 -2.2308
13936TIP3   OH263222   4.929   0.250   1.147 -0.1824 -0.2647 -0.2113
13936TIP3    H163223   4.847   0.223   1.189  0.4872 -1.0292  0.6456
13936TIP3    H263224   4.992   0.183   1.175  0.4844 -0.2926 -1.7473
13937TIP3   OH263225   5.868   0.070  12.045 -0.0161  0.2365 -0.2559
13937TIP3    H163226   5.908   0.152  12.015 -1.2560  1.3762  1.1125
13937TIP3    H263227   5.791   0.098  12.095 -1.7410 -1.8712 -1.6823
13938TIP3   OH263228   2.475   6.767  13.214  0.4370  0.1606  0.2107
13938TIP3    H163229   2.550   6.716  13.244  0.4499  1.4404  2.4483
13938TIP3    H263230   2.407   6.702  13.197  0.6928 -0.6924  2.2991
13939TIP3   OH263231   3.086   1.964   0.834  0.1607 -0.5930  0.0661
13939TIP3    H163232   3.011   2.009   0.873 -0.2191 -1.0562 -0.1307
13939TIP3    H263233   3.075   1.976   0.740  0.5263 -0.3567  0.0521
13940TIP3   OH263234   6.677   2.782  12.807  0.4184 -0.2309  0.8208
13940TIP3    H163235   6.693   2.704  12.755  0.4739  0.8397 -0.8146
13940TIP3    H263236   6.609   2.756  12.869 -1.6807 -0.7892 -1.6007
13941TIP3   OH263237   5.858   3.242  14.786 -0.5477  0.5591  0.2341
13941TIP3    H163238   5.857   3.306  14.714  1.6055  0.8042  0.3933
13941TIP3    H263239   5.787   3.269  14.843 -1.6037  1.0037 -1.2517
13942TIP3   OH263240   2.484   0.150  14.036 -0.0441  0.3632  0.2147
13942TIP3    H163241   2.458   0.083  14.099 -0.6971  0.5588  0.1508
13942TIP3    H263242   2.406   0.166  13.983  0.3532  0.5693 -0.3183
13943TIP3   OH263243   3.867   0.834   1.723  0.0601 -0.0485 -0.1406
13943TIP3    H163244   3.835   0.907   1.669  3.1322 -0.2801 -2.4106
13943TIP3    H263245   3.944   0.869   1.768  1.3291 -1.7501 -0.9420
13944TIP3   OH263246   3.717   5.879  16.721 -0.5369 -0.6851  0.1190
13944TIP3    H163247   3.636   5.916  16.757 -1.4747 -0.1673 -2.3943
13944TIP3    H263248   3.756   5.951  16.671  0.6880 -1.3958  0.0408
13945TIP3   OH263249   1.486   5.361  12.054  0.0361 -0.1048 -0.2761
13945TIP3    H163250   1.568   5.313  12.056  0.6765  0.9298 -1.2291
13945TIP3    H263251   1.495   5.426  12.124 -0.8533 -1.3699  1.0547
13946TIP3   OH263252   3.097   6.326  12.924  0.3855 -0.0323 -0.7695
13946TIP3    H163253   3.145   6.270  12.984  0.7436  1.0774 -0.0097
13946TIP3    H263254   3.031   6.268  12.885 -0.0569 -0.7022  0.9173
13947TIP3   OH263255   5.810   5.328   2.302 -0.5395  0.1249 -0.0457
13947TIP3    H163256   5.895   5.332   2.258  1.0064 -2.6016  2.5371
13947TIP3    H263257   5.825   5.372   2.386 -1.0332 -2.4220  1.3993
13948TIP3   OH263258   5.216   0.247   2.071 -0.4567  0.2889  0.0206
13948TIP3    H163259   5.238   0.157   2.048  1.6852  0.8043 -0.0359
13948TIP3    H263260   5.190   0.243   2.163 -0.7195 -0.4464 -0.0890
13949TIP3   OH263261   4.912   4.252   6.730 -0.1896  0.0644 -0.6278
13949TIP3    H163262   4.891   4.323   6.790  1.4536 -0.0360  0.0866
13949TIP3    H263263   5.001   4.271   6.700 -1.0055  0.1670 -3.1231
13950TIP3   OH263264   4.554   3.102   4.744  0.4373 -0.1530 -0.0572
13950TIP3    H163265   4.631   3.075   4.693 -1.9554 -0.2717 -3.8425
13950TIP3    H263266   4.545   3.196   4.726 -1.2919 -0.4995 -1.1635
13951TIP3   OH263267   6.143   6.562  12.272  0.1916  0.1658 -0.0656
13951TIP3    H163268   6.059   6.525  12.244  0.7855 -1.0266 -0.2975
13951TIP3    H263269   6.204   6.538  12.202  1.1902 -0.8520  1.1309
13952TIP3   OH263270   2.705   5.930   5.896 -0.4453  0.0338  0.3546
13952TIP3    H163271   2.752   6.009   5.870 -1.2411  1.1913  2.3136
13952TIP3    H263272   2.618   5.939   5.857 -0.2433 -0.3186 -0.1802
13953TIP3   OH263273   6.196   6.073  16.913 -0.6333  0.0997  0.0776
13953TIP3    H163274   6.102   6.074  16.932 -0.4208 -0.4710  1.1911
13953TIP3    H263275   6.212   6.156  16.869 -1.3527  0.9987  1.4629
13954TIP3   OH263276   0.925   1.619  16.817  0.1181  0.2622 -0.0231
13954TIP3    H163277   0.947   1.677  16.890 -0.0935 -0.1184  0.3461
13954TIP3    H263278   0.916   1.678  16.742  0.8964  0.5912  0.1319
13955TIP3   OH263279   6.064   3.446  12.019 -0.0784  0.3845  0.5353
13955TIP3    H163280   6.060   3.541  12.014 -0.2698  0.2896 -2.1193
13955TIP3    H263281   6.149   3.424  11.982 -0.3297 -0.5076  0.4798
13956TIP3   OH263282   4.271   5.445  16.846 -0.1165 -0.1932 -0.0442
13956TIP3    H163283   4.271   5.378  16.777 -0.8300 -1.5121  1.2098
13956TIP3    H263284   4.326   5.514  16.812  1.2614 -1.7561 -1.0563
13957TIP3   OH263285   1.509   0.472   4.990 -0.5866  0.3621  0.4318
13957TIP3    H163286   1.522   0.530   4.915  0.0309 -1.5699 -1.0175
13957TIP3    H263287   1.562   0.509   5.060  1.3137  0.4989 -1.0520
13958TIP3   OH263288   2.809   2.108  13.418 -0.6794  0.1075  0.9367
13958TIP3    H163289   2.737   2.165  13.444  0.9243  2.3543  0.5647
13958TIP3    H263290   2.881   2.167  13.397  0.5922 -1.9837 -0.8602
13959TIP3   OH263291   2.681   3.255   0.773 -0.5754  0.6302  0.1275
13959TIP3    H163292   2.760   3.217   0.811  0.3374  2.2206 -0.1689
13959TIP3    H263293   2.649   3.187   0.714  0.8219  0.1442 -0.0992
13960TIP3   OH263294   5.921   3.355  15.728  0.5311  0.2782  0.0256
13960TIP3    H163295   5.880   3.300  15.662  0.4641  0.2434  0.0954
13960TIP3    H263296   5.921   3.443  15.690 -0.9232  0.5492  0.5957
13961TIP3   OH263297   1.147   3.833  15.972  0.0026 -0.5622 -0.2615
13961TIP3    H163298   1.160   3.783  15.891 -0.1770  0.6442 -1.0489
13961TIP3    H263299   1.088   3.779  16.024 -1.1451 -0.6242 -1.5946
13962TIP3   OH263300   0.150   1.924  15.843  0.2056 -0.5072  0.2275
13962TIP3    H163301   0.202   1.885  15.774  2.5363  3.3715 -0.3716
13962TIP3    H263302   0.186   1.889  15.924  0.9627 -1.0405 -0.3441
13963TIP3   OH263303   3.266   3.799   3.280  0.5357 -0.8018 -0.8706
13963TIP3    H163304   3.265   3.876   3.224 -0.4468 -0.8564 -0.9391
13963TIP3    H263305   3.352   3.800   3.321  0.2063  0.8278 -0.1731
13964TIP3   OH263306   4.653   6.310   5.024 -0.1765  0.2518 -0.1300
13964TIP3    H163307   4.639   6.328   5.117  2.4480 -0.3064  0.4167
13964TIP3    H263308   4.652   6.215   5.018 -0.2758  0.2873 -0.6519
13965TIP3   OH263309   5.137   2.941   1.604  0.5102  0.5100 -0.1758
13965TIP3    H163310   5.129   2.855   1.562  0.8555 -0.7377  2.2490
13965TIP3    H263311   5.072   2.995   1.559 -3.3179 -2.3780  1.6300
13966TIP3   OH263312   0.070   2.580  13.144 -0.4646 -0.2676  0.6201
13966TIP3    H163313   0.127   2.513  13.183 -0.6600 -0.9016 -0.1700
13966TIP3    H263314   0.051   2.547  13.056 -0.6398  0.7895  0.2572
13967TIP3   OH263315   5.817   0.501   3.911  0.1944 -0.3415 -0.7901
13967TIP3    H163316   5.869   0.577   3.940  1.3224 -1.4523  0.1810
13967TIP3    H263317   5.874   0.426   3.927  0.1440 -1.2085 -4.1892
13968TIP3   OH263318   0.912   3.506  17.037  0.2113 -0.3177  0.0816
13968TIP3    H163319   0.957   3.458  17.107  2.0951  0.1675 -0.7767
13968TIP3    H263320   0.898   3.440  16.968  0.3257 -0.2711  0.0148
13969TIP3   OH263321   6.333   0.309   5.047  0.4739  0.5608  0.1155
13969TIP3    H163322   6.405   0.346   4.996 -0.5566  0.4842 -1.4318
13969TIP3    H263323   6.359   0.218   5.063  0.1382  0.1610 -1.5576
13970TIP3   OH263324   4.311   0.035   5.051  0.2201  0.6551 -0.1845
13970TIP3    H163325   4.402   0.006   5.045  0.4913  1.3926  0.3583
13970TIP3    H263326   4.300   0.096   4.978 -0.1585 -0.2678 -0.9133
13971TIP3   OH263327   1.160   6.068  15.149  0.4947 -0.0710  0.0089
13971TIP3    H163328   1.095   6.138  15.140 -0.5374 -0.8496  1.2642
13971TIP3    H263329   1.187   6.049  15.059 -1.8924 -0.5713 -0.6411
13972TIP3   OH263330   2.888   3.514   6.004 -0.3532  0.1232 -0.6565
13972TIP3    H163331   2.876   3.419   5.999 -1.9786  0.2531  0.3431
13972TIP3    H263332   2.951   3.534   5.934  0.6387 -1.7795 -0.3596
13973TIP3   OH263333   1.478   5.828   2.600 -0.3033  0.1925  0.0427
13973TIP3    H163334   1.571   5.850   2.597  0.2092 -1.9571 -1.6147
13973TIP3    H263335   1.443   5.859   2.517 -0.5719 -0.9277 -0.2792
13974TIP3   OH263336   1.885   2.043  11.691  0.1233 -0.1910  0.6656
13974TIP3    H163337   1.871   2.121  11.745 -1.1531  0.2479 -0.3072
13974TIP3    H263338   1.963   2.064  11.639 -0.0147  0.3007  0.6534
13975TIP3   OH263339   6.752   0.356   5.882  0.1816 -0.3270 -0.8093
13975TIP3    H163340   6.782   0.296   5.951  2.3387 -0.2963 -1.7177
13975TIP3    H263341   6.722   0.298   5.812  0.9450 -0.3334 -1.1245
13976TIP3   OH263342   6.421   4.266   4.142 -0.3051  0.4486 -0.2157
13976TIP3    H163343   6.497   4.315   4.113 -1.8013  2.3896 -0.9951
13976TIP3    H263344   6.367   4.255   4.064 -1.4282  0.2667  0.5600
13977TIP3   OH263345   2.495   6.262   4.785  0.0375  0.1170 -0.0010
13977TIP3    H163346   2.415   6.306   4.759 -0.9518 -1.0681  0.9873
13977TIP3    H263347   2.535   6.321   4.850 -0.2305  0.5158 -0.1969
13978TIP3   OH263348   1.320   1.723   3.454 -0.0877  0.8658 -0.5278
13978TIP3    H163349   1.315   1.792   3.520  0.3299  1.9229 -1.5833
13978TIP3    H263350   1.233   1.719   3.416 -0.7354 -0.7396  1.0536
13979TIP3   OH263351   2.553   0.281  10.745 -0.2248 -0.1601 -0.3080
13979TIP3    H163352   2.509   0.206  10.785  0.8817 -1.1579 -0.9330
13979TIP3    H263353   2.610   0.315  10.813  2.2106 -2.3095 -1.2170
13980TIP3   OH263354   3.400   2.782  11.097  0.3429 -0.3510 -0.1206
13980TIP3    H163355   3.405   2.686  11.102 -1.4205 -0.6520 -2.9674
13980TIP3    H263356   3.310   2.802  11.123  0.2146  0.3873 -1.1081
13981TIP3   OH263357   3.442   1.842   1.483  0.3072 -0.4958  0.1945
13981TIP3    H163358   3.517   1.814   1.430 -0.3760 -1.5811 -0.2038
13981TIP3    H263359   3.366   1.809   1.436 -0.4549  1.0324  0.3471
13982TIP3   OH263360   0.396   3.852  15.364 -0.4020 -0.4314  0.2695
13982TIP3    H163361   0.454   3.837  15.289  0.0739  1.0221  0.3262
13982TIP3    H263362   0.448   3.824  15.440  0.5173  1.4742  0.3853
13983TIP3   OH263363   1.604   2.389  15.855 -0.1131  0.6664 -0.5206
13983TIP3    H163364   1.624   2.476  15.888  1.6580  0.0150  0.2212
13983TIP3    H263365   1.511   2.391  15.835 -0.7086  1.8271  2.2364
13984TIP3   OH263366   3.291   3.954   0.982  0.2792 -0.0618 -0.0498
13984TIP3    H163367   3.330   4.023   0.930  0.8290 -1.6296 -1.7574
13984TIP3    H263368   3.211   3.929   0.935 -0.5681  0.2107  1.1895
13985TIP3   OH263369   3.940   4.744   2.492  0.4071  0.5086 -0.0035
13985TIP3    H163370   3.994   4.809   2.539  0.7750  1.7992 -2.1637
13985TIP3    H263371   4.003   4.692   2.442 -0.0040 -0.7637  0.7860
13986TIP3   OH263372   4.249   1.905  12.347  0.2480  0.1915  0.3909
13986TIP3    H163373   4.204   1.988  12.361 -0.2162 -0.0708  0.4990
13986TIP3    H263374   4.178   1.843  12.329  0.5286 -0.3427  1.1019
13987TIP3   OH263375   2.718   6.646  13.315  0.5491 -0.0143 -0.3686
13987TIP3    H163376   2.718   6.684  13.403 -0.8667  2.2145 -1.2775
13987TIP3    H263377   2.811   6.636  13.294  0.9108 -0.0852  1.1849
13988TIP3   OH263378   4.399   2.631  13.982  0.1872 -0.5079 -0.2266
13988TIP3    H163379   4.446   2.589  14.055  0.4769  0.7311  0.3114
13988TIP3    H263380   4.308   2.605  13.996  0.0932  0.4889  1.1418
13989TIP3   OH263381   4.794   4.990  17.070  0.5591 -0.2794  0.0392
13989TIP3    H163382   4.846   5.070  17.078 -1.4085  1.0638 -0.3214
13989TIP3    H263383   4.783   4.977  16.976 -1.4088  0.5563  0.1340
13990TIP3   OH263384   3.059   2.475  12.693  0.4874  0.0921  0.3705
13990TIP3    H163385   3.098   2.560  12.716  2.6002 -0.6175 -0.4237
13990TIP3    H263386   3.112   2.444  12.620 -1.8346 -0.7885 -0.9995
13991TIP3   OH263387   2.158   2.829  11.644 -0.2958 -0.0884  0.4240
13991TIP3    H163388   2.103   2.798  11.716  1.1014 -0.8220  1.2047
13991TIP3    H263389   2.111   2.903  11.608 -2.2046 -1.2159  0.5392
13992TIP3   OH263390   0.496   1.576  16.369 -0.2755  0.2559  0.2126
13992TIP3    H163391   0.514   1.560  16.276  0.5649  1.4351  0.1639
13992TIP3    H263392   0.476   1.489  16.404 -0.7255 -0.1857 -1.0966
13993TIP3   OH263393   4.138   4.798   6.997  0.3005  0.3461 -0.4090
13993TIP3    H163394   4.104   4.884   7.019  0.6665  0.8429 -1.7216
13993TIP3    H263395   4.169   4.807   6.907 -2.3513 -1.9313 -1.6343
13994TIP3   OH263396   5.994   6.571  15.189  0.3510  0.5294  0.3462
13994TIP3    H163397   6.045   6.497  15.154  0.8287  1.4133 -0.8252
13994TIP3    H263398   6.028   6.648  15.144 -1.9343  1.1648 -0.3627
13995TIP3   OH263399   6.780   6.434  10.136  0.9768  0.3746 -0.1266
13995TIP3    H163400   6.704   6.488  10.157  1.6455  1.1168  0.4408
13995TIP3    H263401   6.855   6.485  10.168  1.4822 -1.7246  2.1766
13996TIP3   OH263402   4.820   1.759  15.803  0.2012  0.1236 -0.8185
13996TIP3    H163403   4.903   1.715  15.788  0.9522  0.9104  0.9682
13996TIP3    H263404   4.770   1.744  15.723  0.5394 -3.7106 -0.3724
13997TIP3   OH263405   0.383   4.505   4.441 -0.1249 -0.0396  0.2207
13997TIP3    H163406   0.288   4.502   4.438 -0.1781  0.3847  1.2544
13997TIP3    H263407   0.409   4.417   4.470 -0.3144  0.4849  2.0517
13998TIP3   OH263408   3.239   2.101  16.477  0.7083  0.7938  0.0663
13998TIP3    H163409   3.146   2.110  16.455  1.1410 -1.6836 -3.1165
13998TIP3    H263410   3.274   2.189  16.465 -1.3409  2.0140  2.3354
13999TIP3   OH263411   1.853   2.233  12.675  0.1740 -0.0210 -0.4382
13999TIP3    H163412   1.894   2.194  12.752  0.6189 -0.1565 -0.7375
13999TIP3    H263413   1.920   2.292  12.640 -0.5094  1.0631  0.0425
14000TIP3   OH263414   4.204   1.169   3.091 -0.6563  0.3720  0.0965
14000TIP3    H163415   4.163   1.253   3.111  1.3770  1.3144  0.3418
14000TIP3    H263416   4.211   1.168   2.996  0.0106  0.8102  0.1404
14001TIP3   OH263417   0.286   2.144  15.589  0.2095 -0.2835 -0.4311
14001TIP3    H163418   0.361   2.110  15.638  0.6534  0.4326 -0.6067
14001TIP3    H263419   0.209   2.113  15.638  0.6187 -0.8139 -0.1138
14002TIP3   OH263420   6.705   1.856  13.246 -0.0008 -0.1073 -0.2686
14002TIP3    H163421   6.618   1.819  13.232  0.0397  0.0180 -0.8964
14002TIP3    H263422   6.709   1.931  13.186  0.6289 -0.2693 -0.4354
14003TIP3   OH263423   6.285   1.740  14.346 -0.6279 -0.0299 -0.3274
14003TIP3    H163424   6.249   1.752  14.434 -2.3319  0.4539 -1.0693
14003TIP3    H263425   6.331   1.656  14.350 -0.6407  0.0272  1.0459
14004TIP3   OH263426   4.845   4.848   2.594  0.2587  0.1132  0.3645
14004TIP3    H163427   4.879   4.834   2.506  1.9561 -0.6768  1.1315
14004TIP3    H263428   4.870   4.937   2.617  1.2240 -0.2348  0.6658
14005TIP3   OH263429   3.711   3.620  12.896 -0.2531  0.6403 -0.1842
14005TIP3    H163430   3.785   3.680  12.899 -0.4420  0.8385  1.8210
14005TIP3    H263431   3.647   3.663  12.839  0.5840  1.1733 -0.7208
14006TIP3   OH263432   4.865   0.161  10.969  0.6659  0.4201 -0.0735
14006TIP3    H163433   4.909   0.182  10.886  1.2587  2.4211  0.7133
14006TIP3    H263434   4.937   0.145  11.031  0.2404 -0.0631  0.2922
14007TIP3   OH263435   5.249   4.459  10.613  0.4723  0.1068  0.8770
14007TIP3    H163436   5.243   4.416  10.698  0.2236 -0.9634  0.3296
14007TIP3    H263437   5.186   4.531  10.618 -0.0144 -0.3479  1.3692
14008TIP3   OH263438   0.044   2.899  17.123 -0.4240  0.3718 -0.3406
14008TIP3    H163439  -0.012   2.950  17.064  0.9868  0.9401 -1.2071
14008TIP3    H263440   0.087   2.835  17.067 -0.2498 -0.1204  0.3385
14009TIP3   OH263441   3.875   4.793   0.747 -0.2568  0.0079 -0.4311
14009TIP3    H163442   3.828   4.725   0.699 -0.4643 -0.6085  0.6560
14009TIP3    H263443   3.862   4.872   0.694 -1.0015 -0.5406 -1.0776
14010TIP3   OH263444   1.397   0.316  16.654  0.5827  0.8862 -0.5542
14010TIP3    H163445   1.367   0.330  16.564 -0.0067  0.5026 -0.4224
14010TIP3    H263446   1.320   0.284  16.700  1.3218 -0.6367 -0.3346
14011TIP3   OH263447   6.089   4.903  14.510 -0.0937 -0.7337 -0.1679
14011TIP3    H163448   6.072   4.995  14.533 -0.9489 -0.9918  0.2301
14011TIP3    H263449   6.092   4.903  14.414  0.0889 -0.2588 -0.1637
14012TIP3   OH263450   6.537   2.222   0.708  0.5106  0.2915 -0.5628
14012TIP3    H163451   6.480   2.276   0.763  0.2298  0.0663 -0.6263
14012TIP3    H263452   6.571   2.155   0.768  1.3475  0.9049 -0.3498
14013TIP3   OH263453   5.853   0.358  14.066  0.3097 -0.6551  0.6505
14013TIP3    H163454   5.822   0.274  14.098  0.0780 -1.2491 -1.1053
14013TIP3    H263455   5.949   0.349  14.064  0.3798 -0.3442  1.8569
14014TIP3   OH263456   2.206   4.879  12.109  0.1813  0.2808  0.2526
14014TIP3    H163457   2.218   4.923  12.194 -1.6458  0.6129  0.3590
14014TIP3    H263458   2.231   4.788  12.125  0.8269  0.5641  0.8809
14015TIP3   OH263459   4.131   1.368  13.713  0.7764 -0.3299  0.3509
14015TIP3    H163460   4.205   1.401  13.661 -0.7841  0.0669 -1.6991
14015TIP3    H263461   4.055   1.414  13.678 -0.9711 -3.3740 -0.0775
14016TIP3   OH263462   1.838   1.107   4.570  0.0677  0.0747  0.4807
14016TIP3    H163463   1.845   1.020   4.609  0.9608  0.3475  0.9317
14016TIP3    H263464   1.772   1.152   4.623  1.0104  0.3222  1.4618
14017TIP3   OH263465   4.696   3.287  12.704  0.7656  0.3502  0.9353
14017TIP3    H163466   4.607   3.317  12.724  0.0562 -1.2727  0.2722
14017TIP3    H263467   4.706   3.207  12.756  1.1339 -0.5293 -0.4702
14018TIP3   OH263468   0.124   2.410  16.091 -0.2633 -0.2788  0.0647
14018TIP3    H163469   0.146   2.329  16.045 -0.4430 -0.1560 -0.2360
14018TIP3    H263470   0.064   2.383  16.160 -0.7066 -0.3322 -0.3405
14019TIP3   OH263471   1.275   1.019  17.068  0.1792  0.5812  0.4203
14019TIP3    H163472   1.234   1.077  17.004  0.7860  0.4299 -0.1184
14019TIP3    H263473   1.223   0.939  17.065 -0.8754  1.2060  1.4219
14020TIP3   OH263474   3.097   1.110  11.523  0.1946  0.1184 -1.0684
14020TIP3    H163475   3.091   1.066  11.608 -1.5893  0.6703 -0.8680
14020TIP3    H263476   3.049   1.053  11.463 -0.7649  0.9931 -1.1426
14021TIP3   OH263477   1.274   5.775  14.136 -0.5006  0.0712 -0.0088
14021TIP3    H163478   1.197   5.719  14.130  0.5159 -1.3920  0.3696
14021TIP3    H263479   1.315   5.769  14.049 -0.3296  0.1558  0.0658
14022TIP3   OH263480   1.372   6.490   5.127  0.1491 -0.0616 -0.4638
14022TIP3    H163481   1.359   6.400   5.155 -0.0138 -0.0859 -0.6185
14022TIP3    H263482   1.295   6.537   5.159  0.0549 -0.0518 -0.7074
14023TIP3   OH263483   5.459   5.782  15.829 -0.2556  0.3600  0.1247
14023TIP3    H163484   5.433   5.766  15.920 -0.3365  0.0293  0.0448
14023TIP3    H263485   5.548   5.815  15.835  0.4181 -1.4214  0.2139
14024TIP3   OH263486   2.775   3.401   0.189 -0.0070 -0.2024 -0.7194
14024TIP3    H163487   2.779   3.320   0.138  0.8954 -0.5635 -0.0926
14024TIP3    H263488   2.826   3.382   0.268 -2.8775 -0.2744  1.1996
14025TIP3   OH263489   4.201   5.068  11.770  0.1299 -0.5087 -0.5504
14025TIP3    H163490   4.145   5.142  11.747  0.8282 -0.0823 -0.9022
14025TIP3    H263491   4.141   4.995  11.783 -0.5929  0.1869  0.0669
14026TIP3   OH263492   2.974   2.095  16.403  0.2868 -0.2768  0.4817
14026TIP3    H163493   2.985   2.005  16.374  2.3060 -0.7691  2.6508
14026TIP3    H263494   2.892   2.094  16.452 -0.8134 -0.4117 -1.2965
14027TIP3   OH263495   3.968   3.451   5.416  0.5452 -0.0894 -0.0525
14027TIP3    H163496   3.966   3.417   5.326  0.1857  0.4691 -0.2563
14027TIP3    H263497   4.044   3.509   5.418 -1.2581  2.3403 -0.8887
14028TIP3   OH263498   5.385   0.175   4.203  0.4948 -0.1628  0.9887
14028TIP3    H163499   5.334   0.235   4.150  1.4262 -0.0412  0.2033
14028TIP3    H263500   5.330   0.156   4.279  0.5178  2.3007  1.6360
14029TIP3   OH263501   0.517   6.224  16.186 -0.9299 -0.7116 -0.4608
14029TIP3    H163502   0.431   6.184  16.200 -1.2246  0.1292  0.1650
14029TIP3    H263503   0.549   6.243  16.274  0.4659 -2.1908 -0.6255
14030TIP3   OH263504   6.744   3.745  16.885 -0.4265 -0.1723  0.4144
14030TIP3    H163505   6.698   3.783  16.960  0.6551 -1.3521  1.6945
14030TIP3    H263506   6.827   3.793  16.880  0.0340 -0.9357  0.7335
14031TIP3   OH263507   0.499   4.104   1.325  0.5904 -0.4822  0.2761
14031TIP3    H163508   0.595   4.106   1.315  0.5334  0.4435 -0.1401
14031TIP3    H263509   0.482   4.154   1.404  0.3003  1.2570 -0.8724
14032TIP3   OH263510   5.675   5.352  11.927 -0.2470 -0.4449 -0.2906
14032TIP3    H163511   5.641   5.412  11.861  1.0156  1.0325  0.3485
14032TIP3    H263512   5.608   5.284  11.936 -1.8610  1.0455 -0.8048
14033TIP3   OH263513   5.048   3.735   2.150 -0.2575 -0.5814 -0.4951
14033TIP3    H163514   4.999   3.762   2.228 -1.9264  0.0826 -1.7362
14033TIP3    H263515   4.993   3.669   2.109 -0.5265  0.7094 -2.3144
14034TIP3   OH263516   0.724   6.641   5.394  0.0430 -0.1318  0.4890
14034TIP3    H163517   0.696   6.726   5.429  2.4195  0.7848  0.3027
14034TIP3    H263518   0.736   6.656   5.301 -0.2209 -0.8764  0.3318
14035TIP3   OH263519   2.431   1.979   4.080 -0.0325  0.4765 -0.1147
14035TIP3    H163520   2.428   1.888   4.111 -1.2228  1.1032  1.6945
14035TIP3    H263521   2.524   1.999   4.072  0.2448 -0.6798  0.1389
14036TIP3   OH263522   3.250   4.809   2.113  0.1374  0.8171 -0.2679
14036TIP3    H163523   3.163   4.846   2.132  0.4978  0.5322  2.0500
14036TIP3    H263524   3.239   4.715   2.125  0.8562  0.8197  0.4823
14037TIP3   OH263525   5.734   4.886  14.721  0.0318 -1.1654 -0.1796
14037TIP3    H163526   5.776   4.970  14.710 -1.4999 -0.5353 -1.4722
14037TIP3    H263527   5.789   4.839  14.783  2.0166  0.0105 -1.0181
14038TIP3   OH263528   0.488   5.879   5.324 -0.7930  0.1152 -0.4531
14038TIP3    H163529   0.499   5.844   5.235  1.2309 -1.4636  0.3727
14038TIP3    H263530   0.500   5.974   5.314  0.3648 -0.1489 -1.7308
14039TIP3   OH263531   4.417   5.300  11.139 -0.0081  0.1020  1.0068
14039TIP3    H163532   4.426   5.276  11.047  2.1565 -0.6480  1.3903
14039TIP3    H263533   4.361   5.232  11.177 -1.9041  1.0761  0.0119
14040TIP3   OH263534   4.826   6.127  15.366  0.0676  0.6504 -0.6572
14040TIP3    H163535   4.872   6.094  15.442 -2.3824  0.4491  0.7942
14040TIP3    H263536   4.798   6.049  15.318  1.4036  0.7737 -1.6832
14041TIP3   OH263537   3.122   4.954  15.841 -0.0946 -0.4979 -0.1840
14041TIP3    H163538   3.193   5.016  15.822  0.0833 -0.8314 -0.6217
14041TIP3    H263539   3.070   4.997  15.909  0.2835 -0.0631 -0.1665
14042TIP3   OH263540   5.373   1.636  14.662  0.3346 -0.8354 -0.0800
14042TIP3    H163541   5.459   1.594  14.656  0.7719  0.1673 -0.9498
14042TIP3    H263542   5.371   1.698  14.590 -1.3683 -1.2660 -0.4384
14043TIP3   OH263543   0.546   6.277  15.059  0.5085 -0.8988 -0.0216
14043TIP3    H163544   0.626   6.302  15.105  0.3372  0.2218 -0.3156
14043TIP3    H263545   0.499   6.221  15.121  1.2193 -1.0348  0.3926
14044TIP3   OH263546   5.215   4.340  15.054  0.1213 -0.0670  0.0367
14044TIP3    H163547   5.281   4.285  15.012  0.4747 -0.2878  0.8541
14044TIP3    H263548   5.260   4.375  15.131 -1.1842 -1.4382  1.4551
14045TIP3   OH263549   5.424   0.116   3.106 -0.2693  0.0930  0.1275
14045TIP3    H163550   5.356   0.183   3.100 -1.1639 -0.9163 -1.5163
14045TIP3    H263551   5.377   0.034   3.095  1.1502 -0.6548 -0.4940
14046TIP3   OH263552   0.716   6.663   0.465  0.3520 -0.3437 -0.0972
14046TIP3    H163553   0.743   6.590   0.520  0.1220 -1.6805 -1.7438
14046TIP3    H263554   0.758   6.647   0.380  0.2618  1.3989 -0.4940
14047TIP3   OH263555   6.742   5.898   0.659 -0.1896  0.4959 -0.1769
14047TIP3    H163556   6.709   5.824   0.609 -1.3866  0.0617  1.2274
14047TIP3    H263557   6.823   5.866   0.699 -0.0166  0.3768 -0.6126
14048TIP3   OH263558   1.143   0.665   2.388  0.5005 -0.2696  0.3312
14048TIP3    H163559   1.135   0.615   2.307 -3.6365 -1.3652  1.3279
14048TIP3    H263560   1.103   0.749   2.369 -1.3121 -0.8541  1.4693
14049TIP3   OH263561   6.421   5.328   3.860 -0.1135  0.2904  0.0226
14049TIP3    H163562   6.405   5.263   3.928  3.2029  0.2604  0.8807
14049TIP3    H263563   6.463   5.279   3.789  0.5099  1.1170 -0.1869
14050TIP3   OH263564   2.531   4.316   3.705 -0.2765  0.1362 -0.4014
14050TIP3    H163565   2.598   4.253   3.732 -0.1869  0.4928  0.2163
14050TIP3    H263566   2.479   4.269   3.639 -0.2104 -0.5841  0.0515
14051TIP3   OH263567   4.106   1.461   0.857  0.3900 -0.1241  0.1472
14051TIP3    H163568   4.186   1.420   0.889 -0.4446 -1.3353  0.7160
14051TIP3    H263569   4.136   1.538   0.808  1.7968  0.5939  2.0588
14052TIP3   OH263570   2.621   6.736   4.109  0.4364  0.1346 -0.5124
14052TIP3    H163571   2.549   6.694   4.156 -0.5429  2.3299  0.0147
14052TIP3    H263572   2.582   6.770   4.029  1.0899  0.4470 -0.7037
14053TIP3   OH263573   0.869   0.636  15.004  0.1734  0.2951  0.0257
14053TIP3    H163574   0.818   0.659  15.081  0.0007  0.4852 -0.1454
14053TIP3    H263575   0.850   0.543  14.990  1.0473 -0.0241  0.8445
14054TIP3   OH263576   3.589   6.148   1.593 -0.1321  0.4888 -0.7548
14054TIP3    H163577   3.587   6.203   1.671  0.1399 -0.9106  0.2423
14054TIP3    H263578   3.618   6.062   1.624  2.3903  0.5408 -2.7865
14055TIP3   OH263579   4.676   4.799  16.021  0.0647 -0.6964 -0.4023
14055TIP3    H163580   4.742   4.797  16.092  0.6846 -2.6174 -0.9864
14055TIP3    H263581   4.728   4.798  15.941 -0.6120  2.5989 -0.9580
14056TIP3   OH263582   5.444   5.501  12.550  0.2488 -0.9312 -0.5674
14056TIP3    H163583   5.425   5.591  12.525 -0.2008 -0.9998 -0.4868
14056TIP3    H263584   5.373   5.450  12.511 -0.0944 -1.1212  0.2806
14057TIP3   OH263585   4.324   2.830   4.235  0.0986 -0.4747  0.1245
14057TIP3    H163586   4.285   2.820   4.322  1.0980  2.5226  1.0038
14057TIP3    H263587   4.262   2.884   4.186 -0.4539 -2.1339 -1.0543
14058TIP3   OH263588   2.707   1.379   2.336 -0.3512  0.3950  0.4842
14058TIP3    H163589   2.763   1.302   2.332 -1.7403 -0.5691 -0.9513
14058TIP3    H263590   2.760   1.450   2.301  0.5688 -0.1349  0.8089
14059TIP3   OH263591   3.880   2.079  13.264  0.4840  0.0497 -0.4509
14059TIP3    H163592   3.933   2.128  13.201  0.3705 -0.2355 -0.7733
14059TIP3    H263593   3.816   2.032  13.210 -0.9773  1.4607  0.0352
14060TIP3   OH263594   4.186   4.720   1.578  0.7041  0.8179  0.9217
14060TIP3    H163595   4.116   4.778   1.607  1.9189  1.6501  2.2635
14060TIP3    H263596   4.260   4.742   1.634  2.2709  0.4588 -0.9462
14061TIP3   OH263597   1.380   5.144  13.607  0.1022  0.3457 -0.3330
14061TIP3    H163598   1.463   5.123  13.649 -0.9342  1.1049  2.1676
14061TIP3    H263599   1.337   5.059  13.595  0.6766  0.0689 -0.4419
14062TIP3   OH263600   3.336   3.311   4.861  0.0071  0.0443  0.0273
14062TIP3    H163601   3.241   3.321   4.871 -0.3999 -1.6698 -1.7247
14062TIP3    H263602   3.354   3.221   4.887  1.4086  0.8128  1.8063
14063TIP3   OH263603   4.609   5.056  11.637 -0.0270 -0.2154 -0.0725
14063TIP3    H163604   4.691   5.091  11.672  1.9167 -1.5244 -3.0573
14063TIP3    H263605   4.540   5.100  11.687  2.4702  1.4521  2.0232
14064TIP3   OH263606   2.807   5.261  12.475 -0.3901 -0.3084 -0.2038
14064TIP3    H163607   2.875   5.199  12.449 -1.1052 -1.3965  0.4703
14064TIP3    H263608   2.850   5.346  12.472  1.0229 -0.9885  0.2550
14065TIP3   OH263609   0.849   4.428  14.303 -0.2195  0.2205 -0.2182
14065TIP3    H163610   0.851   4.441  14.398 -0.4434  1.1077 -0.3259
14065TIP3    H263611   0.906   4.353  14.288  1.3801  1.2658  0.4444
14066TIP3   OH263612   5.573   1.511  12.845 -0.2831 -0.0183 -0.4222
14066TIP3    H163613   5.482   1.511  12.816 -0.4757 -0.4512  0.1774
14066TIP3    H263614   5.572   1.560  12.927  0.0212 -0.0524 -0.3970
14067TIP3   OH263615   5.601   2.316  11.783  0.1784  0.0282 -0.1336
14067TIP3    H163616   5.588   2.346  11.693 -0.1070 -0.1302 -0.1449
14067TIP3    H263617   5.604   2.396  11.835 -0.1082  0.1022 -0.2276
14068TIP3   OH263618   3.940   6.225  15.013 -0.5987 -0.9683  0.4094
14068TIP3    H163619   3.866   6.277  14.981 -0.3294 -0.9917 -0.2727
14068TIP3    H263620   3.908   6.135  15.013 -0.5775 -0.9791  0.1053
14069TIP3   OH263621   5.831   5.600  16.795  0.7666 -0.1545 -0.0836
14069TIP3    H163622   5.867   5.646  16.719  0.8560  0.3597  0.2636
14069TIP3    H263623   5.806   5.671  16.856 -1.2489 -0.4649 -0.4990
14070TIP3   OH263624   0.276   5.350   4.119  0.0101  0.2440 -0.1990
14070TIP3    H163625   0.274   5.415   4.048 -1.5447  1.1207  0.6254
14070TIP3    H263626   0.227   5.391   4.190  0.9866 -0.9154  1.1470
14071TIP3   OH263627   4.983   6.302   0.367  0.3565 -0.4476 -0.1011
14071TIP3    H163628   4.930   6.235   0.324 -0.2610 -0.2800  0.3953
14071TIP3    H263629   5.067   6.299   0.321  0.7146 -2.3201  0.6292
14072TIP3   OH263630   5.521   5.648   1.795 -0.3630  0.7227 -0.4544
14072TIP3    H163631   5.447   5.696   1.831  0.5827  1.8659 -0.0226
14072TIP3    H263632   5.596   5.674   1.848  0.4862  0.1058 -1.3177
14073TIP3   OH263633   5.851   2.017   0.493 -0.1531  0.0604  0.0758
14073TIP3    H163634   5.787   2.000   0.562  0.1855 -1.8511 -0.0592
14073TIP3    H263635   5.884   2.105   0.511 -1.4325  0.3145  1.2420
14074TIP3   OH263636   6.747   1.763  15.193 -0.1762  0.0238 -0.1185
14074TIP3    H163637   6.744   1.822  15.118 -0.0243 -1.0878 -1.0312
14074TIP3    H263638   6.668   1.783  15.243 -0.7516  0.1679 -1.0721
14075TIP3   OH263639   0.984   2.874  16.646 -0.1822  0.6110 -0.4337
14075TIP3    H163640   1.045   2.885  16.573 -0.1959 -0.8904 -0.6935
14075TIP3    H263641   1.039   2.877  16.724  0.1417  0.0331 -0.6326
14076TIP3   OH263642   0.579   6.127   2.351 -0.3183 -0.8388 -0.2635
14076TIP3    H163643   0.522   6.192   2.391  0.3839 -1.2514  1.4602
14076TIP3    H263644   0.536   6.043   2.369  0.4955 -1.1017  0.4948
14077TIP3   OH263645   4.764   5.154  15.062 -0.2846 -0.0466  0.0328
14077TIP3    H163646   4.820   5.182  15.135 -1.7246 -2.8657  2.3353
14077TIP3    H263647   4.825   5.134  14.991  1.2641  1.2961  0.9412
14078TIP3   OH263648   3.725   6.202   5.641 -0.1018 -0.2819 -0.2121
14078TIP3    H163649   3.651   6.217   5.583  1.3577 -3.0659 -2.9662
14078TIP3    H263650   3.687   6.163   5.720 -1.6337 -0.9964 -1.2872
14079TIP3   OH263651   4.243   6.027   5.058  0.1395 -0.2025 -0.0674
14079TIP3    H163652   4.267   5.936   5.043 -1.3066 -0.4373 -0.9496
14079TIP3    H263653   4.175   6.046   4.994  0.7954  1.6645 -0.2571
14080TIP3   OH263654   0.547   4.025   5.899 -0.6857 -0.1448 -0.3898
14080TIP3    H163655   0.624   3.998   5.849 -0.5668 -1.1633  0.3270
14080TIP3    H263656   0.580   4.039   5.988 -1.6463 -2.3633  0.3411
14081TIP3   OH263657   4.147   5.378  13.027 -0.4283  0.0738 -0.3427
14081TIP3    H163658   4.163   5.428  13.108 -0.3297 -0.6077  0.0668
14081TIP3    H263659   4.112   5.442  12.966  0.1401  0.7496  0.0272
14082TIP3   OH263660   6.716   3.364   3.911  0.3811 -0.7821  0.0062
14082TIP3    H163661   6.692   3.298   3.846 -1.1077  1.0316 -1.3293
14082TIP3    H263662   6.774   3.424   3.864 -0.1087  0.1340  0.5491
14083TIP3   OH263663   2.263   1.775  11.228  0.0322 -0.2763 -0.7984
14083TIP3    H163664   2.341   1.829  11.216 -0.4118  0.7676  0.7360
14083TIP3    H263665   2.296   1.692  11.262  0.5169 -0.0524 -0.7199
14084TIP3   OH263666   1.393   0.225   3.102 -0.7385  0.2487  0.1969
14084TIP3    H163667   1.357   0.223   3.013 -0.1075  0.8103 -0.0744
14084TIP3    H263668   1.408   0.318   3.120 -0.3075  0.0923  0.6641
14085TIP3   OH263669   5.595   2.898   1.773 -1.1408  0.3129  0.1844
14085TIP3    H163670   5.537   2.908   1.848 -1.1883 -0.9358  0.3322
14085TIP3    H263671   5.541   2.857   1.706 -0.5419 -0.5666  0.2168
14086TIP3   OH263672   2.555   2.261   4.424  0.3741 -0.1670  0.6059
14086TIP3    H163673   2.499   2.339   4.428  1.4190  0.7305 -1.5616
14086TIP3    H263674   2.644   2.295   4.425  0.8435 -1.3661  0.1430
14087TIP3   OH263675   1.833   2.335  12.367  0.3589  0.2504  0.4037
14087TIP3    H163676   1.833   2.296  12.455 -1.8073  0.2020  0.3925
14087TIP3    H263677   1.867   2.424  12.380 -0.4187  0.4113  1.3654
14088TIP3   OH263678   0.327   1.809  16.102 -0.1369  0.8285  0.9484
14088TIP3    H163679   0.410   1.831  16.143  0.1480  1.3423  0.1127
14088TIP3    H263680   0.269   1.787  16.174  0.2065  2.1988  1.6533
14089TIP3   OH263681   5.922   6.235  14.855  0.1275 -0.5692 -0.0051
14089TIP3    H163682   5.968   6.153  14.836 -1.3832 -1.3907 -0.2276
14089TIP3    H263683   5.829   6.212  14.851 -0.3348  1.2869 -0.6858
14090TIP3   OH263684   5.586   2.497   5.383 -0.4574  0.4630  0.1065
14090TIP3    H163685   5.643   2.571   5.363  0.6006  0.0077  1.3263
14090TIP3    H263686   5.599   2.436   5.310  0.9214  0.2080  0.5456
14091TIP3   OH263687   3.625   0.477   5.730 -0.4353  0.5169 -0.1885
14091TIP3    H163688   3.551   0.486   5.669 -1.4316  1.2825  1.1191
14091TIP3    H263689   3.601   0.403   5.786  0.5677 -0.3082 -0.8416
14092TIP3   OH263690   0.229   5.954   0.761 -0.3306  0.2595  0.3918
14092TIP3    H163691   0.315   5.969   0.800 -0.0524  2.8131 -1.0553
14092TIP3    H263692   0.245   5.890   0.691  0.6429  1.4953 -0.5561
14093TIP3   OH263693   0.643   3.453   1.891  0.6082  0.0183 -0.0138
14093TIP3    H163694   0.691   3.535   1.904 -0.9803  0.7067  1.8116
14093TIP3    H263695   0.563   3.478   1.845 -0.4908 -0.2808  1.6924
14094TIP3   OH263696   6.727   4.706   0.366  0.1271 -0.7916  0.2234
14094TIP3    H163697   6.669   4.631   0.349 -0.5600 -0.0097 -0.9964
14094TIP3    H263698   6.730   4.713   0.461 -0.8841 -1.5475  0.3236
14095TIP3   OH263699   1.170   2.654   0.853 -0.3818 -0.6406 -0.1281
14095TIP3    H163700   1.134   2.713   0.787  1.3232 -0.9458 -1.3609
14095TIP3    H263701   1.146   2.567   0.824  1.4268 -0.8543 -1.0268
14096TIP3   OH263702   2.617   0.904   1.808  0.2718  0.1231 -0.4017
14096TIP3    H163703   2.526   0.890   1.783 -0.0555 -0.6488  1.1821
14096TIP3    H263704   2.625   0.999   1.817  0.2780  0.3904 -2.9120
14097TIP3   OH263705   3.159   1.706   1.519 -0.3911 -0.0515  0.1516
14097TIP3    H163706   3.232   1.652   1.550 -3.0042 -2.8909  1.6526
14097TIP3    H263707   3.151   1.685   1.426  0.6382  0.2144 -0.0033
14098TIP3   OH263708   4.477   0.030   0.068  0.6073 -0.0343  0.6440
14098TIP3    H163709   4.395   0.057   0.108  0.2586 -1.4774  0.9258
14098TIP3    H263710   4.470   0.058  -0.023  1.0798  2.5511  1.3657
14099TIP3   OH263711   4.154   4.163   5.589  0.1845 -0.2053 -0.1493
14099TIP3    H163712   4.198   4.119   5.661  1.4903  1.3059 -0.0264
14099TIP3    H263713   4.148   4.095   5.521  0.0364 -1.2677  0.8969
14100TIP3   OH263714   5.139   5.638   0.241  0.5016 -0.2071 -0.3301
14100TIP3    H163715   5.126   5.578   0.167  2.1313 -1.0628  0.0649
14100TIP3    H263716   5.103   5.590   0.316  1.2991 -0.4554 -0.1085
14101TIP3   OH263717   3.937   0.485   2.381  0.1791 -0.1713  0.2395
14101TIP3    H163718   3.861   0.540   2.356  1.3492  1.2755 -0.2249
14101TIP3    H263719   3.927   0.471   2.475  0.4081  1.7481  0.5718
14102TIP3   OH263720   6.508   1.032   2.907  0.8276  0.4374 -0.6231
14102TIP3    H163721   6.481   0.940   2.902  0.1761  0.7334 -3.0088
14102TIP3    H263722   6.599   1.028   2.939 -0.0977 -0.8449  2.0403
14103TIP3   OH263723   3.190   0.791   4.112  0.3458  0.5105 -0.2282
14103TIP3    H163724   3.137   0.721   4.074  0.2149  0.2311  0.4670
14103TIP3    H263725   3.262   0.803   4.050 -0.6154  1.0027 -1.2488
14104TIP3   OH263726   0.190   1.863   5.825  0.0098 -0.0081  0.2233
14104TIP3    H163727   0.183   1.849   5.919 -1.0264 -1.3475 -0.0365
14104TIP3    H263728   0.147   1.787   5.786 -0.6829  1.1359 -1.3158
14105TIP3   OH263729   3.276   2.910  14.442  0.4507 -0.1765 -0.2772
14105TIP3    H163730   3.366   2.935  14.421 -0.1602  0.5460 -2.0933
14105TIP3    H263731   3.256   2.839  14.381 -0.5227  0.2811 -0.5009
14106TIP3   OH263732   0.956   6.751   1.858 -0.0540 -0.1962 -0.2476
14106TIP3    H163733   1.009   6.819   1.818 -0.5214  0.3804  0.1078
14106TIP3    H263734   1.018   6.680   1.876  0.0795 -0.6290 -2.3383
14107TIP3   OH263735   2.245   6.206   3.526 -0.6176 -0.2256 -0.1753
14107TIP3    H163736   2.222   6.252   3.607  0.0390 -0.5367  0.1848
14107TIP3    H263737   2.178   6.138   3.518 -1.6341  0.8143 -0.7417
14108TIP3   OH263738   1.462   3.978  13.743  0.8219 -0.1711  0.2394
14108TIP3    H163739   1.440   4.070  13.763  1.5821  0.1171 -0.2295
14108TIP3    H263740   1.538   3.984  13.686 -0.6333 -1.0029 -1.8453
14109TIP3   OH263741   0.416   5.570  12.047  0.3823 -0.3684  0.0451
14109TIP3    H163742   0.446   5.608  12.130 -1.2661 -0.1966  0.5774
14109TIP3    H263743   0.391   5.646  11.994 -2.6311 -0.6288  0.9971
14110TIP3   OH263744   5.126   0.664   0.900  0.3096 -0.2299 -0.8817
14110TIP3    H163745   5.081   0.677   0.984  0.5112  1.3975 -1.0088
14110TIP3    H263746   5.060   0.624   0.843  0.9962 -4.0165  0.8502
14111TIP3   OH263747   3.681   0.264  16.752  0.3592  0.0883 -0.0832
14111TIP3    H163748   3.732   0.341  16.727  1.3586 -0.7151 -0.5448
14111TIP3    H263749   3.679   0.266  16.848  0.7615  0.4531 -0.0830
14112TIP3   OH263750   3.909   4.534  11.364 -0.3675 -0.4057  1.0484
14112TIP3    H163751   3.949   4.611  11.404 -1.1963  1.6310 -1.9327
14112TIP3    H263752   3.978   4.500  11.306 -1.4245  0.5971 -0.8314
14113TIP3   OH263753   4.962   3.924   4.696  0.2475 -0.9418 -0.0502
14113TIP3    H163754   4.981   3.939   4.604 -0.1983 -1.5656 -0.2440
14113TIP3    H263755   4.885   3.867   4.696  0.0520 -0.6843  0.7066
14114TIP3   OH263756   5.342   5.211   4.592  0.1009 -0.1967  0.2779
14114TIP3    H163757   5.401   5.254   4.530 -1.8391 -0.0395 -1.5212
14114TIP3    H263758   5.283   5.281   4.621 -0.5316 -0.8046  0.4510
14115TIP3   OH263759   2.218   2.735  10.807  0.1200 -0.3310 -0.3498
14115TIP3    H163760   2.261   2.655  10.837  0.3002  0.2054  0.8525
14115TIP3    H263761   2.153   2.706  10.744  0.9129 -1.3294 -0.7095
14116TIP3   OH263762   1.676   4.474   4.326  0.5649  0.4471 -0.0013
14116TIP3    H163763   1.659   4.382   4.343  0.7729  0.0763 -1.6954
14116TIP3    H263764   1.596   4.518   4.355  1.3241  0.0246  2.8976
14117TIP3   OH263765   6.136   1.822  14.562 -0.4619  0.1303 -0.0758
14117TIP3    H163766   6.161   1.889  14.625  1.2617  0.6252 -1.2455
14117TIP3    H263767   6.043   1.835  14.548 -1.1083 -0.6335  3.0986
14118TIP3   OH263768   4.886   5.956   1.436 -0.0019  0.6020 -0.8285
14118TIP3    H163769   4.891   5.868   1.397 -0.3025  0.3641 -0.3393
14118TIP3    H263770   4.973   5.993   1.422  0.6828 -0.4300  0.4723
14119TIP3   OH263771   5.617   3.785  14.490 -0.3794  0.8799 -0.1423
14119TIP3    H163772   5.607   3.784  14.395 -0.3944  1.1814 -0.1450
14119TIP3    H263773   5.537   3.742  14.523  0.2552 -0.4526 -0.3114
14120TIP3   OH263774   0.844   1.476  11.038  0.0503  0.4104 -0.1225
14120TIP3    H163775   0.852   1.381  11.026  0.8118  0.6091 -1.2821
14120TIP3    H263776   0.799   1.507  10.959  2.2171  1.3449 -1.0269
14121TIP3   OH263777   1.114   5.886  13.167  0.6620 -0.1755 -0.6502
14121TIP3    H163778   1.100   5.889  13.262  1.6285  0.8394 -0.5368
14121TIP3    H263779   1.068   5.962  13.133 -1.4465 -1.6746 -1.2467
14122TIP3   OH263780   5.761   0.044  15.757 -0.2688 -0.1419 -0.0934
14122TIP3    H163781   5.733   0.127  15.719 -2.0269 -0.2355  0.9890
14122TIP3    H263782   5.836   0.067  15.813  0.6102  0.3803 -1.4465
14123TIP3   OH263783   5.362   3.928   3.269 -0.3530 -0.2783  0.1545
14123TIP3    H163784   5.405   3.907   3.352  0.2160  0.4177  0.0442
14123TIP3    H263785   5.391   4.017   3.249  0.3421 -0.8022 -1.3001
14124TIP3   OH263786   5.203   2.314  12.502  0.0379  0.4404 -0.0469
14124TIP3    H163787   5.189   2.362  12.584  0.7475 -0.1788  0.4490
14124TIP3    H263788   5.298   2.311  12.493 -0.0158 -0.5564 -0.2628
14125TIP3   OH263789   0.001   1.199  12.065  0.2670 -0.0795  0.3819
14125TIP3    H163790  -0.039   1.141  12.129 -0.7378  1.8323  1.5492
14125TIP3    H263791  -0.069   1.220  12.004  0.1370  1.2029  0.9376
14126TIP3   OH263792   6.485   1.162  16.235 -0.0666 -0.0300 -0.0569
14126TIP3    H163793   6.415   1.199  16.181 -0.6373 -2.1594 -0.8170
14126TIP3    H263794   6.556   1.226  16.229 -0.8527  0.7240 -1.6962
14127TIP3   OH263795   2.866   0.085   4.058  0.3731  0.0938 -0.1403
14127TIP3    H163796   2.920   0.007   4.070  1.5000  0.3940 -2.9469
14127TIP3    H263797   2.781   0.061   4.094  1.6327 -1.2861  1.9892
14128TIP3   OH263798   4.571   0.604  12.119  0.1087  0.3630  0.2304
14128TIP3    H163799   4.543   0.687  12.080  1.5140  1.7016  2.0002
14128TIP3    H263800   4.620   0.629  12.197 -1.4210 -2.2089  2.1138
14129TIP3   OH263801   0.585   4.988  16.799  0.1522 -0.2192  1.3973
14129TIP3    H163802   0.610   5.035  16.879  0.1384  0.8993  0.7549
14129TIP3    H263803   0.552   5.056  16.741 -3.3021 -1.4555  1.7688
14130TIP3   OH263804   4.755   5.755  16.238  0.1739 -0.5274  0.0391
14130TIP3    H163805   4.682   5.716  16.287 -0.5894  0.1921 -0.5143
14130TIP3    H263806   4.796   5.681  16.193 -0.3345 -0.9126  0.2107
14131TIP3   OH263807   4.085   0.280  12.730  0.6046 -0.4687 -0.2216
14131TIP3    H163808   4.025   0.266  12.803  0.4350 -0.0688 -0.2827
14131TIP3    H263809   4.050   0.225  12.659 -0.7006  1.0798 -0.8256
14132TIP3   OH263810   5.749   0.899   4.300 -0.5407 -0.1605  0.5682
14132TIP3    H163811   5.701   0.844   4.239 -0.1520 -1.4464  1.4047
14132TIP3    H263812   5.836   0.908   4.261 -0.4351 -0.5929  0.7054
14133TIP3   OH263813   0.584   5.163   4.335  0.2059 -0.3016 -0.0733
14133TIP3    H163814   0.679   5.168   4.344  0.1040 -0.6075  1.3954
14133TIP3    H263815   0.552   5.168   4.425 -1.1412 -0.7557 -0.5224
14134TIP3   OH263816   3.667   6.126  12.405  0.3034 -0.5895 -0.1239
14134TIP3    H163817   3.649   6.203  12.350 -0.5762 -1.3124 -0.8587
14134TIP3    H263818   3.634   6.052  12.354 -0.6696 -1.2569  1.4399
14135TIP3   OH263819   0.103   1.681  11.883  0.3504  0.4204 -0.4772
14135TIP3    H163820   0.046   1.745  11.840 -0.8658 -0.4490 -0.1912
14135TIP3    H263821   0.076   1.682  11.975 -1.8874 -2.7228 -1.0040
14136TIP3   OH263822   4.655   6.570   2.171  0.1708  0.2211 -0.4440
14136TIP3    H163823   4.720   6.640   2.167  0.2115  0.2000 -0.1743
14136TIP3    H263824   4.573   6.615   2.193  0.2887  0.1291  0.2062
14137TIP3   OH263825   1.636   2.000  17.193 -0.3586 -0.5399 -0.1832
14137TIP3    H163826   1.705   2.066  17.191 -1.0873  0.2402  0.0378
14137TIP3    H263827   1.573   2.030  17.126 -0.7051 -0.9911 -0.0593
14138TIP3   OH263828   3.648   5.929   1.771 -0.0725 -0.2544  0.1700
14138TIP3    H163829   3.739   5.959   1.770 -0.0759 -0.2451  0.1269
14138TIP3    H263830   3.654   5.834   1.760 -0.0343 -0.3353  0.8535
14139TIP3   OH263831   6.712   6.397  15.427  0.2686  0.5962 -0.3926
14139TIP3    H163832   6.758   6.410  15.344  2.1297  1.5477  0.7662
14139TIP3    H263833   6.682   6.306  15.423  2.0282  0.0321 -1.2726
14140TIP3   OH263834   4.191   5.357   5.773  0.4116  0.2687 -0.4574
14140TIP3    H163835   4.241   5.422   5.722  2.3870 -1.2090 -0.4532
14140TIP3    H263836   4.257   5.296   5.806 -1.2947 -1.0981  0.5283
14141TIP3   OH263837   3.347   3.192   0.170  0.7051  0.3188 -0.5591
14141TIP3    H163838   3.301   3.136   0.232  1.0290  1.6148  0.8718
14141TIP3    H263839   3.318   3.161   0.084  0.1167 -1.3721  0.2305
14142TIP3   OH263840   0.602   2.245   3.861  0.2379 -0.1481 -0.1564
14142TIP3    H163841   0.533   2.259   3.926  1.2609  2.3021  0.4491
14142TIP3    H263842   0.651   2.170   3.894 -0.5779 -0.3047  0.7389
14143TIP3   OH263843   0.592   1.534   0.468  0.4698  0.2451  0.3150
14143TIP3    H163844   0.634   1.451   0.445 -0.8038 -0.8339  1.7622
14143TIP3    H263845   0.637   1.562   0.548  0.5219  0.6378  0.1433
14144TIP3   OH263846   0.398   5.829   2.787 -0.1802 -0.4365  0.4631
14144TIP3    H163847   0.468   5.785   2.835 -0.4429 -1.1167  0.2232
14144TIP3    H263848   0.396   5.786   2.702 -0.0083  0.4738 -0.0105
14145TIP3   OH263849   3.797   3.030   2.230  0.3368  0.5767  0.5498
14145TIP3    H163850   3.720   3.082   2.208  0.0726  0.2624  0.7250
14145TIP3    H263851   3.800   2.962   2.162 -0.5573 -0.4778  1.5568
14146TIP3   OH263852   4.814   3.959  11.499  0.3670 -0.0093  0.1239
14146TIP3    H163853   4.774   3.950  11.413  0.3592  1.3192 -0.0209
14146TIP3    H263854   4.773   3.890  11.552 -0.3524 -0.1917 -0.6668
14147TIP3   OH263855   2.056   6.427  13.525  0.1977  0.2065  0.1220
14147TIP3    H163856   2.138   6.448  13.481 -0.7711 -0.5211 -2.0495
14147TIP3    H263857   1.989   6.435  13.457 -1.3321 -0.8513  1.4670
14148TIP3   OH263858   3.904   5.431  15.920 -0.3777  0.0204 -0.3000
14148TIP3    H163859   3.862   5.428  15.834 -1.8541  1.2692  0.3621
14148TIP3    H263860   3.934   5.522  15.929 -1.3960  0.2485  1.0265
14149TIP3   OH263861   0.460   1.039  17.195  0.6054  0.2239 -0.0545
14149TIP3    H163862   0.496   1.057  17.282  0.1523 -0.1330  0.2125
14149TIP3    H263863   0.369   1.070  17.201  0.5683  0.1796 -0.3945
14150TIP3   OH263864   4.618   6.641   1.773  0.1733 -0.3406 -0.8329
14150TIP3    H163865   4.678   6.645   1.848 -1.0756 -0.6879  0.2103
14150TIP3    H263866   4.562   6.718   1.783 -0.4751 -0.7885 -1.0038
14151TIP3   OH263867   5.659   1.691  15.463 -0.4139 -0.0149 -0.4357
14151TIP3    H163868   5.581   1.670  15.514  0.6459 -0.4088  1.0270
14151TIP3    H263869   5.714   1.742  15.522  1.4802 -1.7088 -0.6901
14152TIP3   OH263870   3.685   2.606  10.933 -0.3130 -0.1962  0.3101
14152TIP3    H163871   3.711   2.545  11.002  0.8289 -0.4681 -0.3527
14152TIP3    H263872   3.767   2.631  10.891 -1.2147 -2.1658 -2.7637
14153TIP3   OH263873   6.702   1.470   3.072  0.4955 -0.5307  0.2717
14153TIP3    H163874   6.649   1.543   3.106  1.1701 -0.8583  2.0770
14153TIP3    H263875   6.651   1.436   2.998  0.0330  1.5809 -0.4074
14154TIP3   OH263876   5.786   0.161   4.912  0.4015 -0.0108  0.4682
14154TIP3    H163877   5.801   0.075   4.873 -1.1403  0.7332 -1.9008
14154TIP3    H263878   5.786   0.221   4.837 -3.0608  1.4248  1.5275
14155TIP3   OH263879   5.892   4.856  16.048 -0.1829 -0.0036  0.5474
14155TIP3    H163880   5.876   4.791  16.117  0.4445  0.4914  1.1649
14155TIP3    H263881   5.890   4.940  16.093  0.6878  0.2967  0.0410
14156TIP3   OH263882   1.532   3.728  12.529  0.1801  0.2182  0.3844
14156TIP3    H163883   1.510   3.734  12.436 -0.2415  0.0104  0.4692
14156TIP3    H263884   1.614   3.778  12.538 -0.4510  1.3123  0.1260
14157TIP3   OH263885   3.853   2.937   1.654 -0.0354  0.0710 -0.1680
14157TIP3    H163886   3.921   2.934   1.721  1.1187  0.2059 -1.3130
14157TIP3    H263887   3.821   3.027   1.656 -0.9631 -0.2638  1.1137
14158TIP3   OH263888   4.964   0.273  12.495  0.6802  0.0919  0.0124
14158TIP3    H163889   4.896   0.340  12.505 -0.0617 -0.6231 -0.2047
14158TIP3    H263890   5.045   0.322  12.492  0.1578  0.9729  0.0854
14159TIP3   OH263891   3.605   3.178   4.200 -0.1190  0.2284  0.6616
14159TIP3    H163892   3.664   3.159   4.273  1.1863 -2.8114 -1.0675
14159TIP3    H263893   3.523   3.206   4.242  0.9422 -0.3627  3.2395
14160TIP3   OH263894   0.961   4.679   1.238  0.0375 -0.6059 -0.0771
14160TIP3    H163895   0.971   4.772   1.219 -1.6254 -0.3195  0.4010
14160TIP3    H263896   1.011   4.635   1.169  1.7021  0.6601  0.3036
14161TIP3   OH263897   5.808   2.344  10.569 -0.3096 -0.5783  0.3383
14161TIP3    H163898   5.715   2.350  10.592  0.2394  0.7789  2.3808
14161TIP3    H263899   5.824   2.421  10.515 -0.4541 -1.0604 -0.4064
14162TIP3   OH263900   0.010   0.444   0.265 -0.1824  0.3430 -0.0623
14162TIP3    H163901  -0.025   0.530   0.240  0.3445  0.8040  0.7652
14162TIP3    H263902   0.024   0.399   0.182  0.1225  1.2865 -0.5280
14163TIP3   OH263903   6.055   4.671   1.921 -0.3922  0.9827  0.2895
14163TIP3    H163904   6.002   4.594   1.900  0.5013  0.4535 -0.0862
14163TIP3    H263905   6.016   4.706   2.001  0.1176 -0.7872  1.3590
14164TIP3   OH263906   3.136   0.892   3.752 -0.2303  0.3852  0.3306
14164TIP3    H163907   3.216   0.873   3.801  0.6540 -0.6882 -1.4750
14164TIP3    H263908   3.109   0.979   3.783  1.3309  0.5350  1.3335
14165TIP3   OH263909   4.493   5.464   0.042  0.1222  0.0246 -0.4990
14165TIP3    H163910   4.565   5.435  -0.014 -1.1528 -0.0368 -2.1536
14165TIP3    H263911   4.480   5.556   0.019  2.1536  1.1392  2.5495
14166TIP3   OH263912   6.206   5.043   3.239 -0.1428 -0.0521  0.8470
14166TIP3    H163913   6.251   5.106   3.183  0.1508  0.7020  1.9043
14166TIP3    H263914   6.140   5.095   3.286  0.0452 -0.5371  1.6692
14167TIP3   OH263915   2.672   4.199  10.539  0.3913  0.0104  0.0585
14167TIP3    H163916   2.615   4.127  10.565 -0.1581  0.7747  0.9825
14167TIP3    H263917   2.759   4.159  10.534 -0.1143 -1.0006 -0.6898
14168TIP3   OH263918   1.966   0.600   1.779 -0.3358 -0.3009 -0.1511
14168TIP3    H163919   1.940   0.610   1.688 -1.3786  0.9341  0.2716
14168TIP3    H263920   1.915   0.525   1.810 -0.0287 -0.6801 -0.5526
14169TIP3   OH263921   1.776   4.551  15.743  0.0953  0.0669 -0.3065
14169TIP3    H163922   1.751   4.641  15.723  0.4449  0.1562 -0.3397
14169TIP3    H263923   1.709   4.498  15.701  0.2337  0.2873 -0.8115
14170TIP3   OH263924   6.100   6.115  12.181 -0.6127  0.3731 -0.2715
14170TIP3    H163925   6.094   6.176  12.108 -1.2577  2.3136  1.3371
14170TIP3    H263926   6.013   6.114  12.220 -0.1826 -0.3167  0.7186
14171TIP3   OH263927   6.227   2.090   1.692  0.3430  0.0723  0.4145
14171TIP3    H163928   6.205   2.039   1.770  0.0791 -2.2721 -1.1559
14171TIP3    H263929   6.270   2.027   1.633  0.4868  1.7788 -1.3600
14172TIP3   OH263930   5.490   4.532   5.892 -0.8139 -0.8589  0.1719
14172TIP3    H163931   5.527   4.460   5.942  2.1231  0.2026 -0.3766
14172TIP3    H263932   5.431   4.576   5.953  1.6471 -0.3974  2.3006
14173TIP3   OH263933   5.699   4.191   5.271 -0.3222  0.0937  0.7431
14173TIP3    H163934   5.627   4.213   5.212 -0.6953 -0.5700  0.9390
14173TIP3    H263935   5.778   4.214   5.223 -0.6414  0.0055  0.1736
14174TIP3   OH263936   6.493   2.353  16.807 -0.0341  0.8217  0.0082
14174TIP3    H163937   6.448   2.311  16.881 -1.5788  0.4600 -1.1058
14174TIP3    H263938   6.446   2.436  16.795 -0.1200  0.6574 -0.8600
14175TIP3   OH263939   4.090   4.633   2.260 -0.3276 -0.0648 -0.4031
14175TIP3    H163940   4.127   4.547   2.278 -0.0241 -0.0205 -0.7979
14175TIP3    H263941   4.121   4.654   2.172  0.4033  0.8684  0.0674
14176TIP3   OH263942   4.237   3.883  16.361 -0.4416 -0.0192 -0.2649
14176TIP3    H163943   4.167   3.948  16.359  1.4333  2.0377 -1.3345
14176TIP3    H263944   4.223   3.831  16.282 -0.3636  0.8338 -0.8469
14177TIP3   OH263945   1.738   0.790  12.825 -0.2198 -0.1650  0.1852
14177TIP3    H163946   1.686   0.784  12.905 -0.4239  0.2224  0.0852
14177TIP3    H263947   1.791   0.710  12.825  0.4315  0.2548  1.1617
14178TIP3   OH263948   5.470   3.198   3.922 -0.0073 -0.5523  0.1831
14178TIP3    H163949   5.534   3.259   3.959  2.5838 -2.7079 -0.5781
14178TIP3    H263950   5.425   3.249   3.854  1.1924  0.8853  0.4405
14179TIP3   OH263951   4.655   6.316   5.320  0.4217 -0.4634  0.3075
14179TIP3    H163952   4.564   6.289   5.333  0.2689 -1.8651 -3.0514
14179TIP3    H263953   4.707   6.254   5.371 -0.4018 -1.3715  0.0518
14180TIP3   OH263954   2.992   3.071   0.486  0.0671  0.0427 -0.4995
14180TIP3    H163955   3.009   3.061   0.580  1.9493  1.2349 -0.6909
14180TIP3    H263956   2.961   3.161   0.477 -1.1111 -0.3985 -0.8930
14181TIP3   OH263957   5.954   1.678   6.246 -0.0581 -0.1701  0.1274
14181TIP3    H163958   6.044   1.707   6.261 -0.6427  1.0399  1.4831
14181TIP3    H263959   5.954   1.585   6.269  1.0508 -0.3864 -0.7632
14182TIP3   OH263960   4.902   1.644   2.681 -0.4825 -0.0008  0.7555
14182TIP3    H163961   4.921   1.726   2.727  0.1565 -1.1626  2.6166
14182TIP3    H263962   4.807   1.642   2.672 -0.4098  1.6141 -0.6016
14183TIP3   OH263963   5.194   6.212  16.833 -0.0582 -0.3009  0.4848
14183TIP3    H163964   5.233   6.226  16.747  0.9354 -2.9513  0.4452
14183TIP3    H263965   5.214   6.292  16.882  1.6835  0.1590 -0.9122
14184TIP3   OH263966   6.316   3.607  13.331 -0.7167 -0.2335 -0.1596
14184TIP3    H163967   6.353   3.694  13.316 -0.5500  0.1730  2.4070
14184TIP3    H263968   6.265   3.616  13.411  1.7916 -3.2309  1.8902
14185TIP3   OH263969   1.316   3.556   1.571 -0.3744 -0.5713  0.6261
14185TIP3    H163970   1.308   3.603   1.655  0.0137 -0.2364  0.4790
14185TIP3    H263971   1.352   3.621   1.511 -2.3122 -0.2810 -0.2582
14186TIP3   OH263972   5.213   6.167  12.775  0.4666 -0.2554  0.4548
14186TIP3    H163973   5.158   6.183  12.852 -0.1672 -2.0618  0.3939
14186TIP3    H263974   5.152   6.139  12.707  1.2947 -0.9235 -0.0240
14187TIP3   OH263975   6.721   3.164   4.452 -0.5288 -0.1360  0.1885
14187TIP3    H163976   6.673   3.146   4.371 -1.7043  0.0671  0.8358
14187TIP3    H263977   6.779   3.089   4.462 -0.3252 -0.1303 -0.8833
14188TIP3   OH263978   0.209   5.664   0.648 -0.2452 -0.4355 -0.4059
14188TIP3    H163979   0.201   5.653   0.554  0.0621 -1.9417 -0.2672
14188TIP3    H263980   0.168   5.586   0.685 -2.0261  1.0142  0.7613
14189TIP3   OH263981   2.481   6.546   0.669  0.1935 -0.0293  0.0412
14189TIP3    H163982   2.524   6.494   0.601  1.9501  0.8776  0.4174
14189TIP3    H263983   2.415   6.597   0.622  0.8840  0.0266 -0.8831
14190TIP3   OH263984   1.897   5.515   2.805 -0.4115 -0.2924  0.1111
14190TIP3    H163985   1.889   5.552   2.893 -1.5909 -1.2139  0.4108
14190TIP3    H263986   1.824   5.454   2.798 -0.9494  0.5423 -1.9045
14191TIP3   OH263987   5.892   0.346   1.473  0.1085 -0.1453 -0.5785
14191TIP3    H163988   5.894   0.254   1.501  0.7209 -0.1800 -0.7325
14191TIP3    H263989   5.979   0.380   1.495 -0.6199  0.8247  0.8933
14192TIP3   OH263990   1.379   1.541   1.234  0.0928  0.4513  0.2846
14192TIP3    H163991   1.302   1.580   1.275  0.6668 -0.2850  2.1119
14192TIP3    H263992   1.348   1.511   1.149 -0.6415  3.8248 -0.7290
14193TIP3   OH263993   4.594   4.381  16.060 -0.0920 -0.5793 -0.1334
14193TIP3    H163994   4.520   4.330  16.026 -1.9256  1.9349 -0.0856
14193TIP3    H263995   4.571   4.472  16.040  3.5365  0.2172 -1.1343
14194TIP3   OH263996   3.970   2.660  11.716  0.6669  0.4065  0.0245
14194TIP3    H163997   3.984   2.569  11.692  0.2132  0.4093 -0.2794
14194TIP3    H263998   3.998   2.709  11.639  1.0797  0.5323  0.2566
14195TIP3   OH263999   2.075   2.529   4.791 -0.3129 -0.8905 -0.6456
14195TIP3    H164000   2.122   2.451   4.820  0.0174 -1.2474 -2.1013
14195TIP3    H264001   2.063   2.580   4.871  1.9587 -1.0968 -0.1137
14196TIP3   OH264002   3.562   6.346  15.875 -0.2993 -0.4894 -0.0909
14196TIP3    H164003   3.546   6.427  15.924 -0.1207  0.0307 -0.8873
14196TIP3    H264004   3.481   6.331  15.826  0.9449  1.2380 -2.8258
14197TIP3   OH264005   3.259   6.096  14.649  0.1327  0.1175  0.2364
14197TIP3    H164006   3.349   6.103  14.681  0.0881 -1.1621  0.6830
14197TIP3    H264007   3.205   6.121  14.724  0.1293  1.5856 -0.2528
14198TIP3   OH264008   2.055   3.028  17.204 -0.4444 -0.3865  0.0375
14198TIP3    H164009   2.056   2.977  17.123 -0.7952 -0.1738 -0.1003
14198TIP3    H264010   2.008   3.109  17.182 -1.0676 -0.5877  0.6051
14199TIP3   OH264011   6.105   0.663  11.592  0.3136 -0.5971  0.7674
14199TIP3    H164012   6.025   0.633  11.549  1.0383 -1.4555 -0.0135
14199TIP3    H264013   6.105   0.758  11.577  1.3146 -1.0445 -2.5394
14200TIP3   OH264014   0.814   2.836  13.893  0.3424  0.3661  0.0907
14200TIP3    H164015   0.747   2.814  13.958 -2.8475  1.6364 -2.5877
14200TIP3    H264016   0.834   2.928  13.909  1.2793  0.0482  0.7446
14201TIP3   OH264017   4.062   0.863  17.221 -0.2590  0.2125  0.3014
14201TIP3    H164018   4.092   0.775  17.197 -0.6653  0.4739 -1.1657
14201TIP3    H264019   4.142   0.915  17.224 -0.4323  0.7231 -2.8325
14202TIP3   OH264020   1.680   1.978   0.474  0.5129  0.1889  0.2312
14202TIP3    H164021   1.636   1.982   0.389 -0.7560  1.5932  0.9281
14202TIP3    H264022   1.700   1.885   0.486 -2.3235 -0.5215 -0.1003
14203TIP3   OH264023   2.118   0.556   3.679 -0.2197  0.2100  0.5604
14203TIP3    H164024   2.109   0.572   3.773  0.8758 -1.5145  0.9752
14203TIP3    H264025   2.201   0.599   3.656 -0.1911  0.1171  0.4922
14204TIP3   OH264026   5.099   4.788   0.545  0.2465 -0.4890 -0.2345
14204TIP3    H164027   5.020   4.772   0.597 -1.1626 -1.6394 -2.6613
14204TIP3    H264028   5.169   4.795   0.610 -1.6721 -0.4571  1.9004
14205TIP3   OH264029   4.732   3.631  16.334  0.0298  0.7497  0.7399
14205TIP3    H164030   4.784   3.613  16.256 -2.4777  0.4516 -0.9123
14205TIP3    H264031   4.701   3.545  16.363  0.5049  0.9140  1.7700
14206TIP3   OH264032   2.708   1.857  11.703 -0.1575  0.5303  0.3550
14206TIP3    H164033   2.680   1.766  11.700 -1.0705  0.8648 -2.9637
14206TIP3    H264034   2.800   1.855  11.678  0.0604  0.4298  1.1680
14207TIP3   OH264035   6.678   5.390   3.039  0.1596 -0.2916  0.1765
14207TIP3    H164036   6.611   5.352   3.096 -0.8051 -1.5793 -1.7429
14207TIP3    H264037   6.630   5.451   2.983  0.9932  0.5384  0.3554
14208TIP3   OH264038   6.553   6.399  11.476 -0.3134  0.4449 -0.3435
14208TIP3    H164039   6.594   6.460  11.414 -0.7350 -0.3193 -1.3698
14208TIP3    H264040   6.625   6.343  11.505 -0.1903  0.5500 -0.4421
14209TIP3   OH264041   0.999   1.914  14.905  0.3200  0.0494 -0.4940
14209TIP3    H164042   0.975   1.999  14.868  1.0559  0.2173 -0.5943
14209TIP3    H264043   1.024   1.861  14.830 -1.2673 -0.6377 -0.5508
14210TIP3   OH264044   5.811   1.809   3.691 -0.2072  0.9926  0.4946
14210TIP3    H164045   5.743   1.840   3.631  1.8057  2.0011 -1.3721
14210TIP3    H264046   5.881   1.874   3.682  1.4858 -0.6638  1.4403
14211TIP3   OH264047   6.330   4.292   1.007 -0.3849 -0.2427  0.4649
14211TIP3    H164048   6.303   4.354   0.939  0.4737  0.3518  0.6630
14211TIP3    H264049   6.248   4.250   1.035 -0.8867  0.3297 -0.1259
14212TIP3   OH264050   5.529   0.027  15.439 -0.4812 -0.4191  0.7953
14212TIP3    H164051   5.445   0.012  15.397 -0.1394 -1.2002  0.3803
14212TIP3    H264052   5.588   0.050  15.368 -0.5524  1.0754  1.1947
14213TIP3   OH264053   1.761   6.554   1.772 -0.2615 -0.0780  0.8270
14213TIP3    H164054   1.842   6.544   1.721 -0.2375 -2.3836  1.2647
14213TIP3    H264055   1.692   6.561   1.706  0.2203  1.1838  0.4539
14214TIP3   OH264056   2.869   2.024  13.939 -0.2273 -0.1289 -0.1474
14214TIP3    H164057   2.824   1.956  13.888 -0.4538 -0.1491  0.0743
14214TIP3    H264058   2.960   2.019  13.912 -0.9925  2.5736 -3.6167
14215TIP3   OH264059   1.578   1.708   3.701  0.7917 -0.3973  0.0419
14215TIP3    H164060   1.635   1.716   3.777  0.7789 -1.4622  0.1731
14215TIP3    H264061   1.572   1.613   3.685 -1.9477 -0.3834  0.7812
14216TIP3   OH264062   2.194   3.145   0.299  0.4110  0.4728  0.5963
14216TIP3    H164063   2.263   3.180   0.243  0.2673  0.8004  0.6257
14216TIP3    H264064   2.117   3.198   0.279 -0.1429 -0.6390 -0.2865
14217TIP3   OH264065   5.931   4.298   2.703 -0.0987  0.0739  0.2554
14217TIP3    H164066   5.886   4.379   2.727 -2.3282 -1.1992  0.5487
14217TIP3    H264067   5.967   4.266   2.786  1.7611  1.2990 -0.0463
14218TIP3   OH264068   0.339   0.043   4.649  0.6115 -0.6749  0.4037
14218TIP3    H164069   0.395   0.098   4.704 -1.8097  0.2131  2.0541
14218TIP3    H264070   0.269   0.102   4.619 -0.7380 -2.2847  0.3069
14219TIP3   OH264071   5.306   2.826  11.757  0.0052  0.4304 -0.1454
14219TIP3    H164072   5.254   2.757  11.717  0.8483 -0.7575  0.7900
14219TIP3    H264073   5.244   2.899  11.768 -0.2464  0.8363 -3.6212
14220TIP3   OH264074   5.846   0.559  17.146 -0.3842  0.4572  0.0523
14220TIP3    H164075   5.770   0.528  17.097  0.2328  0.0522 -0.6601
14220TIP3    H264076   5.887   0.624  17.089  1.0794 -0.9629 -0.5371
14221TIP3   OH264077   1.834   1.915   3.224 -0.0080 -0.1032 -0.8402
14221TIP3    H164078   1.800   1.979   3.287 -1.1966 -1.0927 -0.4590
14221TIP3    H264079   1.780   1.927   3.146 -1.2985 -1.7252 -0.2104
14222TIP3   OH264080   3.410   3.768   4.086 -0.3640 -0.0220 -0.4494
14222TIP3    H164081   3.382   3.839   4.143 -0.5143  0.8812 -1.6307
14222TIP3    H264082   3.487   3.732   4.128 -0.0871  1.0622 -0.0122
14223TIP3   OH264083   0.626   0.212  11.124 -0.9253 -0.8056  0.4692
14223TIP3    H164084   0.546   0.192  11.076 -0.5606  0.4272 -0.7032
14223TIP3    H264085   0.684   0.252  11.058 -0.6635  1.5546  2.0575
14224TIP3   OH264086   1.692   1.440  14.627 -0.4589 -0.0744  0.0114
14224TIP3    H164087   1.686   1.363  14.684  2.0379 -1.2852 -1.2650
14224TIP3    H264088   1.605   1.447  14.587 -0.8416 -2.0571  0.4164
14225TIP3   OH264089   4.177   6.460   4.293 -0.1270 -0.4352  0.1220
14225TIP3    H164090   4.149   6.376   4.329 -0.5844  0.1557  1.1603
14225TIP3    H264091   4.268   6.468   4.318  0.0319 -0.8016 -0.3263
14226TIP3   OH264092   3.174   3.021   6.215  0.2252  0.0823 -0.1923
14226TIP3    H164093   3.110   2.978   6.272 -1.3446  2.9557  0.3116
14226TIP3    H264094   3.254   3.025   6.267 -0.6609  0.9808  1.1553
14227TIP3   OH264095   4.724   6.053   0.567 -0.6230 -0.2473 -0.3933
14227TIP3    H164096   4.680   6.091   0.643 -1.7721 -0.6899 -0.8325
14227TIP3    H264097   4.739   5.962   0.591 -2.8250 -0.9152 -1.4772
14228TIP3   OH264098   4.929   0.375  13.052 -0.0314  0.0300  0.3306
14228TIP3    H164099   4.899   0.439  13.117 -0.0105  1.6402 -1.2052
14228TIP3    H264100   4.855   0.366  12.992  1.0267  0.8561 -1.1244
14229TIP3   OH264101   5.274   4.650   6.568  0.7253 -0.3928 -0.7247
14229TIP3    H164102   5.361   4.665   6.606 -0.4970  0.9611  1.6792
14229TIP3    H264103   5.215   4.646   6.644 -1.4631 -0.1748 -2.3655
14230TIP3   OH264104   6.357   5.752  10.626 -0.1858  0.0714 -0.5019
14230TIP3    H164105   6.372   5.686  10.558 -0.8694 -0.2453 -0.3456
14230TIP3    H264106   6.438   5.803  10.627 -0.1722  0.0900 -1.5603
14231TIP3   OH264107   0.019   1.431  14.939 -0.6356 -0.6641 -0.3280
14231TIP3    H164108   0.018   1.478  14.856 -0.8781 -1.0747 -0.5555
14231TIP3    H264109   0.070   1.352  14.922  1.6414  0.5544  0.6325
14232TIP3   OH264110   6.156   6.673  16.116 -0.6507 -0.4040  0.2914
14232TIP3    H164111   6.232   6.729  16.096 -0.8186 -0.7492 -1.4431
14232TIP3    H264112   6.081   6.721  16.080 -0.9124 -1.2926 -0.3692
14233TIP3   OH264113   6.394   0.482  14.156 -0.2840 -0.1526  0.3859
14233TIP3    H164114   6.346   0.563  14.171 -0.1664  0.0480 -0.3128
14233TIP3    H264115   6.478   0.510  14.120 -0.2956 -0.5889  0.0107
14234TIP3   OH264116   1.452   4.217   2.710  0.3163  0.2987  0.4233
14234TIP3    H164117   1.419   4.236   2.623  0.0124 -1.1406  0.1981
14234TIP3    H264118   1.390   4.258   2.770 -1.0874 -1.1237 -0.0189
14235TIP3   OH264119   1.546   1.527  12.929 -0.3991  0.1064  0.4113
14235TIP3    H164120   1.454   1.548  12.912 -0.8517 -2.3503 -0.3117
14235TIP3    H264121   1.595   1.583  12.868 -1.5019 -0.0302 -0.6183
14236TIP3   OH264122   1.574   2.004  15.417 -0.3008 -0.0588  0.4233
14236TIP3    H164123   1.581   2.099  15.421 -0.7356  0.0405 -0.8826
14236TIP3    H264124   1.517   1.981  15.490 -0.8386  0.7542  0.2653
14237TIP3   OH264125   4.549   3.541   1.513  0.1803 -0.2255 -0.2267
14237TIP3    H164126   4.520   3.602   1.581 -2.2021 -1.7781  0.2038
14237TIP3    H264127   4.625   3.497   1.552 -0.0970  0.1293  0.7520
14238TIP3   OH264128   5.494   3.206   6.140  0.0562 -0.5604  0.0413
14238TIP3    H164129   5.469   3.286   6.187  0.3280 -1.5995  1.9683
14238TIP3    H264130   5.483   3.229   6.048 -1.2017  1.2701  0.6182
14239TIP3   OH264131   1.143   0.385   3.320 -0.1026 -0.1660 -0.1752
14239TIP3    H164132   1.065   0.406   3.372  0.1302  0.1859  0.0434
14239TIP3    H264133   1.110   0.357   3.235 -0.4203  1.7125 -0.6868
14240TIP3   OH264134   5.087   6.275  12.468  0.3726  0.4166  0.4051
14240TIP3    H164135   5.061   6.332  12.396  2.0810  0.6506 -0.0516
14240TIP3    H264136   5.057   6.188  12.442 -0.5013  0.7795  0.1915
14241TIP3   OH264137   1.321   4.970  11.686 -0.2920  0.4395  0.1071
14241TIP3    H164138   1.268   5.006  11.757 -0.6451 -0.8229  0.4927
14241TIP3    H264139   1.410   4.966  11.723 -0.6040 -0.8975  0.7490
14242TIP3   OH264140   0.388   0.621   0.767  0.1538 -0.1540 -0.0652
14242TIP3    H164141   0.351   0.674   0.838  0.7867  0.2298 -0.0253
14242TIP3    H264142   0.415   0.685   0.701 -0.5785 -0.5175 -0.7256
14243TIP3   OH264143   3.742   4.528  15.786  0.0379  0.5307  0.5729
14243TIP3    H164144   3.692   4.554  15.709  0.2084  0.9343  0.5986
14243TIP3    H264145   3.813   4.592  15.792  1.0961 -0.5591  0.0166
14244TIP3   OH264146   4.523   1.359  14.940  0.5623 -0.1654  0.4329
14244TIP3    H164147   4.453   1.408  14.981  0.0031  0.2030 -0.9178
14244TIP3    H264148   4.583   1.425  14.906  0.0410 -0.3916 -0.9912
14245TIP3   OH264149   6.478   4.437   2.498 -0.5335 -0.2923  0.4144
14245TIP3    H164150   6.506   4.469   2.584  1.4421 -1.4981  0.2660
14245TIP3    H264151   6.469   4.342   2.510  0.1429 -0.5112 -0.8012
14246TIP3   OH264152   2.535   2.708  13.633  0.3844  0.0623 -0.3205
14246TIP3    H164153   2.590   2.630  13.639  0.9215  0.5344  1.0238
14246TIP3    H264154   2.467   2.695  13.699  2.0422  1.9393  1.8215
14247TIP3   OH264155   1.078   2.309   6.592  0.3475  0.4913  0.2435
14247TIP3    H164156   1.135   2.334   6.519  1.6152 -1.4976  0.5029
14247TIP3    H264157   1.003   2.367   6.585  2.0798  2.7205 -0.5336
14248TIP3   OH264158   1.129   0.783  17.081  0.0958  0.5399  0.1148
14248TIP3    H164159   1.118   0.736  16.999  0.0077  1.1195 -0.2034
14248TIP3    H264160   1.041   0.792  17.116 -0.0623  1.7898 -0.5671
14249TIP3   OH264161   0.503   4.104   4.026 -0.3496 -0.0968 -0.0865
14249TIP3    H164162   0.449   4.025   4.041 -0.2592 -0.3813 -1.1848
14249TIP3    H264163   0.582   4.089   4.077 -0.0489 -1.0330 -0.7985
14250TIP3   OH264164   5.263   1.021   3.727  0.8391 -0.2845  0.2381
14250TIP3    H164165   5.344   1.064   3.702 -0.5620  1.7560 -0.9589
14250TIP3    H264166   5.256   0.946   3.668  2.4679 -1.2154  1.2102
14251TIP3   OH264167   2.707   4.945   2.302 -0.0491 -0.5087 -0.3155
14251TIP3    H164168   2.772   4.961   2.370  0.2040 -1.6078 -0.2870
14251TIP3    H264169   2.635   4.901   2.348 -0.3186 -0.3127 -0.5552
14252TIP3   OH264170   5.421   4.110  15.241 -0.1779  0.6773  0.2822
14252TIP3    H164171   5.379   4.129  15.325  0.5263  0.1966  0.7509
14252TIP3    H264172   5.357   4.056  15.194 -1.4608  2.6706 -0.3588
14253TIP3   OH264173   4.268   6.390   0.132 -0.0871 -0.4934 -0.2400
14253TIP3    H164174   4.247   6.348   0.049 -0.8982 -0.5132 -0.0311
14253TIP3    H264175   4.222   6.474   0.129  1.0664  0.1494 -0.4195
14254TIP3   OH264176   1.602   6.248   6.395 -0.4546  0.0959 -0.0827
14254TIP3    H164177   1.511   6.221   6.380 -1.2149  1.6435  1.5869
14254TIP3    H264178   1.618   6.229   6.488  0.2492  1.7440  0.1476
14255TIP3   OH264179   1.558   1.586  13.772  0.1519 -0.2948 -0.3473
14255TIP3    H164180   1.478   1.585  13.720 -0.5066  0.5347  0.6197
14255TIP3    H264181   1.620   1.531  13.723 -0.7849 -0.3893 -1.4438
14256TIP3   OH264182   6.601   2.642  17.125  0.0898  0.4399 -0.3145
14256TIP3    H164183   6.599   2.696  17.046  1.9711 -0.1640 -0.7907
14256TIP3    H264184   6.577   2.702  17.196 -1.7659  0.9545 -1.3310
14257TIP3   OH264185   6.595   2.879  14.259  0.0917  0.4688  0.0209
14257TIP3    H164186   6.611   2.862  14.166 -1.4390  3.2437 -0.7888
14257TIP3    H264187   6.655   2.950  14.281 -1.0882  1.2955  0.5947
14258TIP3   OH264188   3.563   0.228   1.380  0.5272 -0.1170  0.0460
14258TIP3    H164189   3.536   0.138   1.398 -0.4595  0.2595  0.4515
14258TIP3    H264190   3.580   0.266   1.466 -0.9727  0.6784  0.0067
14259TIP3   OH264191   0.651   4.297   0.480 -0.1750  0.1847  0.1560
14259TIP3    H164192   0.737   4.257   0.491  0.6495  1.8818  0.0097
14259TIP3    H264193   0.596   4.226   0.445  0.5784 -1.4987  2.3199
14260TIP3   OH264194   1.205   1.395   4.317 -0.0649  0.3880  0.1917
14260TIP3    H164195   1.294   1.394   4.284  0.2781  0.9625  1.0745
14260TIP3    H264196   1.214   1.412   4.411 -0.8912 -3.1222  0.9994
14261TIP3   OH264197   0.271   1.372   1.131 -0.9161  0.6044 -0.3180
14261TIP3    H164198   0.305   1.366   1.042  0.0346  0.2558  0.0626
14261TIP3    H264199   0.251   1.281   1.155 -1.1328  0.6944 -0.1550
14262TIP3   OH264200   3.152   1.704  16.873 -0.1160 -0.3018 -0.1931
14262TIP3    H164201   3.102   1.771  16.826  0.8534  1.2801  0.9465
14262TIP3    H264202   3.241   1.739  16.877  0.2033 -1.2258  1.2284
14263TIP3   OH264203   3.410   3.603   0.965  0.3779 -0.0014 -0.0641
14263TIP3    H164204   3.419   3.536   0.897  0.3199 -0.3477  0.2714
14263TIP3    H264205   3.325   3.644   0.947  0.8072  0.5808 -0.8050
14264TIP3   OH264206   2.372   2.972   4.060 -0.1469 -0.1460 -0.3693
14264TIP3    H164207   2.406   2.884   4.074  0.2999 -0.2398 -2.0088
14264TIP3    H264208   2.383   3.016   4.145  1.0348 -1.1934  0.0263
14265TIP3   OH264209   2.642   2.446  15.174  0.0565  0.0975  0.5348
14265TIP3    H164210   2.598   2.529  15.161  2.1980  0.8835 -2.1619
14265TIP3    H264211   2.594   2.384  15.119  1.6697  0.7756 -1.7359
14266TIP3   OH264212   3.014   6.641   4.053  0.7895 -0.7553 -0.1199
14266TIP3    H164213   2.998   6.547   4.054  0.7753 -0.7595 -0.4558
14266TIP3    H264214   3.037   6.660   3.962 -3.4999  0.2876 -1.0955
14267TIP3   OH264215   3.704   1.919   0.195 -0.1533 -0.8896 -0.0019
14267TIP3    H164216   3.656   1.842   0.225 -0.1077 -0.4952  1.1291
14267TIP3    H264217   3.762   1.941   0.268  0.6323 -0.4470 -0.7508
14268TIP3   OH264218   2.221   4.509  10.676 -0.2389 -0.0418 -0.1622
14268TIP3    H164219   2.171   4.539  10.600  0.5274 -0.2792 -0.7713
14268TIP3    H264220   2.156   4.501  10.746 -1.0074 -0.0912 -0.8692
14269TIP3   OH264221   1.765   0.445  11.750 -0.4095  0.1294 -0.1677
14269TIP3    H164222   1.745   0.361  11.790 -1.0034  0.0183 -0.6807
14269TIP3    H264223   1.847   0.430  11.702 -1.1893 -0.5260 -1.3299
14270TIP3   OH264224   5.900   5.801   1.025  0.0478 -0.1591 -0.0376
14270TIP3    H164225   5.890   5.786   1.119 -0.9945  2.2247  0.2524
14270TIP3    H264226   5.910   5.896   1.016 -0.6829 -0.2607 -2.4050
14271TIP3   OH264227   5.097   4.275  14.172  0.0284  0.2514  0.6346
14271TIP3    H164228   5.058   4.187  14.177  0.3894  0.0795  0.4410
14271TIP3    H264229   5.183   4.261  14.133  0.8024  0.4762  2.2297
14272TIP3   OH264230   3.216   0.994  13.278  0.1936 -0.5415 -0.3535
14272TIP3    H164231   3.122   1.010  13.273  0.2575 -0.3963 -1.1551
14272TIP3    H264232   3.224   0.903  13.306 -0.1836 -0.4398  0.0946
14273TIP3   OH264233   2.072   3.521   5.362 -0.6070  0.0270  0.3530
14273TIP3    H164234   1.981   3.496   5.347 -0.3630  0.0795 -1.2753
14273TIP3    H264235   2.072   3.617   5.356  0.0754 -0.1323 -2.7539
14274TIP3   OH264236   0.977   5.434   0.096 -0.2884  0.9399 -0.1825
14274TIP3    H164237   0.932   5.517   0.106 -0.8308  0.6534 -0.2100
14274TIP3    H264238   1.032   5.445   0.019 -0.5040  1.2078 -0.2993
14275TIP3   OH264239   3.183   2.958   2.073  0.4786 -0.4123  0.3717
14275TIP3    H164240   3.134   3.016   2.014  1.3544  1.0692  1.0724
14275TIP3    H264241   3.119   2.892   2.099 -0.3111 -0.2751 -1.1178
14276TIP3   OH264242   1.767   2.360   5.655  0.0007  0.2428 -0.3978
14276TIP3    H164243   1.751   2.445   5.696 -0.8638  1.3508 -2.9399
14276TIP3    H264244   1.855   2.336   5.685 -0.4354  1.1676  1.7667
14277TIP3   OH264245   3.638   4.569  14.798  0.1120  0.5794  0.0659
14277TIP3    H164246   3.675   4.565  14.887 -0.2299 -0.7903  0.1537
14277TIP3    H264247   3.548   4.539  14.808  0.5138 -0.9876 -0.9850
14278TIP3   OH264248   4.391   6.155   1.890  0.2225  0.6988 -0.1910
14278TIP3    H164249   4.374   6.161   1.984  2.4084 -1.7472  0.3947
14278TIP3    H264250   4.448   6.229   1.871  0.6779  0.5664  0.6309
14279TIP3   OH264251   3.230   3.690  15.783 -0.7411 -0.0620  0.5478
14279TIP3    H164252   3.153   3.640  15.808 -0.3393 -0.9682 -0.0311
14279TIP3    H264253   3.211   3.779  15.812 -2.6959  0.0670 -1.0037
14280TIP3   OH264254   1.067   6.473  14.937  0.2642  0.1066  0.1396
14280TIP3    H164255   1.075   6.435  14.850  0.5914  0.6113 -0.0510
14280TIP3    H264256   1.143   6.531  14.946  0.8250 -0.7640  1.1722
14281TIP3   OH264257   0.903   3.486  16.300  0.1835 -0.2373 -0.2287
14281TIP3    H164258   0.816   3.485  16.341  0.8756 -0.0219  1.2749
14281TIP3    H264259   0.964   3.480  16.373  1.4942  1.8016 -1.0914
14282TIP3   OH264260   2.271   2.260   2.970  0.1780 -0.3113 -0.7418
14282TIP3    H164261   2.332   2.305   2.911  0.4019 -0.1482 -0.3842
14282TIP3    H264262   2.216   2.209   2.911 -0.4889  0.9208 -1.2062
14283TIP3   OH264263   1.591   2.563  13.976 -0.3530 -0.8680 -0.4718
14283TIP3    H164264   1.543   2.636  14.014 -2.1010 -2.2131 -0.0247
14283TIP3    H264265   1.641   2.601  13.904  0.0374  1.0382  0.7909
14284TIP3   OH264266   6.415   5.749  16.172  0.1913 -0.1450 -0.1578
14284TIP3    H164267   6.470   5.786  16.241 -0.1316 -1.7423  1.0080
14284TIP3    H264268   6.328   5.785  16.187 -0.0108 -0.9503  0.6643
14285TIP3   OH264269   6.056   3.592  12.602 -0.0959  0.3716  0.0841
14285TIP3    H164270   6.050   3.546  12.518  1.1671  0.0507  0.1685
14285TIP3    H264271   5.982   3.556  12.653  0.7010 -1.3823  0.0474
14286TIP3   OH264272   1.188   6.513   4.813 -0.4994 -0.3072 -0.1925
14286TIP3    H164273   1.258   6.451   4.833 -1.2961 -1.9374 -2.3282
14286TIP3    H264274   1.224   6.569   4.745 -0.4184  0.4285  0.4528
14287TIP3   OH264275   3.455   2.460  12.537  0.2400 -0.0900 -0.0468
14287TIP3    H164276   3.431   2.523  12.605  1.9623  1.4940 -0.8500
14287TIP3    H264277   3.461   2.512  12.457 -0.8697 -1.7678 -1.2392
14288TIP3   OH264278   5.380   3.079  13.153 -0.6977  0.1912  0.0665
14288TIP3    H164279   5.375   3.009  13.218  0.0734 -0.5767 -0.6976
14288TIP3    H264280   5.421   3.038  13.076 -1.8366  1.0103 -1.0005
14289TIP3   OH264281   5.854   2.595  15.810  0.0178 -0.0582 -0.4125
14289TIP3    H164282   5.819   2.605  15.721 -1.0379 -1.0613 -0.1344
14289TIP3    H264283   5.791   2.536  15.853  0.0352  1.1175  1.2633
14290TIP3   OH264284   5.769   6.678  16.675  0.0996  0.3401  0.0266
14290TIP3    H164285   5.718   6.747  16.633 -1.6854 -1.3187 -0.6348
14290TIP3    H264286   5.842   6.662  16.615 -1.0798 -0.3262 -1.2626
14291TIP3   OH264287   1.683   4.387  13.020  0.2902 -0.5397  0.0715
14291TIP3    H164288   1.612   4.414  12.962 -0.1450  0.5986  1.1264
14291TIP3    H264289   1.761   4.431  12.985  0.2059 -0.6017 -0.1960
14292TIP3   OH264290   5.802   5.276  15.733 -0.3543  0.3408 -0.2093
14292TIP3    H164291   5.733   5.323  15.779 -0.7962  0.0548 -0.5793
14292TIP3    H264292   5.883   5.304  15.776 -0.7775 -0.1171  0.9126
14293TIP3   OH264293   0.157   2.599   3.268  0.1740 -0.4539  0.3417
14293TIP3    H164294   0.142   2.521   3.321 -0.1394  0.4100  1.5496
14293TIP3    H264295   0.251   2.616   3.275 -0.1633  0.7589  2.2128
14294TIP3   OH264296   2.246   1.541  11.733  0.5136  0.3566 -0.2393
14294TIP3    H164297   2.288   1.520  11.816  0.9006 -0.2166 -0.5783
14294TIP3    H264298   2.185   1.613  11.754  1.0775  0.6449  0.4048
14295TIP3   OH264299   2.530   5.107  13.112  0.3612  0.1135 -0.5962
14295TIP3    H164300   2.618   5.134  13.139 -0.0994  0.2644  0.7792
14295TIP3    H264301   2.526   5.014  13.132 -0.5215  0.5440  1.4088
14296TIP3   OH264302   1.496   6.667  11.085 -0.2370 -0.4156 -0.3494
14296TIP3    H164303   1.570   6.650  11.028  0.7198 -1.2631  1.1177
14296TIP3    H264304   1.464   6.581  11.111 -0.5710 -0.0510  0.4987
14297TIP3   OH264305   2.918   5.134  12.828 -0.1916 -0.2626  0.0110
14297TIP3    H164306   2.942   5.174  12.911  1.1574 -0.9977 -0.0163
14297TIP3    H264307   2.962   5.187  12.762 -0.4424 -0.2899 -0.1786
14298TIP3   OH264308   6.286   2.916  12.151 -0.0193 -0.3521 -0.0669
14298TIP3    H164309   6.375   2.882  12.156  0.0462  0.0130  1.6488
14298TIP3    H264310   6.280   2.957  12.065  2.0375  1.1825  0.4960
14299TIP3   OH264311   5.117   6.183   4.945  0.4840  0.1517 -0.2164
14299TIP3    H164312   5.204   6.141   4.945  0.8240  0.8440  0.4335
14299TIP3    H264313   5.095   6.191   5.038 -0.0080  0.5285 -0.3675
14300TIP3   OH264314   2.057   6.007   0.939 -0.7109  0.1417  0.6319
14300TIP3    H164315   1.972   6.033   0.903  0.6092  1.2330 -1.8514
14300TIP3    H264316   2.121   6.042   0.876  1.4949 -2.1390  1.5183
14301TIP3   OH264317   1.647   2.263  16.282 -0.8352  0.4022 -0.2299
14301TIP3    H164318   1.612   2.204  16.216 -0.6433 -1.2420  1.1165
14301TIP3    H264319   1.666   2.344  16.234 -1.1355 -0.6040 -2.0838
14302TIP3   OH264320   5.808   2.605  16.949  0.1690  0.0999  0.2556
14302TIP3    H164321   5.866   2.632  17.020 -0.5278  0.6453  0.6353
14302TIP3    H264322   5.866   2.587  16.875  0.7399  1.8425  0.2436
14303TIP3   OH264323   6.535   0.028   1.205  0.8498  0.1079 -0.4954
14303TIP3    H164324   6.465  -0.011   1.151 -0.0314 -1.0936  1.4710
14303TIP3    H264325   6.597  -0.043   1.219  1.6611  0.7332 -0.8704
14304TIP3   OH264326   2.476   2.453   5.041 -0.1039  0.0704 -0.0329
14304TIP3    H164327   2.445   2.410   5.121  1.1280  2.3811  1.7699
14304TIP3    H264328   2.497   2.381   4.982 -0.7617 -1.7170  1.8258
14305TIP3   OH264329   6.223   5.145   4.643  0.4990 -0.4660 -0.7090
14305TIP3    H164330   6.301   5.193   4.670  0.5003 -1.3108  0.8938
14305TIP3    H264331   6.258   5.068   4.598  0.5394  0.1663 -1.7618
14306TIP3   OH264332   2.787   3.264  12.144  0.1594  0.1978 -0.4349
14306TIP3    H164333   2.809   3.279  12.052  1.1210 -0.8941 -0.3937
14306TIP3    H264334   2.789   3.351  12.184 -1.7040  0.8616 -1.7396
14307TIP3   OH264335   4.101   0.791  15.602  0.4176  0.2469  0.5754
14307TIP3    H164336   4.097   0.798  15.507 -0.0185 -0.7887  0.5136
14307TIP3    H264337   4.194   0.776  15.621  0.3668 -0.4878  0.2483
14308TIP3   OH264338   0.072   3.034  14.803 -0.0045 -0.3470  0.7251
14308TIP3    H164339  -0.005   3.026  14.746  0.1313  0.2485  0.4591
14308TIP3    H264340   0.055   2.971  14.873  0.1377 -1.5749 -0.3160
14309TIP3   OH264341   1.422   1.158   6.134  0.2099 -0.0378  0.1763
14309TIP3    H164342   1.400   1.105   6.057 -0.0135  0.8422 -0.3715
14309TIP3    H264343   1.362   1.129   6.202 -1.0867  0.7315 -0.6312
14310TIP3   OH264344   4.116   1.053  16.161  0.1743  0.4555  0.3665
14310TIP3    H164345   4.064   1.123  16.122  0.1290  0.1050 -0.2159
14310TIP3    H264346   4.130   0.991  16.089 -0.8981 -0.7848  1.1884
14311TIP3   OH264347   1.093   1.826   6.152  0.0627  1.1591  0.3584
14311TIP3    H164348   1.047   1.751   6.116 -1.7365  1.1116  2.6234
14311TIP3    H264349   1.026   1.894   6.161  0.7984  1.7120  1.9876
14312TIP3   OH264350   2.495   3.516  14.487 -0.0247 -0.2934 -0.0068
14312TIP3    H164351   2.484   3.611  14.486 -1.9757 -0.4914  0.5791
14312TIP3    H264352   2.589   3.502  14.490  0.2446  1.6345  0.6813
14313TIP3   OH264353   0.299   5.720  15.293 -0.4594  0.3830 -0.5469
14313TIP3    H164354   0.233   5.784  15.320 -0.3672  0.0737  0.4535
14313TIP3    H264355   0.332   5.684  15.376  2.3077  1.8591 -0.9060
14314TIP3   OH264356   4.568   3.664  13.340  0.0262  0.0184  0.2738
14314TIP3    H164357   4.633   3.594  13.347 -0.0428 -0.0665  0.0616
14314TIP3    H264358   4.535   3.675  13.429  0.4413  0.1655  0.4108
14315TIP3   OH264359   2.367   3.522   5.677 -0.0040  0.1372  0.0446
14315TIP3    H164360   2.408   3.589   5.622 -3.8491  2.1806 -0.5457
14315TIP3    H264361   2.401   3.537   5.765  0.2001  1.9794 -0.3471
14316TIP3   OH264362   2.697   2.826  12.920 -0.7053 -0.2751  0.3095
14316TIP3    H164363   2.658   2.848  12.836  1.5962  2.0926 -0.2069
14316TIP3    H264364   2.690   2.907  12.971  1.7057 -0.3874  0.8751
14317TIP3   OH264365   2.732   0.759  13.383 -0.8077 -0.2749 -0.0819
14317TIP3    H164366   2.723   0.676  13.335 -3.0913 -1.1195  1.7692
14317TIP3    H264367   2.669   0.754  13.454 -0.2137  2.6252  0.7353
14318TIP3   OH264368   0.403   3.233  12.940 -1.0027  0.3864 -0.3911
14318TIP3    H164369   0.369   3.286  12.868 -1.2118  0.3671 -0.3082
14318TIP3    H264370   0.494   3.215  12.916 -0.5818  1.7521  0.1330
14319TIP3   OH264371   4.416   5.290   0.903  0.2378 -0.1143 -0.6915
14319TIP3    H164372   4.338   5.237   0.917 -0.9617  1.6175 -0.6502
14319TIP3    H264373   4.461   5.290   0.987  0.2535 -1.0392 -0.6912
14320TIP3   OH264374   5.395   5.023  12.584 -0.2666 -0.2966 -0.3173
14320TIP3    H164375   5.391   4.945  12.529 -2.0921  0.1037 -0.7707
14320TIP3    H264376   5.410   4.989  12.672 -3.0308 -1.3177 -0.2081
14321TIP3   OH264377   1.826   2.397  11.461  0.0478 -0.6389 -0.0021
14321TIP3    H164378   1.841   2.423  11.552 -0.2600 -0.1402 -0.0903
14321TIP3    H264379   1.736   2.365  11.459 -0.1217 -0.1516 -0.2403
14322TIP3   OH264380   5.760   2.051   5.612  0.4542 -0.4789 -0.1484
14322TIP3    H164381   5.771   1.973   5.667  0.6966 -0.0212  0.4697
14322TIP3    H264382   5.682   2.033   5.560 -1.4028  0.1856  2.2919
14323TIP3   OH264383   1.410   4.037  15.101 -0.2551 -0.0817 -0.2349
14323TIP3    H164384   1.436   4.011  15.012  0.6990 -1.7328  0.5026
14323TIP3    H264385   1.473   4.105  15.125 -1.0663  1.0065 -1.1496
14324TIP3   OH264386   3.402   2.381   4.037 -0.1100 -0.0792 -0.3333
14324TIP3    H164387   3.326   2.381   4.094  0.4958  3.5757  0.6009
14324TIP3    H264388   3.468   2.432   4.084  2.1860 -1.2906 -2.0862
14325TIP3   OH264389   1.454   1.815   2.836 -0.5292 -0.1327  0.5521
14325TIP3    H164390   1.384   1.813   2.901 -0.5522  0.2078  0.5367
14325TIP3    H264391   1.534   1.832   2.886 -0.6388  0.8071  0.4117
14326TIP3   OH264392   1.172   4.623  12.590  0.5635  0.5498 -0.6286
14326TIP3    H164393   1.084   4.584  12.593  0.6402  0.4574  0.7411
14326TIP3    H264394   1.194   4.625  12.497 -0.9035  0.5882 -0.9909
14327TIP3   OH264395   0.678   1.281  12.224  0.6114  0.0683 -0.2855
14327TIP3    H164396   0.637   1.284  12.138 -0.5216 -0.5547  0.2137
14327TIP3    H264397   0.749   1.345  12.220 -1.2939  2.2118 -0.7242
14328TIP3   OH264398   4.162   5.932   5.468  0.4475 -0.2990 -0.1695
14328TIP3    H164399   4.096   5.867   5.443 -0.5086  0.3044  0.7531
14328TIP3    H264400   4.245   5.891   5.446 -0.2783 -0.5602 -2.5828
14329TIP3   OH264401   3.590   1.550   0.026  0.3353 -0.1686 -0.2798
14329TIP3    H164402   3.601   1.565  -0.068 -0.8309 -0.9322 -0.5588
14329TIP3    H264403   3.679   1.547   0.061  0.9121 -2.7856 -1.8443
14330TIP3   OH264404   4.639   6.470  14.781 -0.0119 -0.7152  0.2824
14330TIP3    H164405   4.733   6.481  14.796  0.6848 -1.9172 -2.6839
14330TIP3    H264406   4.623   6.377  14.796 -0.6320 -0.6122  0.2823
14331TIP3   OH264407   5.279   4.712   5.542 -0.0773  0.3007 -0.4136
14331TIP3    H164408   5.337   4.788   5.547 -0.4954  0.6814 -1.2265
14331TIP3    H264409   5.191   4.749   5.547 -0.2591 -0.2245  0.2663
14332TIP3   OH264410   6.462   1.752   0.856 -0.3526  0.3022 -0.5874
14332TIP3    H164411   6.404   1.688   0.898 -0.0188  1.0883  1.1195
14332TIP3    H264412   6.444   1.744   0.763 -1.3439 -1.2765 -0.2666
14333TIP3   OH264413   2.039   0.959   1.241 -0.1327 -0.0605 -0.0344
14333TIP3    H164414   2.083   1.038   1.209  1.2842 -1.3185 -1.2621
14333TIP3    H264415   2.106   0.913   1.291 -0.7895 -0.7669  0.2045
14334TIP3   OH264416   6.528   5.643  11.139 -0.1177  0.2515  0.2590
14334TIP3    H164417   6.467   5.572  11.157  0.9705 -0.7598 -0.0058
14334TIP3    H264418   6.495   5.684  11.059 -1.6646  1.0920  1.2826
14335TIP3   OH264419   6.425   2.642   3.160 -0.3463  0.3759  0.1433
14335TIP3    H164420   6.384   2.683   3.083  0.4189 -0.4161 -0.7043
14335TIP3    H264421   6.508   2.690   3.171 -1.3012  1.7242  1.6232
14336TIP3   OH264422   2.979   5.947  16.171 -0.6938  0.0903 -0.5579
14336TIP3    H164423   2.895   5.939  16.125 -0.8672 -1.6874  0.0238
14336TIP3    H264424   3.028   5.869  16.145  0.7809  1.1089 -0.8711
14337TIP3   OH264425   0.192   2.108  12.364 -0.3445 -0.0198 -0.4211
14337TIP3    H164426   0.167   2.170  12.295  1.1257 -0.2040 -1.1402
14337TIP3    H264427   0.275   2.071  12.334  1.7234  1.8473  2.6541
14338TIP3   OH264428   2.153   3.561   5.029  0.0798 -0.3757  0.4993
14338TIP3    H164429   2.109   3.585   5.111  0.7999 -1.1030  1.1093
14338TIP3    H264430   2.131   3.468   5.017 -2.2438  0.4081 -1.5529
14339TIP3   OH264431   2.800   5.836   4.534 -0.4054  0.3953 -0.2959
14339TIP3    H164432   2.757   5.849   4.450  1.3637  1.5081 -1.0568
14339TIP3    H264433   2.861   5.910   4.542 -0.0383 -0.0749  1.6270
14340TIP3   OH264434   6.349   2.346  17.078 -0.5386 -0.4664 -0.4428
14340TIP3    H164435   6.353   2.278  17.146  0.3607  1.1659  1.1954
14340TIP3    H264436   6.328   2.426  17.126 -0.7219  0.5799 -2.2324
14341TIP3   OH264437   5.842   4.650  11.668  0.3037  0.2325 -0.2449
14341TIP3    H164438   5.794   4.647  11.750 -0.4254 -0.4193 -0.6875
14341TIP3    H264439   5.926   4.690  11.690  0.1674 -0.0776  0.8388
14342TIP3   OH264440   0.419   2.674   4.248 -0.1953  0.0254 -0.0901
14342TIP3    H164441   0.334   2.651   4.287 -0.4637  1.5732  0.2472
14342TIP3    H264442   0.451   2.591   4.212 -1.9639 -0.5485 -0.4293
14343TIP3   OH264443   5.412   1.409   5.898 -0.5593  0.4652  0.0403
14343TIP3    H164444   5.393   1.382   5.988 -0.5573  2.3419  0.6210
14343TIP3    H264445   5.479   1.476   5.907  0.6198 -0.4621 -1.4869
14344TIP3   OH264446   2.574   3.185  12.318  0.1126  0.0482 -0.2161
14344TIP3    H164447   2.616   3.189  12.232 -1.5001  1.1091 -0.9538
14344TIP3    H264448   2.588   3.272  12.356 -0.6108  0.1066 -0.0797
14345TIP3   OH264449   1.680   6.000   4.336 -0.5324  0.0913  0.1622
14345TIP3    H164450   1.678   5.955   4.421  0.0709  0.3603  0.3238
14345TIP3    H264451   1.771   6.030   4.327 -0.7661  0.6773 -0.2564
14346TIP3   OH264452   6.745   0.722  12.678 -0.1153  0.1482 -0.3160
14346TIP3    H164453   6.672   0.782  12.664 -1.1041 -0.8143  0.6579
14346TIP3    H264454   6.708   0.649  12.726  1.4886 -0.3683  0.1868
14347TIP3   OH264455   5.657   3.025  12.203  0.4663  0.2435  0.6764
14347TIP3    H164456   5.563   3.012  12.187  0.7843 -2.7783  0.8799
14347TIP3    H264457   5.674   2.975  12.283  2.4150  0.0268  0.1457
14348TIP3   OH264458   5.059   3.843   2.700  0.3343  0.8746 -0.3793
14348TIP3    H164459   5.142   3.806   2.672  0.5399  1.6035 -0.7615
14348TIP3    H264460   4.993   3.782   2.668  0.7621 -0.1999  0.7479
14349TIP3   OH264461   2.744   2.233   1.130  0.5533  0.2179 -0.0406
14349TIP3    H164462   2.652   2.249   1.152  0.8294 -0.0729  1.3238
14349TIP3    H264463   2.784   2.320   1.132  0.1693  0.4451 -1.3662
14350TIP3   OH264464   1.194   5.548  16.175  0.1277 -0.1538  0.5080
14350TIP3    H164465   1.155   5.517  16.093  0.7940 -0.9185  0.4758
14350TIP3    H264466   1.186   5.644  16.170  1.1449 -0.1209 -0.9676
14351TIP3   OH264467   4.681   3.119  11.281 -0.3104  0.4005  0.3676
14351TIP3    H164468   4.653   3.158  11.199  1.2637  1.9328  0.5294
14351TIP3    H264469   4.665   3.025  11.270  0.1581  0.5570 -1.8018
14352TIP3   OH264470   2.431   4.597   5.147 -0.5858  0.0150  0.0751
14352TIP3    H164471   2.475   4.524   5.102 -0.3944  1.6446 -2.4655
14352TIP3    H264472   2.492   4.623   5.215 -0.0976 -1.3804  0.1962
14353TIP3   OH264473   2.630   6.258  17.023 -0.1583 -0.0915 -0.5440
14353TIP3    H164474   2.622   6.180  17.078  1.2280  2.2211  3.1376
14353TIP3    H264475   2.602   6.330  17.079  2.4744  2.5417 -2.4351
14354TIP3   OH264476   3.318   1.249   1.962 -0.2231 -0.1688 -0.4607
14354TIP3    H164477   3.283   1.161   1.954 -0.1696 -0.1618 -0.7725
14354TIP3    H264478   3.250   1.306   1.926 -1.0615  0.0864  1.4799
14355TIP3   OH264479   3.219   2.757   1.869 -0.2199  0.2666  0.4446
14355TIP3    H164480   3.231   2.825   1.936 -1.4138  0.2823  0.6466
14355TIP3    H264481   3.169   2.689   1.912  0.5755 -0.5469  0.0954
14356TIP3   OH264482   1.033   0.811   4.197  0.1646 -0.4706  0.0746
14356TIP3    H164483   1.045   0.816   4.103  2.9209  0.5788  0.4215
14356TIP3    H264484   1.056   0.898   4.229 -0.7581 -0.8073  1.7214
14357TIP3   OH264485   3.900   6.453   5.542 -0.5354  0.0880  0.6805
14357TIP3    H164486   3.954   6.461   5.463 -0.8204  1.0251  0.5780
14357TIP3    H264487   3.856   6.369   5.533  0.2402 -0.2888  0.3439
14358TIP3   OH264488   2.005   2.308   5.806  0.0191  0.4034  0.2277
14358TIP3    H164489   2.002   2.310   5.901  0.4453 -1.1574  0.2830
14358TIP3    H264490   2.079   2.251   5.785  0.9193  1.9748 -1.0511
14359TIP3   OH264491   1.660   4.743   4.604 -0.6802 -0.2397  0.5669
14359TIP3    H164492   1.745   4.782   4.583 -1.0047  0.6182  0.8534
14359TIP3    H264493   1.677   4.648   4.604 -0.4682 -0.2816 -2.7668
14360TIP3   OH264494   5.174   3.890   5.074 -0.1447 -0.0692  0.3561
14360TIP3    H164495   5.180   3.920   5.165 -0.6616 -0.7869  0.6287
14360TIP3    H264496   5.177   3.794   5.080  0.9775 -0.1056 -0.4681
14361TIP3   OH264497   2.728   5.693  13.121  0.4321 -0.2596  0.3398
14361TIP3    H164498   2.728   5.697  13.217  0.6798  0.6774  0.3081
14361TIP3    H264499   2.819   5.681  13.097  0.6948  1.9279  0.1506
14362TIP3   OH264500   4.713   1.557   0.959  0.0291  0.5867 -0.0228
14362TIP3    H164501   4.775   1.629   0.967 -0.5741  1.2638 -1.2903
14362TIP3    H264502   4.734   1.517   0.874  1.5112 -1.8427  1.4393
14363TIP3   OH264503   5.699   2.027  14.828  0.0486  0.2239  0.3040
14363TIP3    H164504   5.768   2.087  14.800  0.2122 -0.8937 -1.7476
14363TIP3    H264505   5.621   2.054  14.780  0.3319 -1.7066 -1.2989
14364TIP3   OH264506   4.984   4.105   2.564 -0.6220  0.6805  0.2481
14364TIP3    H164507   5.006   4.018   2.598 -1.8626 -0.1497 -1.0278
14364TIP3    H264508   5.054   4.162   2.597  0.1939 -0.7890  1.1143
14365TIP3   OH264509   6.687   6.518   4.939  0.0445 -0.0307  0.2363
14365TIP3    H164510   6.600   6.509   4.979  0.0405  0.9742  0.4656
14365TIP3    H264511   6.687   6.455   4.867 -1.1751  0.5593 -0.2791
14366TIP3   OH264512   2.671   1.037  15.225 -0.0555 -0.6354  0.3116
14366TIP3    H164513   2.641   1.064  15.139  2.1984  0.4590 -0.1742
14366TIP3    H264514   2.640   0.947  15.234  0.3608 -1.0400 -1.9830
14367TIP3   OH264515   4.501   6.552   0.154  0.0195 -0.0155 -0.1691
14367TIP3    H164516   4.428   6.501   0.118  0.1075  0.2686 -0.7547
14367TIP3    H264517   4.483   6.642   0.127 -0.2719  0.3163  1.0783
14368TIP3   OH264518   1.201   1.957   1.372  0.2905 -0.2229 -0.3734
14368TIP3    H164519   1.117   1.922   1.401 -0.8468  3.0923  0.5284
14368TIP3    H264520   1.199   1.949   1.276  0.3802 -3.1673 -0.1692
14369TIP3   OH264521   6.121   2.670   1.721 -0.1309  0.5075  0.2179
14369TIP3    H164522   6.202   2.675   1.669  0.4411  0.5521  1.1074
14369TIP3    H264523   6.141   2.717   1.801 -1.4662  1.6353 -0.0894
14370TIP3   OH264524   2.140   5.734  14.498  0.3226 -0.0140 -0.6463
14370TIP3    H164525   2.215   5.695  14.542  0.0351 -0.2936 -0.3986
14370TIP3    H264526   2.142   5.699  14.409  1.0978  0.8119 -0.9541
14371TIP3   OH264527   3.936   2.101   4.383 -0.6298 -0.4720 -0.4409
14371TIP3    H164528   3.883   2.166   4.336 -1.1230 -1.3857 -1.1633
14371TIP3    H264529   3.874   2.058   4.442 -0.4363 -0.7061 -0.4064
14372TIP3   OH264530   5.092   4.524   2.700  0.1332  0.4710  0.6682
14372TIP3    H164531   5.174   4.503   2.656  0.0340 -1.8152  1.5138
14372TIP3    H264532   5.118   4.571   2.779  0.5562  0.7560  0.3592
14373TIP3   OH264533   1.145   3.416   4.221 -0.3672  0.4172  0.1964
14373TIP3    H164534   1.204   3.364   4.275 -0.8998  0.2894  0.6579
14373TIP3    H264535   1.193   3.497   4.203 -0.4452  0.7328  1.4040
14374TIP3   OH264536   3.991   4.471   1.777 -0.2219 -0.2110  0.2837
14374TIP3    H164537   3.930   4.471   1.850 -0.8813  0.4626 -0.2491
14374TIP3    H264538   3.949   4.414   1.711  0.0614 -0.3123  0.1915
14375TIP3   OH264539   2.599   5.579   0.607 -0.3923 -0.4772 -0.0689
14375TIP3    H164540   2.594   5.487   0.581  2.0491 -1.2279  1.9288
14375TIP3    H264541   2.693   5.596   0.619 -0.6012  2.8434 -2.2667
14376TIP3   OH264542   0.343   1.900  14.286 -0.3567  0.3059  0.0285
14376TIP3    H164543   0.339   1.947  14.203 -0.2170 -0.2714 -0.3119
14376TIP3    H264544   0.381   1.963  14.347  0.9152  0.2763 -0.6911
14377TIP3   OH264545   1.829   3.747  14.652 -0.2682 -0.3712 -0.1513
14377TIP3    H164546   1.838   3.808  14.726  0.3143  0.9704 -1.3125
14377TIP3    H264547   1.889   3.780  14.586 -0.3125 -1.9363 -1.0018
14378TIP3   OH264548   0.611   5.125  15.624  0.3343  0.0275 -0.1155
14378TIP3    H164549   0.569   5.196  15.576  2.4936 -0.5331 -2.9237
14378TIP3    H264550   0.671   5.169  15.684 -0.7535  0.6364  0.5661
14379TIP3   OH264551   0.780   1.161  11.866  0.2179  0.7578 -0.6882
14379TIP3    H164552   0.693   1.168  11.826  0.1558  0.0964 -0.6702
14379TIP3    H264553   0.818   1.083  11.827 -0.1593 -0.3811  1.1386
14380TIP3   OH264554   6.268   1.189  11.412  0.4035  0.4199  0.0912
14380TIP3    H164555   6.316   1.271  11.403  0.4492  0.6389  2.0604
14380TIP3    H264556   6.179   1.215  11.436 -0.2663 -0.0443 -1.7840
14381TIP3   OH264557   3.474   0.541   4.870  0.5754 -0.0355  0.2526
14381TIP3    H164558   3.414   0.564   4.942  1.2300  0.2128  0.7321
14381TIP3    H264559   3.445   0.596   4.797 -0.3965 -0.6369  0.1787
14382TIP3   OH264560   1.413   1.425   1.682  0.2456  0.9033 -0.3698
14382TIP3    H164561   1.434   1.391   1.595 -1.0827  1.7849 -1.0488
14382TIP3    H264562   1.320   1.406   1.693  0.5430  0.2808  1.1005
14383TIP3   OH264563   4.188   1.604   2.743 -0.5584 -0.1459  0.3518
14383TIP3    H164564   4.138   1.608   2.824  0.0990  0.7732  0.7253
14383TIP3    H264565   4.261   1.544   2.762  0.9200  1.8605  1.2169
14384TIP3   OH264566   1.542   1.282  15.847  0.0327 -0.5482  0.0158
14384TIP3    H164567   1.584   1.199  15.871 -1.1953 -1.3045 -0.3904
14384TIP3    H264568   1.524   1.325  15.931 -2.2321 -2.1835  0.4244
14385TIP3   OH264569   2.390   4.424   1.525  0.7152 -0.1954  0.0995
14385TIP3    H164570   2.355   4.489   1.587 -0.7146 -1.5171  0.7143
14385TIP3    H264571   2.347   4.342   1.550  1.3481 -1.0705 -1.6366
14386TIP3   OH264572   5.081   5.306   3.206  0.3060  0.3076 -0.1308
14386TIP3    H164573   5.020   5.356   3.260  0.6218  0.9970 -0.4061
14386TIP3    H264574   5.037   5.222   3.192  0.3494  0.0125  1.4305
14387TIP3   OH264575   4.797   0.123  16.635  0.4524  0.4955  1.2242
14387TIP3    H164576   4.759   0.036  16.626  1.5398  0.2723 -1.8546
14387TIP3    H264577   4.744   0.179  16.580  1.4066  1.2321  1.0336
14388TIP3   OH264578   2.222   5.262   2.598  0.3716 -0.1320  0.6273
14388TIP3    H164579   2.204   5.202   2.671  1.6727  0.2930  1.3075
14388TIP3    H264580   2.312   5.241   2.572 -0.9414 -2.1389 -2.6256
14389TIP3   OH264581   4.411   2.772  17.022 -0.1472  0.3132  1.0320
14389TIP3    H164582   4.391   2.865  17.014  1.7536  0.4556 -3.2055
14389TIP3    H264583   4.506   2.768  17.026 -0.0237 -1.5659 -2.0658
14390TIP3   OH264584   2.125   3.101  10.605 -0.1988  0.2278  0.5107
14390TIP3    H164585   2.206   3.100  10.555  0.0238  3.5342  0.7007
14390TIP3    H264586   2.149   3.067  10.691  0.9009  0.7028  0.3982
14391TIP3   OH264587   4.674   1.272  16.647 -0.0863 -0.9116 -0.2917
14391TIP3    H164588   4.653   1.358  16.610 -0.4701 -0.6673  0.4924
14391TIP3    H264589   4.590   1.238  16.677  0.5322 -0.0722  2.5564
14392TIP3   OH264590   3.809   3.328  16.333  0.2589  0.3473 -0.4235
14392TIP3    H164591   3.901   3.354  16.347  0.6107  0.1210 -2.1470
14392TIP3    H264592   3.814   3.235  16.313 -0.4405  0.1463  0.3611
14393TIP3   OH264593   2.000   2.250   3.617 -0.3252  0.4491 -0.0953
14393TIP3    H164594   2.091   2.230   3.636 -0.9243 -0.9115  1.4681
14393TIP3    H264595   1.950   2.187   3.669 -2.1661  1.5675 -0.4521
14394TIP3   OH264596   6.617   3.210   1.991 -0.4189 -0.0665  0.4651
14394TIP3    H164597   6.542   3.161   2.024 -0.4274 -0.6398 -0.4000
14394TIP3    H264598   6.589   3.243   1.906 -0.1417  0.8055  0.6982
14395TIP3   OH264599   4.597   4.922  12.445 -0.7406  0.3962 -0.6772
14395TIP3    H164600   4.544   4.998  12.422  0.2422  1.0058 -0.9404
14395TIP3    H264601   4.544   4.847  12.417 -2.5126  0.8741  1.1921
14396TIP3   OH264602   2.539   0.352   1.004 -0.5904 -0.4555  0.0580
14396TIP3    H164603   2.565   0.426   0.949 -2.0559  0.4595  0.5338
14396TIP3    H264604   2.597   0.357   1.080 -1.1193  0.6333  0.4029
14397TIP3   OH264605   6.630   0.997   5.405  0.0867  0.2549 -0.4184
14397TIP3    H164606   6.604   1.074   5.456 -1.2702 -0.0690 -0.6036
14397TIP3    H264607   6.554   0.978   5.350  1.2517  0.1608 -2.0362
14398TIP3   OH264608   1.975   6.611   5.015  0.3126 -0.1229  0.3457
14398TIP3    H164609   1.896   6.650   4.979 -0.4904 -0.7866  1.3616
14398TIP3    H264610   1.950   6.582   5.102  0.2705 -4.7375 -1.0522
14399TIP3   OH264611   1.758   1.215   5.593 -0.1031 -0.3329 -0.3577
14399TIP3    H164612   1.684   1.199   5.652  0.3654 -0.4027  0.2133
14399TIP3    H264613   1.755   1.309   5.576 -0.4009 -0.3557 -0.4420
14400TIP3   OH264614   3.195   3.906  13.062 -0.1180 -0.4340  0.1813
14400TIP3    H164615   3.158   3.961  13.131 -1.2563 -1.8373  0.7247
14400TIP3    H264616   3.220   3.825  13.107 -1.4200 -1.5979 -1.1263
14401TIP3   OH264617   4.618   1.435   1.218  0.5723  0.3106 -0.0304
14401TIP3    H164618   4.568   1.369   1.170  0.5940  1.0801 -1.1304
14401TIP3    H264619   4.667   1.482   1.151  0.2165  1.7425  0.6839
14402TIP3   OH264620   2.050   3.557   3.405  0.0062  0.4444 -0.0531
14402TIP3    H164621   2.007   3.564   3.320 -2.2318  2.9434  1.1981
14402TIP3    H264622   2.028   3.469   3.436 -2.2832  0.8290 -0.4863
14403TIP3   OH264623   3.958   3.191   6.195 -0.2202  0.0129 -0.1470
14403TIP3    H164624   3.986   3.281   6.209  0.5547 -0.3452  0.6033
14403TIP3    H264625   3.948   3.154   6.282 -0.2362 -0.7257 -0.4544
14404TIP3   OH264626   2.137   3.859  16.278  0.0568 -0.0428 -0.1554
14404TIP3    H164627   2.206   3.823  16.334 -1.3325 -0.0309  1.6051
14404TIP3    H264628   2.181   3.927  16.227  1.8707 -1.6644 -0.7989
14405TIP3   OH264629   1.234   4.079   1.495  0.4130 -0.2697 -0.1917
14405TIP3    H164630   1.283   4.068   1.414  0.6785 -0.4959 -0.0007
14405TIP3    H264631   1.163   4.015   1.489  1.0009 -0.9631  0.1878
14406TIP3   OH264632   4.814   3.784  14.006 -0.4343 -0.0557  0.1628
14406TIP3    H164633   4.835   3.830  13.925 -1.3278  2.4910  1.3017
14406TIP3    H264634   4.777   3.700  13.978 -0.5334  0.7016 -2.0467
14407TIP3   OH264635   1.198   1.103   5.515 -0.1488  0.4006  0.4833
14407TIP3    H164636   1.107   1.118   5.488 -0.2834  0.1481  0.7799
14407TIP3    H264637   1.244   1.082   5.434 -0.2666  0.9338  0.2736
14408TIP3   OH264638   6.722   6.332  12.663  0.0595  0.2039 -0.5500
14408TIP3    H164639   6.771   6.305  12.586  1.6332  2.3009 -0.3194
14408TIP3    H264640   6.675   6.411  12.636  0.3448  0.7594  0.5188
14409TIP3   OH264641   0.939   5.937  12.889 -0.0445  0.3727 -0.2143
14409TIP3    H164642   0.933   5.986  12.972  1.4809 -0.5856  0.4894
14409TIP3    H264643   1.029   5.904  12.888  0.1484  0.9013 -2.5821
14410TIP3   OH264644   2.785   4.293  13.710  0.0121  1.3731 -0.1328
14410TIP3    H164645   2.800   4.384  13.685 -1.4550  2.3469  2.2846
14410TIP3    H264646   2.871   4.261  13.736  0.9884  1.2604 -3.3612
14411TIP3   OH264647   2.175   1.429  14.094  0.1039  0.1185 -0.0328
14411TIP3    H164648   2.105   1.409  14.156 -0.5105 -0.4620 -0.9148
14411TIP3    H264649   2.146   1.508  14.049  0.6443  0.6573  0.5608
14412TIP3   OH264650   2.584   6.667   1.513  0.1383  0.4825 -0.0990
14412TIP3    H164651   2.639   6.591   1.532  2.1033  2.0008  0.4655
14412TIP3    H264652   2.548   6.692   1.598 -1.7852 -0.7642 -0.5369
14413TIP3   OH264653   5.233   5.500  14.479 -0.3874  0.5583  0.4690
14413TIP3    H164654   5.279   5.477  14.560  0.3684  2.3000  0.5450
14413TIP3    H264655   5.292   5.473  14.409 -0.4140  0.3788  0.5139
14414TIP3   OH264656   1.478   4.538  13.152  0.1690 -0.6311  0.6044
14414TIP3    H164657   1.512   4.469  13.209  0.3055  0.6484  2.1107
14414TIP3    H264658   1.433   4.598  13.212  0.4475  0.8261 -0.6231
14415TIP3   OH264659   4.635   5.834  12.458 -0.1807 -0.1396  0.0688
14415TIP3    H164660   4.723   5.829  12.496  0.1757  0.8238 -0.6113
14415TIP3    H264661   4.645   5.890  12.381 -1.5952  0.8413  0.5777
14416TIP3   OH264662   3.472   6.068   1.934 -0.8960  0.4444 -0.2315
14416TIP3    H164663   3.514   6.020   1.863 -0.6176  0.0917  0.1711
14416TIP3    H264664   3.518   6.152   1.937 -0.6742  0.3223 -0.2363
14417TIP3   OH264665   3.490   2.844  13.943 -0.6866 -0.5467  0.1227
14417TIP3    H164666   3.430   2.918  13.955  0.3998  0.2540  0.7712
14417TIP3    H264667   3.539   2.840  14.025  1.4691  0.0478 -1.0888
14418TIP3   OH264668   5.148   5.014   4.617  0.3657  0.4458  0.6752
14418TIP3    H164669   5.220   5.067   4.582  1.8180 -0.6118  1.9951
14418TIP3    H264670   5.157   4.929   4.574  0.5012  0.0030  1.5658
14419TIP3   OH264671   2.966   2.250   4.855  0.6629  0.2254  0.5977
14419TIP3    H164672   3.048   2.237   4.806  0.0033 -1.0358 -0.1815
14419TIP3    H264673   2.990   2.310   4.926  2.3072 -0.2730  0.4810
14420TIP3   OH264674   6.427   1.785   0.227 -0.2663  0.2171 -0.2612
14420TIP3    H164675   6.485   1.860   0.237  0.0166  0.1419 -1.3342
14420TIP3    H264676   6.369   1.809   0.155  0.0154 -0.7195 -0.8073
14421TIP3   OH264677   3.228   2.955   0.008  0.2537 -0.0800  0.0439
14421TIP3    H164678   3.203   3.042  -0.022 -1.3607 -0.6356 -0.2524
14421TIP3    H264679   3.145   2.909   0.023  1.0829 -1.7291 -0.2546
14422TIP3   OH264680   3.693   1.603   3.727  0.2682  0.0102  0.0055
14422TIP3    H164681   3.704   1.632   3.817 -2.3373 -1.9326  1.0300
14422TIP3    H264682   3.778   1.567   3.702  1.3452  1.6441  1.2506
14423TIP3   OH264683   2.718   3.606   2.767 -0.0764  0.2356  0.5413
14423TIP3    H164684   2.778   3.666   2.722 -0.6033  0.6620  0.4138
14423TIP3    H264685   2.776   3.538   2.803  0.3322 -0.1660 -0.8588
14424TIP3   OH264686   1.438   0.428   0.209  0.6413  0.3003 -0.6952
14424TIP3    H164687   1.513   0.428   0.150  0.0538  0.8238 -1.4517
14424TIP3    H264688   1.366   0.395   0.156  0.3339 -0.2341  0.0357
14425TIP3   OH264689   3.130   5.007   1.293  0.1819  0.9803  0.3797
14425TIP3    H164690   3.206   5.048   1.334  0.8484  1.4361 -1.2781
14425TIP3    H264691   3.149   5.008   1.199 -0.5586 -1.5845  0.1730
14426TIP3   OH264692   6.144   0.743  10.783  0.2969  0.0018  0.5713
14426TIP3    H164693   6.201   0.719  10.710 -0.1546 -2.0871  0.8717
14426TIP3    H264694   6.071   0.789  10.743  0.8655  0.3072 -0.1176
14427TIP3   OH264695   0.867   3.621  11.246 -0.1375  0.5161 -0.0281
14427TIP3    H164696   0.951   3.586  11.276  0.9400  1.8315 -1.4235
14427TIP3    H264697   0.817   3.636  11.326  0.8942 -0.4023  0.8121
14428TIP3   OH264698   2.849   4.571  14.331  0.0813  0.6218 -0.3910
14428TIP3    H164699   2.779   4.585  14.267 -1.2478  2.7159  1.4843
14428TIP3    H264700   2.915   4.520  14.283 -0.5192  2.7992 -3.6785
14429TIP3   OH264701   6.226   3.495  11.580  0.1670 -0.2046  0.0762
14429TIP3    H164702   6.232   3.401  11.601  3.9205 -0.1582 -0.3738
14429TIP3    H264703   6.219   3.497  11.485 -2.6361 -0.0464  0.2525
14430TIP3   OH264704   1.117   5.613   4.579  0.3523 -0.2499 -0.0577
14430TIP3    H164705   1.034   5.570   4.597  0.0288  0.4831  0.2368
14430TIP3    H264706   1.151   5.639   4.665 -0.1724  1.3686 -0.3100
14431TIP3   OH264707   5.843   1.095  12.280 -0.0379 -0.5452 -0.4503
14431TIP3    H164708   5.832   1.017  12.227  0.0012 -1.9371  1.5604
14431TIP3    H264709   5.812   1.071  12.367  1.5408  1.1386  0.6270
14432TIP3   OH264710   1.514   0.015  15.622 -0.0011  0.0576 -0.1857
14432TIP3    H164711   1.567   0.073  15.567  2.2126 -2.1887 -0.5073
14432TIP3    H264712   1.537  -0.073  15.594 -1.7421 -1.0506  1.7108
14433TIP3   OH264713   3.153   4.051  11.810  0.0158 -0.2348 -0.2262
14433TIP3    H164714   3.067   4.057  11.852  0.4073  1.0871  0.4220
14433TIP3    H264715   3.168   4.139  11.775  1.6196 -0.1057  0.7146
14434TIP3   OH264716   4.184   4.050   3.126 -0.0507 -0.1152 -0.1100
14434TIP3    H164717   4.207   4.141   3.145 -0.6870  0.0846 -0.2541
14434TIP3    H264718   4.242   4.024   3.055  0.1620  0.1652 -0.0378
14435TIP3   OH264719   5.160   1.947  16.827  0.5642 -0.7196 -0.2127
14435TIP3    H164720   5.186   2.037  16.846 -0.7876 -0.4718  0.5389
14435TIP3    H264721   5.079   1.934  16.876  1.7334 -2.9745  1.2283
14436TIP3   OH264722   5.496   5.465  16.497 -0.0727  0.1633  0.1528
14436TIP3    H164723   5.462   5.554  16.487 -0.2066 -0.0201 -1.2009
14436TIP3    H264724   5.450   5.415  16.429  1.7625 -0.4122 -0.6998
14437TIP3   OH264725   4.224   4.318   1.469  0.3820 -0.4056 -0.1208
14437TIP3    H164726   4.191   4.407   1.480  1.3269 -0.1258  0.5332
14437TIP3    H264727   4.177   4.284   1.394 -0.8250  0.2533  0.3278
14438TIP3   OH264728   1.272   6.685  11.269 -0.4426  0.7268  0.3584
14438TIP3    H164729   1.349   6.705  11.217 -1.2990 -1.1309 -1.6736
14438TIP3    H264730   1.234   6.771  11.289  0.1279  1.5004 -1.7436
14439TIP3   OH264731   3.814   3.505   3.600 -0.6822 -0.9439  0.5530
14439TIP3    H164732   3.896   3.538   3.636 -0.5858  0.2076 -0.6959
14439TIP3    H264733   3.840   3.449   3.528 -1.0070  0.3233 -0.5756
14440TIP3   OH264734   3.808   3.484   0.110  0.3830  0.0676 -0.3983
14440TIP3    H164735   3.778   3.573   0.131 -0.1021 -0.1587 -0.1127
14440TIP3    H264736   3.903   3.491   0.105  0.3706  0.5328 -0.0325
14441TIP3   OH264737   4.832   3.157  13.520  0.3725 -0.8687  0.3932
14441TIP3    H164738   4.737   3.165  13.512  0.2922 -2.2921 -0.2757
14441TIP3    H264739   4.859   3.112  13.440  1.5568 -0.8414  0.7641
14442TIP3   OH264740   3.810   3.223  15.107  0.5401  0.0731 -0.1404
14442TIP3    H164741   3.886   3.270  15.073 -0.2052  0.1272 -1.7733
14442TIP3    H264742   3.749   3.291  15.133  0.9345  0.0248  0.9685
14443TIP3   OH264743   0.598   4.477  11.306  0.4053 -0.9732  0.6021
14443TIP3    H164744   0.548   4.422  11.366  0.6560 -0.7160  1.0536
14443TIP3    H264745   0.578   4.443  11.219 -0.9200 -0.5607  0.7470
14444TIP3   OH264746   3.824   5.361   1.250  0.2503  0.2274 -0.3864
14444TIP3    H164747   3.875   5.415   1.189 -0.2558  1.1041 -0.0449
14444TIP3    H264748   3.791   5.289   1.197  0.4702  0.5564 -0.9739
14445TIP3   OH264749   1.349   4.404  15.500 -0.5021 -0.9947  0.1552
14445TIP3    H164750   1.306   4.438  15.421  0.1098  2.1027  1.0885
14445TIP3    H264751   1.440   4.434  15.492 -0.0635 -1.9907  1.2919
14446TIP3   OH264752   6.664   6.159  16.244 -0.2162 -0.0614 -0.1337
14446TIP3    H164753   6.633   6.072  16.271  2.4642 -0.5459  1.6097
14446TIP3    H264754   6.614   6.220  16.297  0.3243 -0.7352  1.1911
14447TIP3   OH264755   3.374   1.117   3.814  0.4096 -0.1544 -0.1894
14447TIP3    H164756   3.467   1.133   3.793  0.1327  0.8324 -0.7260
14447TIP3    H264757   3.340   1.204   3.835 -1.0309 -0.0771 -2.6316
14448TIP3   OH264758   2.445   5.783  15.999  0.2527 -0.2911  0.4281
14448TIP3    H164759   2.411   5.764  15.912  1.0043 -1.4829  0.3838
14448TIP3    H264760   2.434   5.877  16.009 -0.2698 -0.2163 -0.7704
14449TIP3   OH264761   3.907   3.870   0.185 -0.2051 -0.3718  0.4276
14449TIP3    H164762   3.902   3.802   0.252 -0.6848 -1.6396 -0.8719
14449TIP3    H264763   3.832   3.854   0.128  0.2195  0.6587 -0.4417
14450TIP3   OH264764   4.573   0.204  15.322 -0.2620 -0.3250  0.2168
14450TIP3    H164765   4.582   0.169  15.233 -1.6343 -0.8749  0.2794
14450TIP3    H264766   4.644   0.268  15.330  0.3706 -0.8560 -0.9885
14451TIP3   OH264767   5.208   6.657  10.590  0.1684 -0.0187 -0.1390
14451TIP3    H164768   5.137   6.683  10.648  1.2883 -0.6475  1.5595
14451TIP3    H264769   5.199   6.562  10.582 -0.8702  0.2235 -2.2341
14452TIP3   OH264770   4.311   0.197  12.918 -0.1861  0.2282 -0.5774
14452TIP3    H164771   4.246   0.142  12.961 -0.7995 -0.6261 -2.5355
14452TIP3    H264772   4.265   0.232  12.841  0.3192  3.1118  0.3487
14453TIP3   OH264773   2.844   4.374  14.880  0.0023  0.1301 -0.0171
14453TIP3    H164774   2.932   4.340  14.891  0.1754  0.5918  0.0569
14453TIP3    H264775   2.818   4.402  14.968 -0.4114 -0.4768  0.0520
14454TIP3   OH264776   6.143   3.192  16.287  0.0725 -0.2387 -0.2684
14454TIP3    H164777   6.069   3.132  16.283  2.3246 -3.0826 -1.4203
14454TIP3    H264778   6.125   3.248  16.362 -3.0146 -1.1200 -0.2805
14455TIP3   OH264779   6.770   2.869   3.945  0.2370 -0.3885  1.1653
14455TIP3    H164780   6.821   2.793   3.973 -1.1364 -1.6169  0.3597
14455TIP3    H264781   6.820   2.905   3.871  0.3756 -1.0975  0.9091
14456TIP3   OH264782   0.332   2.334  11.668  0.0808 -0.1543 -0.5497
14456TIP3    H164783   0.265   2.393  11.705 -1.2882 -1.0701 -1.5187
14456TIP3    H264784   0.413   2.385  11.671 -0.8441  1.3350 -0.2648
14457TIP3   OH264785   5.152   2.426  12.760  0.3745 -0.1819 -0.4347
14457TIP3    H164786   5.120   2.351  12.810  0.0114  0.1257 -0.2024
14457TIP3    H264787   5.082   2.491  12.767  0.5844  0.0887 -0.8394
14458TIP3   OH264788   0.519   1.898   6.187 -0.1986 -0.6444  0.5251
14458TIP3    H164789   0.510   1.932   6.098 -0.4792 -1.8359  0.0801
14458TIP3    H264790   0.535   1.975   6.241  1.1362 -0.0311 -0.7203
14459TIP3   OH264791   0.164   6.687   0.445 -0.0285 -0.2747  0.5460
14459TIP3    H164792   0.240   6.707   0.390 -1.1085  2.8489  0.0944
14459TIP3    H264793   0.089   6.692   0.386 -0.7682 -1.9972  1.2768
14460TIP3   OH264794   5.325   4.973   6.464  0.1662  0.9710  0.0844
14460TIP3    H164795   5.396   5.018   6.509  0.4271 -0.2867  0.9695
14460TIP3    H264796   5.265   4.947   6.535  0.2665 -0.4860 -0.3466
14461TIP3   OH264797   3.586   6.712   4.535 -0.2629 -0.2002  0.6248
14461TIP3    H164798   3.559   6.781   4.474  0.3821 -0.1889  0.3478
14461TIP3    H264799   3.504   6.674   4.567 -0.5916 -1.0173 -1.1627
14462TIP3   OH264800   2.644   0.339  16.017 -0.3856 -0.0116 -0.9322
14462TIP3    H164801   2.670   0.429  16.035  1.4750 -0.2154 -2.4007
14462TIP3    H264802   2.673   0.324  15.926  1.5094 -2.8147  0.0662
14463TIP3   OH264803   5.389   6.032  14.310 -0.2926  0.2395 -0.2023
14463TIP3    H164804   5.330   5.959  14.328 -1.2335  0.0989 -3.4565
14463TIP3    H264805   5.472   5.990  14.289 -0.4536  0.1658 -0.6987
14464TIP3   OH264806   2.381   0.997   1.651 -0.3022 -0.3979 -0.6144
14464TIP3    H164807   2.398   1.081   1.692 -0.9630 -0.1898 -0.7538
14464TIP3    H264808   2.296   0.969   1.687 -0.2815 -0.8062 -0.8759
14465TIP3   OH264809   4.534   2.062   1.085 -0.0471  0.3951 -0.1137
14465TIP3    H164810   4.556   1.999   1.017  0.9145 -0.1845  0.7313
14465TIP3    H264811   4.608   2.060   1.145 -0.4782  1.5639  0.4766
14466TIP3   OH264812   5.423   0.718   2.269 -0.3841 -0.1960 -0.2030
14466TIP3    H164813   5.340   0.766   2.265 -0.1704  0.5286  2.8800
14466TIP3    H264814   5.408   0.640   2.216 -2.8535  0.2265 -0.1815
14467TIP3   OH264815   3.315   1.942  11.358  0.5810  0.1969 -0.2342
14467TIP3    H164816   3.394   1.889  11.370 -0.9908 -1.7789  1.7183
14467TIP3    H264817   3.282   1.917  11.272  0.8571 -0.6096 -0.1059
14468TIP3   OH264818   6.249   0.455  11.011 -0.6459  0.5857  0.5551
14468TIP3    H164819   6.267   0.454  10.917  2.2530  1.4691  1.0321
14468TIP3    H264820   6.195   0.378  11.026 -0.0077 -0.3377 -1.6470
14469TIP3   OH264821   0.348   6.497  16.195  0.2455  0.6594 -0.3817
14469TIP3    H164822   0.443   6.497  16.207  0.1000 -0.3650  0.9816
14469TIP3    H264823   0.333   6.437  16.122  0.5692 -0.2164  0.2584
14470TIP3   OH264824   0.873   5.514  15.864 -0.1267 -0.4440 -0.5291
14470TIP3    H164825   0.877   5.561  15.947 -2.5722  0.0651 -0.6858
14470TIP3    H264826   0.963   5.516  15.831  0.9303 -0.9031  2.2213
14471TIP3   OH264827   6.333   0.577   1.750 -0.4202  0.1308  0.2975
14471TIP3    H164828   6.353   0.667   1.726 -1.7942  0.5495  0.6694
14471TIP3    H264829   6.322   0.579   1.845  0.2743 -0.5764  0.3957
14472TIP3   OH264830   3.113   2.686  13.046 -0.6833 -0.2758  0.0199
14472TIP3    H164831   3.159   2.614  13.003 -0.5669  0.2609 -0.7601
14472TIP3    H264832   3.024   2.654  13.059 -0.2538 -1.0944  0.9848
14473TIP3   OH264833   6.486   5.978  13.791 -0.2979 -0.0356  0.4244
14473TIP3    H164834   6.451   6.067  13.797 -1.1284 -0.2538 -0.9197
14473TIP3    H264835   6.441   5.930  13.860  0.3858  0.6489  1.3646
14474TIP3   OH264836   2.380   1.118   4.159 -0.1365  0.4171 -0.0316
14474TIP3    H164837   2.475   1.115   4.144 -0.2562  0.4276 -0.7868
14474TIP3    H264838   2.351   1.198   4.116 -0.5363  0.2633 -0.0509
14475TIP3   OH264839   0.922   4.600   4.958 -0.5766 -0.7123  0.0771
14475TIP3    H164840   0.931   4.563   4.871 -0.0872 -1.7250  0.5477
14475TIP3    H264841   0.879   4.684   4.944 -0.3699 -0.7999 -1.1482
14476TIP3   OH264842   6.122   6.424   4.480  0.2240  0.2337 -0.5467
14476TIP3    H164843   6.122   6.510   4.521 -0.1793  0.0123 -0.0824
14476TIP3    H264844   6.162   6.366   4.545  1.7620  0.3255 -1.3943
14477TIP3   OH264845   1.813   6.659   6.446  0.1042 -0.7085  0.0158
14477TIP3    H164846   1.876   6.643   6.516 -1.4159  0.1440  1.6117
14477TIP3    H264847   1.802   6.754   6.444 -1.9549 -0.9194  0.5177
14478TIP3   OH264848   4.361   1.105  14.975 -0.2694  0.3414 -0.2062
14478TIP3    H164849   4.452   1.135  14.970  0.5804 -2.0312 -0.0287
14478TIP3    H264850   4.331   1.107  14.884  0.7932 -1.1818 -0.6190
14479TIP3   OH264851   1.969   5.945   4.767  0.6258  0.4420  0.2767
14479TIP3    H164852   2.061   5.934   4.745  0.3968  1.3961 -1.2445
14479TIP3    H264853   1.923   5.882   4.711  0.3066  0.3898  0.5955
14480TIP3   OH264854   5.498   2.114  11.969 -0.3345  0.3007 -0.0252
14480TIP3    H164855   5.527   2.191  11.920  0.6783  0.0165  0.1296
14480TIP3    H264856   5.559   2.108  12.042  0.3489 -1.3606 -0.7141
14481TIP3   OH264857   4.395   2.119  10.993 -0.0123 -0.0700  0.0049
14481TIP3    H164858   4.303   2.121  10.965 -0.0216  0.0192  0.0423
14481TIP3    H264859   4.436   2.058  10.932 -0.1553 -0.3269  0.1653
14482TIP3   OH264860   0.233   3.114   4.561  0.3707 -0.3455  0.1879
14482TIP3    H164861   0.328   3.101   4.560  0.3289 -0.6465 -0.8362
14482TIP3    H264862   0.222   3.205   4.587  0.9407 -0.3458  0.4484
14483TIP3   OH264863   5.634   5.333   1.160 -0.7604 -0.0078 -1.1425
14483TIP3    H164864   5.655   5.399   1.094  1.0946  0.0762 -0.5088
14483TIP3    H264865   5.624   5.382   1.241 -4.6959  0.0908 -1.5804
14484TIP3   OH264866   0.608   4.424   6.743 -0.2215  0.8896  0.1525
14484TIP3    H164867   0.612   4.492   6.676  1.2341  1.5543  0.8911
14484TIP3    H264868   0.596   4.472   6.825 -1.6396  0.1057  0.4132
14485TIP3   OH264869   5.757   4.540  11.430 -0.4120  0.3862  0.1617
14485TIP3    H164870   5.805   4.581  11.501  1.2732  0.3792 -0.9365
14485TIP3    H264871   5.700   4.477  11.473 -0.0191  0.9656  1.5588
14486TIP3   OH264872   3.211   0.891   5.506  0.3547 -0.4129  0.0021
14486TIP3    H164873   3.187   0.802   5.531 -0.5748  0.1947  1.3113
14486TIP3    H264874   3.307   0.893   5.513  0.2893 -0.9609  1.1712
14487TIP3   OH264875   1.168   0.440  13.554  0.6212  0.3675 -0.3791
14487TIP3    H164876   1.180   0.511  13.618 -0.5033  0.1258  0.1305
14487TIP3    H264877   1.093   0.390  13.589  0.5052 -0.2325 -1.4772
14488TIP3   OH264878   0.016   1.817   2.156 -0.1319 -0.5299  0.1549
14488TIP3    H164879   0.086   1.853   2.101 -0.9531  0.3881 -0.3066
14488TIP3    H264880   0.037   1.846   2.245 -1.2017  1.7869 -0.3205
14489TIP3   OH264881   6.453   0.503   3.451 -0.0027 -0.3758  0.2746
14489TIP3    H164882   6.524   0.511   3.386  0.3565 -0.7316  0.6179
14489TIP3    H264883   6.495   0.462   3.527 -0.0317  1.5610  1.3494
14490TIP3   OH264884   2.830   6.715  13.805  0.1875 -0.0272  0.0876
14490TIP3    H164885   2.812   6.631  13.848  0.1813 -0.2138 -0.2705
14490TIP3    H264886   2.837   6.778  13.876 -0.8580 -0.1394  0.2969
14491TIP3   OH264887   1.816   5.584   0.887  0.2199 -0.1024 -0.1831
14491TIP3    H164888   1.897   5.600   0.838  0.5809  0.3235  0.5417
14491TIP3    H264889   1.846   5.547   0.970 -0.4247 -1.4392 -0.5315
14492TIP3   OH264890   5.589   1.236  10.946 -0.0860  0.1642  0.3390
14492TIP3    H164891   5.652   1.253  10.875 -1.5646  1.4695 -0.6844
14492TIP3    H264892   5.612   1.149  10.977  1.7799  0.3289 -0.5081
14493TIP3   OH264893   3.584   3.861   6.042  0.0090 -0.5651 -0.5043
14493TIP3    H164894   3.495   3.895   6.051  0.0762 -0.2548 -1.0011
14493TIP3    H264895   3.574   3.766   6.047 -0.3617 -0.5344 -0.6433
14494TIP3   OH264896   5.592   6.505   0.656  0.2860 -0.0934 -0.1312
14494TIP3    H164897   5.669   6.480   0.606  1.0270  0.6638  0.6254
14494TIP3    H264898   5.518   6.477   0.601  1.0800 -1.6825 -0.4353
14495TIP3   OH264899   4.677   3.253  14.380 -0.2815 -0.1097 -0.7018
14495TIP3    H164900   4.665   3.196  14.456  0.1842  0.2613 -0.3474
14495TIP3    H264901   4.634   3.206  14.308  0.2856 -1.0136 -0.4609
14496TIP3   OH264902   0.342   1.327   2.198  0.0721  0.7158  0.0150
14496TIP3    H164903   0.305   1.413   2.181  2.1727  1.3096 -1.7112
14496TIP3    H264904   0.315   1.273   2.123 -0.2440  0.1769  0.5068
14497TIP3   OH264905   4.583   2.654  15.800 -0.2635 -0.1366 -0.3960
14497TIP3    H164906   4.621   2.711  15.734  0.4766  0.4891  0.5633
14497TIP3    H264907   4.655   2.636  15.861 -0.9294 -0.7203  0.2292
14498TIP3   OH264908   5.297   3.449  13.964 -0.1362 -0.3288  0.0931
14498TIP3    H164909   5.344   3.508  13.905  0.3722 -0.1954  0.6247
14498TIP3    H264910   5.205   3.469  13.949 -0.0361 -0.6214 -0.9936
14499TIP3   OH264911   0.735   2.616  14.284 -0.3330  0.3177  0.2329
14499TIP3    H164912   0.731   2.687  14.220 -0.0759  0.6680  0.6012
14499TIP3    H264913   0.665   2.637  14.347 -1.3913 -0.6731 -0.5879
14500TIP3   OH264914   4.677   4.032  11.919 -0.3207 -0.0473 -0.1117
14500TIP3    H164915   4.646   4.025  11.829 -0.6209 -0.3591  0.0128
14500TIP3    H264916   4.689   3.941  11.948  0.3900  0.0674 -0.0481
14501TIP3   OH264917   3.322   5.508  15.950 -0.7182  0.2501  0.4534
14501TIP3    H164918   3.331   5.523  16.045  0.0143 -0.9366  0.5761
14501TIP3    H264919   3.394   5.450  15.928 -1.3240 -0.0688 -0.7102
14502TIP3   OH264920   3.498   4.192   0.220 -0.5533 -0.0424  0.2283
14502TIP3    H164921   3.580   4.229   0.254 -0.0482 -0.3289 -0.6521
14502TIP3    H264922   3.513   4.097   0.221 -0.9359 -0.1012  0.2229
14503TIP3   OH264923   0.423   0.605   2.131 -0.0243  0.1532 -0.1850
14503TIP3    H164924   0.445   0.685   2.082 -1.3775  0.4792 -0.2736
14503TIP3    H264925   0.366   0.635   2.201  2.8750 -0.1295  2.4274
14504TIP3   OH264926   5.758   3.472   6.506 -0.3499 -0.4557  0.3609
14504TIP3    H164927   5.777   3.402   6.444 -0.5684 -1.5603  1.5430
14504TIP3    H264928   5.662   3.482   6.503 -0.2769  0.1899 -0.2107
14505TIP3   OH264929   6.338   2.968  13.169 -0.0633  0.4762 -0.0059
14505TIP3    H164930   6.260   2.925  13.133  0.1522 -0.6017  0.7859
14505TIP3    H264931   6.305   3.048  13.209 -0.8233 -0.1571  0.6498
14506TIP3   OH264932   3.496   2.870  10.859  0.2664 -0.5335  0.2561
14506TIP3    H164933   3.407   2.889  10.828  0.9098  0.1758 -1.2345
14506TIP3    H264934   3.483   2.821  10.940 -1.4836  0.2419  0.4821
14507TIP3   OH264935   5.949   2.461  12.000  0.1702  0.1667 -0.2217
14507TIP3    H164936   6.004   2.483  11.926 -1.0571 -0.9271 -1.4914
14507TIP3    H264937   5.907   2.378  11.976  1.6581 -1.5294  2.7439
14508TIP3   OH264938   4.091   2.247   5.579 -0.3049 -0.3947  0.0050
14508TIP3    H164939   4.141   2.198   5.514 -0.8948  2.4099 -2.6465
14508TIP3    H264940   4.152   2.311   5.614 -0.9448  0.4328 -0.3710
14509TIP3   OH264941   1.140   3.747  12.462  0.3048  0.4958 -0.6005
14509TIP3    H164942   1.058   3.700  12.450  0.6294  0.1806 -1.6727
14509TIP3    H264943   1.161   3.737  12.555 -0.9005  0.6378 -0.3103
14510TIP3   OH264944   4.098   5.900  16.114  0.6029 -0.2997  0.0518
14510TIP3    H164945   4.063   5.950  16.040 -1.9546 -1.0617  0.6917
14510TIP3    H264946   4.092   5.960  16.188  0.4458 -0.5130  0.2116
14511TIP3   OH264947   4.202   0.675   0.719 -0.4784 -0.3044  0.3024
14511TIP3    H164948   4.132   0.678   0.785  1.0853 -0.5694  2.0085
14511TIP3    H264949   4.236   0.586   0.725 -0.6920 -0.4900 -1.2615
14512TIP3   OH264950   2.002   2.070   5.542  0.5236 -0.0839  0.0831
14512TIP3    H164951   1.989   1.985   5.501  0.0966  0.3722 -0.7543
14512TIP3    H264952   1.983   2.133   5.472 -0.8477  0.7264  1.1574
14513TIP3   OH264953   3.253   2.456  12.973 -0.4758  0.3750 -0.1993
14513TIP3    H164954   3.208   2.391  13.027  0.3181  1.3310  1.6574
14513TIP3    H264955   3.278   2.408  12.894 -0.5113 -1.4016  0.8389
14514TIP3   OH264956   2.277   5.012  15.967  0.1832 -0.1089  0.1401
14514TIP3    H164957   2.217   5.062  16.022 -1.5556 -1.3105 -0.5970
14514TIP3    H264958   2.351   4.991  16.024 -0.4791  0.6836  1.3051
14515TIP3   OH264959   3.020   1.373   5.715 -0.8201 -0.5054 -0.1103
14515TIP3    H164960   3.075   1.409   5.785  0.0170  0.7433 -1.3713
14515TIP3    H264961   3.031   1.279   5.721  0.9257 -0.2984  0.1008
14516TIP3   OH264962   6.226   2.210  16.794 -0.3464 -0.5012  0.0620
14516TIP3    H164963   6.218   2.239  16.703 -0.3734 -0.1484  0.1767
14516TIP3    H264964   6.178   2.126  16.796 -1.2827  0.0191 -0.0030
14517TIP3   OH264965   3.972   0.651   2.054 -0.0651  0.0931 -0.1070
14517TIP3    H164966   4.045   0.648   2.116 -0.0059 -1.1159 -0.2293
14517TIP3    H264967   3.913   0.718   2.090  0.8372  0.6832  0.2795
14518TIP3   OH264968   4.752   3.852  13.252  0.0107  0.0627 -0.2313
14518TIP3    H164969   4.826   3.799  13.224 -2.0498 -2.0085 -1.9201
14518TIP3    H264970   4.700   3.794  13.307  0.1095  1.8107  1.7712
14519TIP3   OH264971   1.640   5.354   2.011 -0.0716  0.1677  0.2307
14519TIP3    H164972   1.555   5.376   1.974  0.7252 -1.1025 -2.4884
14519TIP3    H264973   1.699   5.422   1.979  0.7138 -1.1781 -1.2529
14520TIP3   OH264974   6.651   1.934   4.327 -0.0488  0.4899 -0.3917
14520TIP3    H164975   6.599   1.905   4.252 -1.3007  0.9446  0.2981
14520TIP3    H264976   6.676   2.024   4.306  0.4495  0.2756 -0.7174
14521TIP3   OH264977   1.379   1.592  13.427  0.5454  0.6861  0.4713
14521TIP3    H164978   1.454   1.540  13.396  0.7359  0.4932  1.2472
14521TIP3    H264979   1.338   1.624  13.347  1.6547  1.0674  0.0385
14522TIP3   OH264980   3.289   1.913   4.298 -0.4676 -0.3772 -0.1943
14522TIP3    H164981   3.282   1.886   4.389 -0.3192 -0.9851 -0.3575
14522TIP3    H264982   3.370   1.872   4.267  1.1025  2.2931  0.2388
14523TIP3   OH264983   1.470   1.262   5.364  0.7560  0.1271  0.8524
14523TIP3    H164984   1.462   1.250   5.459 -0.1218  0.7555  0.8661
14523TIP3    H264985   1.530   1.336   5.355 -0.6721  1.3178  0.9723
14524TIP3   OH264986   0.506   1.690   0.248  0.4499 -0.0912 -0.1297
14524TIP3    H164987   0.586   1.731   0.216  1.1544 -0.8983  0.5782
14524TIP3    H264988   0.536   1.620   0.307 -0.8007  2.2956  3.5182
14525TIP3   OH264989   3.434   0.614  15.187 -0.4283  0.1921 -0.9046
14525TIP3    H164990   3.389   0.541  15.145 -0.5068 -1.3593  1.7233
14525TIP3    H264991   3.387   0.626  15.270  2.9632 -0.4832  1.2395
14526TIP3   OH264992   3.944   1.201  10.644  0.1818  0.8195 -0.2322
14526TIP3    H164993   3.975   1.275  10.593  1.1637 -1.1384 -2.5427
14526TIP3    H264994   3.929   1.132  10.580 -3.9338  0.0185  1.4537
14527TIP3   OH264995   1.018   2.050   6.574 -0.3457 -0.6084  0.0508
14527TIP3    H164996   1.047   2.137   6.600 -0.1884 -0.9987  1.2310
14527TIP3    H264997   0.927   2.062   6.547 -0.0547  0.0707 -0.6180
14528TIP3   OH264998   0.315   3.914   0.475 -0.0802 -0.4345 -0.2196
14528TIP3    H164999   0.283   3.910   0.385 -0.1955 -1.2494 -0.1436
14528TIP3    H265000   0.376   3.841   0.483  0.6705  0.2164  0.0840
14529TIP3   OH265001   6.399   5.633   3.886 -0.5325  0.3319 -0.0487
14529TIP3    H165002   6.392   5.538   3.871 -0.5963  0.3315 -0.0136
14529TIP3    H265003   6.482   5.657   3.845  0.5451 -0.1118  1.8052
14530TIP3   OH265004   4.052   6.485   2.359  0.0014 -0.9422 -0.4492
14530TIP3    H165005   3.974   6.431   2.374 -1.3466  1.3064  0.9633
14530TIP3    H265006   4.067   6.479   2.265 -3.8969  1.1677 -1.3273
14531TIP3   OH265007   1.839   4.107  10.888 -0.3361  0.4522 -0.3777
14531TIP3    H165008   1.842   4.188  10.839 -0.6688  0.5114 -0.3023
14531TIP3    H265009   1.828   4.039  10.822 -0.5098  0.5096 -0.4107
14532TIP3   OH265010   4.494   1.765  12.994 -0.1061  0.3881  0.6863
14532TIP3    H165011   4.499   1.819  12.915  1.0430  1.1294  1.2545
14532TIP3    H265012   4.414   1.714  12.983 -0.3783  1.0716 -0.5874
14533TIP3   OH265013   5.151   3.860   0.770 -0.2989  0.5402 -0.3063
14533TIP3    H165014   5.179   3.838   0.681 -2.5901 -0.0843 -0.8983
14533TIP3    H265015   5.192   3.793   0.826 -0.4854 -0.2551 -1.1207
14534TIP3   OH265016   4.761   3.121   3.255 -0.3022 -0.0331 -0.5371
14534TIP3    H165017   4.709   3.184   3.205 -1.0583 -0.4431 -0.2871
14534TIP3    H265018   4.782   3.167   3.336  0.5521  0.4755 -1.0393
14535TIP3   OH265019   3.872   2.048   0.029 -0.5293  0.5064 -0.0432
14535TIP3    H165020   3.816   2.096  -0.032  1.3772  2.3975 -0.3604
14535TIP3    H265021   3.812   1.991   0.077 -2.6174  1.9655 -0.8594
14536TIP3   OH265022   1.002   2.909   0.288 -0.1449  0.6592  0.1535
14536TIP3    H165023   0.994   2.860   0.370 -3.7179  0.3185 -0.3266
14536TIP3    H265024   1.004   3.001   0.316  0.3951  0.4747  0.7234
14537TIP3   OH265025   2.904   2.499   1.072 -0.3900  0.6938 -0.1246
14537TIP3    H165026   2.994   2.532   1.079 -0.1495 -0.1628  0.8513
14537TIP3    H265027   2.883   2.510   0.979  1.6262 -1.3965 -0.8728
14538TIP3   OH265028   0.521   6.273  17.117  0.0465 -0.3794  0.4224
14538TIP3    H165029   0.468   6.347  17.146  0.8209  0.9355 -1.4369
14538TIP3    H265030   0.463   6.197  17.126 -1.8028  0.8783 -0.5934
14539TIP3   OH265031   1.362   3.392  11.628 -0.3770  0.5849  0.5634
14539TIP3    H165032   1.356   3.474  11.677  1.5987  1.4561 -0.5650
14539TIP3    H265033   1.289   3.394  11.567  0.4313  2.1701 -0.3782
14540TIP3   OH265034   5.753   4.425  12.175  0.6971 -0.0575 -0.8127
14540TIP3    H165035   5.666   4.451  12.142  1.0560  0.6647 -1.1989
14540TIP3    H265036   5.758   4.465  12.262  1.1592  1.0206 -1.3159
14541TIP3   OH265037   6.210   4.914   1.190 -0.9173 -0.3446  0.0867
14541TIP3    H165038   6.191   4.886   1.280 -0.4050 -1.7907 -0.2286
14541TIP3    H265039   6.305   4.925   1.188 -0.6169 -2.6812 -0.8728
14542TIP3   OH265040   3.981   2.704   0.833  0.3732 -0.0455 -0.4186
14542TIP3    H165041   4.063   2.674   0.873  1.0339 -0.2573 -1.9050
14542TIP3    H265042   3.922   2.718   0.907  1.2567 -1.4086  0.5638
14543TIP3   OH265043   1.889   4.881   4.633  0.3257  0.3706  0.5862
14543TIP3    H165044   1.914   4.973   4.625  2.0483  0.0261  1.7906
14543TIP3    H265045   1.946   4.835   4.572  0.2275 -0.0352  0.7983
14544TIP3   OH265046   1.880   3.668   1.476 -0.0206  0.5230  0.6408
14544TIP3    H165047   1.867   3.758   1.447 -0.2948  0.3753  0.3024
14544TIP3    H265048   1.940   3.675   1.551  0.1214  0.9670  0.4871
14545TIP3   OH265049   0.138   3.718   0.599  0.5219  0.0554  0.5335
14545TIP3    H165050   0.146   3.729   0.694  0.0213  0.8212  0.4933
14545TIP3    H265051   0.132   3.807   0.565 -3.1600 -0.2575  0.1394
14546TIP3   OH265052   6.287   4.297  11.185 -0.3369 -0.1759  0.3213
14546TIP3    H165053   6.209   4.244  11.200 -0.6568  0.5588  1.2834
14546TIP3    H265054   6.278   4.328  11.095  0.6401 -3.0342 -0.8115
14547TIP3   OH265055   3.520   0.506  12.200 -0.5706  0.3488 -0.5705
14547TIP3    H165056   3.564   0.470  12.123 -0.7339  0.1526 -0.5679
14547TIP3    H265057   3.500   0.431  12.255 -0.4256  0.4911 -0.3188
14548TIP3   OH265058   2.329   2.252  11.611  0.8516  0.3997 -0.2481
14548TIP3    H165059   2.405   2.219  11.660  0.1621  0.8369  1.1306
14548TIP3    H265060   2.254   2.229  11.665  0.0107  0.2506 -1.4614
14549TIP3   OH265061   6.604   4.686  11.424 -0.4104 -0.0764  0.1501
14549TIP3    H165062   6.565   4.773  11.428  0.6038  0.2898  2.8289
14549TIP3    H265063   6.566   4.640  11.499  1.5598 -0.8738  0.6794
14550TIP3   OH265064   1.579   2.068  15.128 -0.4583 -0.2058 -0.3852
14550TIP3    H165065   1.546   2.105  15.210  0.7430 -1.1855  0.5651
14550TIP3    H265066   1.508   2.014  15.095 -1.4389  1.2417 -0.6894
14551TIP3   OH265067   4.123   6.589   0.368  0.2713  0.2707 -0.5151
14551TIP3    H165068   4.038   6.554   0.343  0.3539 -2.2287  2.4215
14551TIP3    H265069   4.105   6.646   0.443  0.9590  1.4109 -1.1984
14552TIP3   OH265070   0.489   2.185  16.987  0.1076 -0.2628  0.6512
14552TIP3    H165071   0.422   2.195  17.055  0.2348 -0.2061  0.7688
14552TIP3    H265072   0.568   2.224  17.026 -0.0665  0.6614  0.0979
14553TIP3   OH265073   0.367   4.862  13.298  0.7590 -0.1938 -0.3435
14553TIP3    H165074   0.461   4.846  13.300  0.5729 -1.2244  0.5753
14553TIP3    H265075   0.358   4.942  13.247  2.1670  0.1874 -0.0281
14554TIP3   OH265076   5.896   2.926   3.935  0.1244 -0.3063  0.1517
14554TIP3    H165077   5.899   2.983   4.013  0.8968 -0.3919  0.1841
14554TIP3    H265078   5.804   2.928   3.909 -0.1267 -0.1883  1.0066
14555TIP3   OH265079   5.621   0.983  12.435 -0.6734 -0.3399 -0.7968
14555TIP3    H165080   5.531   0.987  12.467 -0.5384  1.0580 -0.5396
14555TIP3    H265081   5.675   0.987  12.515 -0.3299  3.3615 -1.1227
14556TIP3   OH265082   2.280   0.264   0.913  0.8428  0.3250 -0.3410
14556TIP3    H165083   2.335   0.274   0.991  0.3363  0.0508  0.0529
14556TIP3    H265084   2.268   0.169   0.904 -1.1469  0.4545  0.6878
14557TIP3   OH265085   0.892   3.099   2.257 -0.1804  0.9002  0.1596
14557TIP3    H165086   0.808   3.129   2.222 -0.6765 -0.2544  0.3087
14557TIP3    H265087   0.928   3.044   2.187 -0.8663 -0.8768  1.1801
14558TIP3   OH265088   3.890   3.597   4.917  0.2023 -0.1376 -0.5140
14558TIP3    H165089   3.893   3.519   4.861  0.2367 -1.3400  1.1269
14558TIP3    H265090   3.927   3.666   4.862 -0.6686 -1.0585 -2.3195
14559TIP3   OH265091   6.733   5.261   1.474  0.3773  0.0989  0.0854
14559TIP3    H165092   6.806   5.323   1.472  2.8771 -2.7830  0.2070
14559TIP3    H265093   6.684   5.279   1.393  0.9427  2.3225  0.2097
14560TIP3   OH265094   0.032   0.001   4.414 -0.1676 -0.4414  0.4321
14560TIP3    H165095   0.061   0.073   4.470  1.8766 -2.1098  1.5447
14560TIP3    H265096  -0.024   0.044   4.349  1.2109  2.1901  0.9034
14561TIP3   OH265097   4.413   1.250   5.445  0.0195 -0.2906 -0.2534
14561TIP3    H165098   4.480   1.217   5.384  0.0812  0.3897 -0.5584
14561TIP3    H265099   4.428   1.345   5.449  1.7561 -0.6446  2.9280
14562TIP3   OH265100   5.898   0.150   1.968  0.0133  0.2462  0.3776
14562TIP3    H165101   5.876   0.089   1.897 -1.2039  0.7901  0.2783
14562TIP3    H265102   5.976   0.196   1.936  2.2569 -2.6892  1.3254
14563TIP3   OH265103   6.402   1.746   2.829 -0.2019 -0.3983  0.6461
14563TIP3    H165104   6.340   1.788   2.890  1.2444  0.3632  1.6427
14563TIP3    H265105   6.468   1.814   2.813  0.9697 -1.5603  0.5004
14564TIP3   OH265106   3.366   6.319   2.338 -0.4413  0.3433 -0.1584
14564TIP3    H165107   3.299   6.366   2.289 -0.4938  0.7031  0.2539
14564TIP3    H265108   3.360   6.354   2.427  1.4484  1.5933 -0.5008
14565TIP3   OH265109   4.466   3.939   5.958  0.4190 -0.1343 -0.1616
14565TIP3    H165110   4.383   3.919   6.001  1.6656 -0.6897  2.0797
14565TIP3    H265111   4.528   3.954   6.031  2.5461 -0.8551 -1.7679
14566TIP3   OH265112   4.905   3.384   5.113  0.4742 -0.7043  0.3569
14566TIP3    H165113   4.945   3.298   5.128  0.4743 -0.9852 -1.1983
14566TIP3    H265114   4.813   3.365   5.095  0.6289 -0.4421 -0.7262
14567TIP3   OH265115   5.414   3.447   2.046 -0.3291 -0.0463  0.1342
14567TIP3    H165116   5.392   3.371   1.993 -0.6320 -0.1643  0.4327
14567TIP3    H265117   5.467   3.412   2.117  0.2143  0.1350 -0.1774
14568TIP3   OH265118   2.991   5.840  11.799  0.0219  0.1138 -0.3966
14568TIP3    H165119   2.937   5.876  11.869  3.1007  0.7006  1.7779
14568TIP3    H265120   2.971   5.747  11.798 -2.5802  0.6416 -1.1121
14569TIP3   OH265121   0.386   1.781   2.473  0.6641 -0.1769 -0.1775
14569TIP3    H165122   0.462   1.803   2.419  1.3057 -0.0315  0.7752
14569TIP3    H265123   0.415   1.799   2.563 -0.9236  1.1298  0.0830
14570TIP3   OH265124   5.749   4.338   1.371  0.0577 -0.7831  0.2988
14570TIP3    H165125   5.803   4.305   1.299  1.7301  1.8406  0.2626
14570TIP3    H265126   5.802   4.408   1.410 -2.8854  1.1898  0.9234
14571TIP3   OH265127   3.994   6.713   0.890  0.0611 -0.0434 -0.2003
14571TIP3    H165128   3.920   6.709   0.830 -0.4652  1.3197  0.3457
14571TIP3    H265129   4.064   6.754   0.839 -0.3738  1.0783  0.0881
14572TIP3   OH265130   2.243   2.901   1.535 -0.5135  0.0291 -0.1248
14572TIP3    H165131   2.318   2.958   1.555 -0.8350  0.3062  0.2932
14572TIP3    H265132   2.216   2.927   1.447  0.5500 -0.8009 -0.7094
14573TIP3   OH265133   6.636   2.353  11.467 -0.1635  0.3284  0.3724
14573TIP3    H165134   6.721   2.345  11.426 -1.0505  0.0077 -1.4568
14573TIP3    H265135   6.588   2.275  11.439 -0.5772 -0.2425  2.5761
14574TIP3   OH265136   3.099   6.707  12.384 -0.1672 -0.1455  0.0006
14574TIP3    H165137   3.175   6.756  12.415 -0.3798 -0.4816  1.0747
14574TIP3    H265138   3.100   6.718  12.289  0.8055  0.4554  0.0767
14575TIP3   OH265139   2.200   6.085   0.324  0.3384  0.0535  0.2274
14575TIP3    H165140   2.275   6.037   0.359 -0.4283 -0.9355  0.5481
14575TIP3    H265141   2.125   6.032   0.348 -0.4768  1.0957 -0.0011
14576TIP3   OH265142   6.765   1.954  11.783  0.4787 -0.3266  0.1262
14576TIP3    H165143   6.731   2.004  11.857  2.1888 -0.2484  0.8840
14576TIP3    H265144   6.842   2.003  11.754  0.2152 -0.7133 -1.2882
14577TIP3   OH265145   6.391   4.612   1.551  0.0834  0.0317 -0.4505
14577TIP3    H165146   6.486   4.595   1.549  0.1453  0.2022  0.5900
14577TIP3    H265147   6.379   4.668   1.628 -0.7275  0.9115 -1.2143
14578TIP3   OH265148   4.531   4.255   1.961  0.2129  0.2610 -0.7188
14578TIP3    H165149   4.484   4.266   2.043 -0.2209 -0.0552 -0.9262
14578TIP3    H265150   4.521   4.162   1.939  0.3800  0.3305 -1.0958
14579TIP3   OH265151   3.320   3.340   1.613  0.5052 -0.0529 -0.1534
14579TIP3    H165152   3.298   3.432   1.605  0.8104  0.0740  0.4126
14579TIP3    H265153   3.290   3.300   1.531 -1.0650  0.2524  0.2697
14580TIP3   OH265154   0.114   2.697   6.132  0.3469 -0.2524  0.0732
14580TIP3    H165155   0.142   2.737   6.214  0.3241  2.1118 -1.0350
14580TIP3    H265156   0.178   2.629   6.115  1.9805  1.1116  0.6541
14581TIP3   OH265157   2.396   2.136  14.575 -0.2381  0.5808 -0.0075
14581TIP3    H165158   2.403   2.223  14.536  0.9374  0.6351  0.2881
14581TIP3    H265159   2.487   2.109  14.587 -0.5533 -1.9625 -2.8671
14582TIP3   OH265160   3.779   3.120  14.587  0.1020  0.6397  0.4584
14582TIP3    H165161   3.748   3.063  14.658 -0.3425  0.6936  0.3101
14582TIP3    H265162   3.853   3.073  14.549 -0.5884 -0.0796 -0.0013
14583TIP3   OH265163   0.630   0.225   2.909 -0.1676 -0.3309  0.2328
14583TIP3    H165164   0.606   0.204   3.000 -1.4123  0.8727  0.2072
14583TIP3    H265165   0.613   0.144   2.861 -0.9547 -0.5276  0.8241
14584TIP3   OH265166   3.810   0.932  14.701  0.0825 -0.3803 -0.0083
14584TIP3    H165167   3.854   0.966  14.623  0.6083  0.2700  0.5631
14584TIP3    H265168   3.719   0.959  14.690  0.2584  0.1786 -0.1480
14585TIP3   OH265169   5.754   1.574   3.210 -0.3604 -0.4037  0.5265
14585TIP3    H165170   5.678   1.548   3.262  0.9903  0.1393  2.8360
14585TIP3    H265171   5.736   1.539   3.123 -4.4193  1.9084  0.3449
14586TIP3   OH265172   3.859   1.473   2.864  0.0051 -0.3513  0.5212
14586TIP3    H165173   3.828   1.436   2.946 -0.3117 -2.3175 -0.4321
14586TIP3    H265174   3.951   1.445   2.859 -0.3230 -1.3221 -0.3541
14587TIP3   OH265175   0.352   1.644  15.511  1.1423  0.0034  0.4104
14587TIP3    H165176   0.277   1.672  15.458 -0.1082  0.7845  2.5458
14587TIP3    H265177   0.345   1.549  15.514 -1.2623  0.2008  2.6650
14588TIP3   OH265178   5.725   5.334  11.635  0.1068 -0.3150 -0.4382
14588TIP3    H165179   5.677   5.395  11.691  0.3011  0.5829 -1.2335
14588TIP3    H265180   5.733   5.254  11.687  0.1309  0.4497  0.7417
14589TIP3   OH265181   0.634   5.933   0.068  0.1315 -0.8080  0.3746
14589TIP3    H165182   0.690   5.977   0.004  0.7790 -1.1396  0.7072
14589TIP3    H265183   0.632   5.992   0.143 -0.1840 -0.6738  0.2615
14590TIP3   OH265184   5.626   0.096   0.869 -0.0837 -0.4650 -0.5775
14590TIP3    H165185   5.716   0.126   0.882 -0.1396 -1.5270  2.7729
14590TIP3    H265186   5.634   0.009   0.831  0.2914 -0.3639 -0.7268
14591TIP3   OH265187   4.150   3.452   0.624  0.4811 -0.0793 -0.0510
14591TIP3    H165188   4.060   3.448   0.656  0.5981  0.4270  0.3426
14591TIP3    H265189   4.204   3.438   0.701  0.7497  0.0253 -0.2202
14592TIP3   OH265190   4.019   6.448   5.295 -0.1336  0.5083 -0.7929
14592TIP3    H165191   4.087   6.473   5.233 -0.5471  1.2228 -0.9619
14592TIP3    H265192   4.005   6.354   5.279  0.8512  0.3416 -0.7075
14593TIP3   OH265193   5.003   1.849  17.161 -0.3743  0.4357  0.0806
14593TIP3    H165194   5.059   1.926  17.171 -1.2713  0.9672  1.0595
14593TIP3    H265195   5.031   1.789  17.230  1.4167 -0.8285 -1.6631
14594TIP3   OH265196   0.895   5.089   6.718 -0.2328 -0.3044  0.1798
14594TIP3    H165197   0.989   5.089   6.700 -0.1171  1.0303  0.6534
14594TIP3    H265198   0.857   5.137   6.645 -0.6413 -1.4988 -0.3990
14595TIP3   OH265199   4.655   1.342   0.039  0.2988 -0.4963  0.2914
14595TIP3    H165200   4.747   1.356   0.058  0.4524  0.2498 -0.9497
14595TIP3    H265201   4.616   1.430   0.042  0.1265 -0.4839 -1.6722
14596TIP3   OH265202   0.005   0.434  11.516 -0.3322  0.3134  0.6507
14596TIP3    H165203   0.076   0.496  11.503 -0.6825  0.5602 -0.1266
14596TIP3    H265204   0.044   0.348  11.497  0.7490  0.0216  3.8920
14597TIP3   OH265205   6.157   3.692  11.042  0.4206 -0.5046 -0.0788
14597TIP3    H165206   6.175   3.697  10.949 -0.6748  2.5953 -0.1716
14597TIP3    H265207   6.064   3.670  11.048  0.5428 -0.9352  0.2925
14598TIP3   OH265208   1.799   6.647  14.172 -0.1229 -0.1359  0.1490
14598TIP3    H165209   1.764   6.598  14.246 -1.0013  0.0738 -0.1291
14598TIP3    H265210   1.723   6.668  14.118  0.5694 -0.7803 -1.1144
14599TIP3   OH265211   2.001   5.143  15.717 -0.0882  0.2409  0.4375
14599TIP3    H165212   1.963   5.148  15.804  1.4635  1.2255  1.0749
14599TIP3    H265213   2.016   5.234  15.691 -1.5037 -0.0049 -1.2926
14600TIP3   OH265214   5.225   1.853   2.464  0.1596  0.5751 -0.7319
14600TIP3    H165215   5.297   1.854   2.401 -1.1925 -2.0170 -2.4033
14600TIP3    H265216   5.200   1.760   2.470 -1.9694  1.2320  1.0288
14601TIP3   OH265217   3.891   4.780   3.326 -0.1295  0.3984  0.3245
14601TIP3    H165218   3.944   4.728   3.266 -0.7956 -0.6611  0.6399
14601TIP3    H265219   3.955   4.818   3.387  0.5183  1.2351 -0.8466
14602TIP3   OH265220   1.307   3.065   4.237  0.2341 -0.1215  0.9214
14602TIP3    H165221   1.216   3.037   4.238  0.0551  0.4364  0.1228
14602TIP3    H265222   1.357   2.985   4.256 -0.2409 -1.1450 -1.8827
14603TIP3   OH265223   6.672   0.899  16.211  0.0390  0.1470  0.1606
14603TIP3    H165224   6.594   0.910  16.157 -0.1658 -1.6092  0.0685
14603TIP3    H265225   6.639   0.907  16.301 -0.6518 -2.6370  0.2027
14604TIP3   OH265226   4.857   0.007  14.888  0.0933 -0.4220  0.6600
14604TIP3    H165227   4.887   0.069  14.822  1.6771  0.7479  2.4373
14604TIP3    H265228   4.762   0.003  14.877  0.0800  1.6051 -0.0759
14605TIP3   OH265229   1.083   0.872   0.457  0.7790 -0.3488 -0.2281
14605TIP3    H165230   1.101   0.940   0.522 -1.3185  0.7366 -0.7013
14605TIP3    H265231   1.082   0.790   0.507  0.1676  0.3546  0.9385
14606TIP3   OH265232   1.911   0.182  15.421  0.5389 -0.1671 -0.3090
14606TIP3    H165233   1.831   0.131  15.409  0.3474  0.0390  0.0709
14606TIP3    H265234   1.898   0.228  15.504  0.8128  0.3000 -0.5184
14607TIP3   OH265235   6.423   2.117   6.437 -0.0806 -0.3058 -0.2149
14607TIP3    H165236   6.362   2.119   6.511  1.6517 -0.6396  1.2396
14607TIP3    H265237   6.415   2.204   6.398  0.1324  0.4155  1.3030
14608TIP3   OH265238   1.731   2.040  12.510 -0.2289  0.2132  0.0927
14608TIP3    H165239   1.793   2.103  12.548 -1.2179 -0.3390  2.7597
14608TIP3    H265240   1.778   1.957  12.511 -1.2732 -0.3922  2.9966
14609TIP3   OH265241   4.205   0.167  11.390 -0.1059  0.3561 -0.7031
14609TIP3    H165242   4.138   0.160  11.322  0.3878  0.0872 -1.1674
14609TIP3    H265243   4.221   0.261  11.399  0.0200  0.3781 -1.1525
14610TIP3   OH265244   5.069   1.120   1.233  0.3152 -0.2288  0.4594
14610TIP3    H165245   5.053   1.190   1.296 -0.6153 -0.7437  0.8053
14610TIP3    H265246   5.063   1.039   1.284 -0.7352 -0.6692 -0.3219
14611TIP3   OH265247   5.212   6.271   0.223 -0.3673  0.1412 -0.0069
14611TIP3    H165248   5.187   6.301   0.136 -0.1990  0.0625 -0.0839
14611TIP3    H265249   5.288   6.215   0.208 -1.2987 -1.1456  0.0320
14612TIP3   OH265250   1.258   4.982  12.366  0.5815  0.2555 -0.5920
14612TIP3    H165251   1.217   5.043  12.428  2.7347  1.3792 -0.2222
14612TIP3    H265252   1.299   4.916  12.422  1.5355  0.6272 -0.8425
14613TIP3   OH265253   1.124   4.162   4.539 -0.0915  0.1215  0.1650
14613TIP3    H165254   1.138   4.147   4.446  2.1028 -1.3792  0.6906
14613TIP3    H265255   1.140   4.076   4.579 -0.1386  0.9545  2.0051
14614TIP3   OH265256   3.337   1.460  13.678 -0.1211 -0.4559 -0.5646
14614TIP3    H165257   3.374   1.545  13.653 -0.6485 -0.2291 -0.5710
14614TIP3    H265258   3.276   1.439  13.607  0.6444 -1.2449 -0.9978
14615TIP3   OH265259   2.593   0.970   1.456  0.7080  0.0187  0.1216
14615TIP3    H165260   2.605   1.063   1.474  1.9063 -0.5301  2.3095
14615TIP3    H265261   2.530   0.941   1.522  1.8992 -1.1428  0.7642
14616TIP3   OH265262   2.856   1.337   5.405  0.3690 -0.3812  0.1351
14616TIP3    H165263   2.845   1.242   5.415  0.2613 -0.3799  0.0306
14616TIP3    H265264   2.772   1.368   5.372  0.2443 -0.1791  0.6357
14617TIP3   OH265265   0.965   3.830  12.152 -0.0159 -0.7611  0.5781
14617TIP3    H165266   1.011   3.846  12.235 -0.9133 -1.4930  1.2365
14617TIP3    H265267   0.874   3.816  12.178 -0.5558  0.3106 -0.6728
14618TIP3   OH265268   5.941   3.246   1.359 -0.1439 -0.4458 -0.3914
14618TIP3    H165269   5.907   3.219   1.445 -1.2318  1.3109 -0.2468
14618TIP3    H265270   5.982   3.331   1.375  0.6898 -0.6511 -1.3877
14619TIP3   OH265271   0.417   5.380  11.759  0.0077 -0.6915  0.4727
14619TIP3    H165272   0.435   5.304  11.703  1.6769 -0.2038  0.3396
14619TIP3    H265273   0.477   5.369  11.833 -1.2615 -0.6317  1.5314
14620TIP3   OH265274   5.449   6.594  15.090 -0.0663  0.1471  1.1464
14620TIP3    H165275   5.512   6.534  15.130  1.1075  0.0106 -0.8279
14620TIP3    H265276   5.492   6.679  15.093  1.6133 -0.3989 -2.8128
14621TIP3   OH265277   4.453   6.437   5.882 -0.3423 -0.6432 -0.0940
14621TIP3    H165278   4.497   6.360   5.916  0.8622 -0.3060 -0.8283
14621TIP3    H265279   4.409   6.476   5.957  0.4574 -1.1052  0.6172
14622TIP3   OH265280   5.504   3.821   4.761 -0.2866  0.0462  0.3928
14622TIP3    H165281   5.540   3.820   4.849  1.0416 -1.3535 -0.1558
14622TIP3    H265282   5.412   3.795   4.772 -0.3458  0.6730  1.4324
14623TIP3   OH265283   6.587   3.493   4.654  0.4466 -0.4188  0.2591
14623TIP3    H165284   6.657   3.510   4.591  0.1582 -0.0935  0.0211
14623TIP3    H265285   6.525   3.438   4.607 -0.3930  0.8705 -0.1767
14624TIP3   OH265286   3.372   2.803   1.409 -0.5187 -0.1869 -0.0014
14624TIP3    H165287   3.314   2.870   1.375 -1.2506 -1.7282 -1.8807
14624TIP3    H265288   3.322   2.760   1.478 -1.2523 -0.8376 -0.9230
14625TIP3   OH265289   4.804   3.136   2.182 -0.3289  0.2180  0.2575
14625TIP3    H165290   4.817   3.146   2.088  0.5861 -0.3297  0.3176
14625TIP3    H265291   4.805   3.225   2.217 -0.5048  0.4089 -0.2323
14626TIP3   OH265292   2.348   5.065  16.391 -0.0505 -0.1010  0.1400
14626TIP3    H165293   2.391   5.128  16.449  2.1464 -0.4738 -1.0388
14626TIP3    H265294   2.255   5.083  16.401  0.4127  1.4190  1.9848
14627TIP3   OH265295   1.406   1.032  14.628 -0.4160  0.5830  0.3289
14627TIP3    H165296   1.432   0.974  14.557 -3.5886 -0.6041  0.0503
14627TIP3    H265297   1.481   1.090  14.640  1.5645 -1.4636 -1.5766
14628TIP3   OH265298   2.426   1.540  16.078 -0.0217 -0.1044  0.3613
14628TIP3    H165299   2.342   1.515  16.041 -0.7827  0.8774  1.3760
14628TIP3    H265300   2.487   1.472  16.049 -0.9131 -0.2013 -1.3404
14629TIP3   OH265301   6.430   3.904  13.985 -0.1836  0.1867  0.1216
14629TIP3    H165302   6.439   3.995  14.013  0.9341  0.3496 -0.7416
14629TIP3    H265303   6.377   3.909  13.905 -0.6209  0.0189  0.3983
14630TIP3   OH265304   5.090   0.800  12.285 -0.3271  0.2217 -0.0527
14630TIP3    H165305   5.113   0.801  12.192  0.4866  1.5255  0.1533
14630TIP3    H265306   5.155   0.742  12.325 -0.0404  0.4870 -0.1361
14631TIP3   OH265307   5.536   5.818   2.390  0.4384  0.3856  0.2381
14631TIP3    H165308   5.591   5.891   2.362 -0.0107 -0.3279 -2.5996
14631TIP3    H265309   5.595   5.743   2.393  0.7687  0.6849  2.5858
14632TIP3   OH265310   0.827   2.765   3.223  0.4493 -0.5103 -0.1860
14632TIP3    H165311   0.825   2.821   3.145  0.8178 -0.8272 -0.4275
14632TIP3    H265312   0.912   2.782   3.263 -0.1515  0.4012  0.7064
14633TIP3   OH265313   3.103   4.679  14.111  0.2332  0.3031 -0.5054
14633TIP3    H165314   3.061   4.741  14.170  1.0280  1.2981 -0.9524
14633TIP3    H265315   3.190   4.664  14.149  0.5946  0.6292 -1.1736
14634TIP3   OH265316   4.834   0.962   6.318  0.2615  0.2271 -0.9251
14634TIP3    H165317   4.834   0.878   6.365  1.1768  0.8766  0.2414
14634TIP3    H265318   4.905   0.953   6.255  0.4585  0.1808 -0.6989
14635TIP3   OH265319   1.533   3.926   0.198 -0.1925  0.6070 -0.0311
14635TIP3    H165320   1.592   4.001   0.187 -0.1481  0.2958 -2.2100
14635TIP3    H265321   1.590   3.851   0.213 -0.1599  0.7276  0.4515
14636TIP3   OH265322   4.628   2.567   5.487 -0.2832  0.3795 -0.0264
14636TIP3    H165323   4.687   2.498   5.517 -0.0211  0.0204 -1.3660
14636TIP3    H265324   4.651   2.643   5.541 -1.6308 -0.9775  2.5639
14637TIP3   OH265325   1.760   0.661  15.330 -0.3960  0.0667 -0.2169
14637TIP3    H165326   1.698   0.669  15.403  0.0043 -0.7961  0.2234
14637TIP3    H265327   1.844   0.646  15.372 -0.1570 -0.4063 -0.8575
14638TIP3   OH265328   4.191   1.826  16.162 -0.0124  0.0282  0.2502
14638TIP3    H165329   4.121   1.818  16.226  0.5666 -0.6159  0.8141
14638TIP3    H265330   4.193   1.918  16.139 -2.5522 -0.3012 -1.4612
14639TIP3   OH265331   3.200   2.417   3.004 -0.2117 -0.1307 -0.1752
14639TIP3    H165332   3.120   2.441   2.957 -0.2086 -2.2932 -1.3526
14639TIP3    H265333   3.255   2.495   2.998 -1.5943  0.8205 -0.7692
14640TIP3   OH265334   1.717   4.298  16.957  0.1371 -0.4509 -0.4949
14640TIP3    H165335   1.764   4.364  16.907 -0.0188  0.1164  0.1013
14640TIP3    H265336   1.761   4.215  16.935  1.8109  0.1482  0.5109
14641TIP3   OH265337   2.228   2.974   1.262  0.2703  0.5087 -0.6956
14641TIP3    H165338   2.168   3.022   1.205  0.3218  1.3155 -0.0798
14641TIP3    H265339   2.270   2.910   1.204 -1.3220 -0.1950 -1.0935
14642TIP3   OH265340   5.217   3.628   2.374 -0.7980  0.4718  0.2354
14642TIP3    H165341   5.246   3.538   2.358  0.9598  1.2074 -1.0079
14642TIP3    H265342   5.151   3.644   2.307  0.1045  0.6351 -0.6312
14643TIP3   OH265343   5.560   3.873   1.599  0.1018  0.0838 -0.3871
14643TIP3    H165344   5.514   3.804   1.647  1.8645 -0.5080  0.5017
14643TIP3    H265345   5.650   3.869   1.632  0.7401  1.3649 -1.9130
14644TIP3   OH265346   4.297   6.185  11.372  0.1610  0.5914  0.0021
14644TIP3    H165347   4.364   6.130  11.332  0.6367  1.8289 -0.9437
14644TIP3    H265348   4.341   6.269  11.388 -1.2862  1.6132 -1.1725
14645TIP3   OH265349   6.642   0.128  13.206  0.5124  0.3621 -0.1023
14645TIP3    H165350   6.591   0.114  13.286  1.5097  1.0757  0.6799
14645TIP3    H265351   6.623   0.051  13.152  2.0013 -1.5725  1.9999
14646TIP3   OH265352   4.873   3.191   2.765 -0.2242  0.1307 -0.0286
14646TIP3    H165353   4.932   3.196   2.690 -0.5965 -1.0975 -0.4313
14646TIP3    H265354   4.833   3.104   2.758 -0.6482  0.1966  1.3088
14647TIP3   OH265355   0.547   1.269   6.455 -0.0801 -0.2559  0.4306
14647TIP3    H165356   0.541   1.179   6.423 -2.1858 -0.9064  2.5251
14647TIP3    H265357   0.460   1.306   6.439  0.9944  1.6925 -1.1382
14648TIP3   OH265358   5.964   2.306  14.090  0.3758  0.2675 -0.1584
14648TIP3    H165359   6.003   2.393  14.093  1.4146 -0.1597 -1.0676
14648TIP3    H265360   5.878   2.320  14.050 -0.6973  1.2891  2.3664
14649TIP3   OH265361   0.747   6.375  13.738 -0.0392 -0.7948 -0.4846
14649TIP3    H165362   0.685   6.418  13.798 -0.6677 -1.4435 -0.6647
14649TIP3    H265363   0.807   6.328  13.796  0.9908  0.7536 -0.2572
14650TIP3   OH265364   3.593   4.501  12.933  0.3195  0.5896  0.0952
14650TIP3    H165365   3.666   4.474  12.989 -0.1633  0.5372  0.6959
14650TIP3    H265366   3.570   4.588  12.964 -1.1301 -0.1621  1.1738
14651TIP3   OH265367   5.764   2.852   4.454  0.1200  0.1756  0.0479
14651TIP3    H165368   5.728   2.913   4.518  0.0339  0.6689 -0.4638
14651TIP3    H265369   5.835   2.900   4.411 -0.1543  0.0338 -0.5797
14652TIP3   OH265370   5.950   0.977  17.143 -0.0252 -0.6228  0.0675
14652TIP3    H165371   5.876   1.035  17.162 -0.6775 -1.1093 -0.9394
14652TIP3    H265372   5.995   0.967  17.227  0.0787  1.3012  0.2715
14653TIP3   OH265373   4.645   5.943   4.360 -0.0636  0.9479  0.0513
14653TIP3    H165374   4.680   6.028   4.388  1.1675  1.6462 -3.3401
14653TIP3    H265375   4.722   5.888   4.351 -0.8038 -0.3676  1.6074
14654TIP3   OH265376   0.977   0.915  14.136 -0.2459 -0.2829  0.0814
14654TIP3    H165377   0.929   0.941  14.214  1.0196 -0.6212  0.9918
14654TIP3    H265378   1.068   0.941  14.153 -0.0246  0.0376 -1.4596
14655TIP3   OH265379   3.355   6.397   1.993  0.2159  0.9914  0.1133
14655TIP3    H165380   3.282   6.407   1.932  0.7106 -1.8213 -1.0252
14655TIP3    H265381   3.320   6.345   2.065  0.9229  0.1912 -0.1178
14656TIP3   OH265382   3.721   5.200   4.629 -0.1048  0.0361 -0.0473
14656TIP3    H165383   3.809   5.199   4.666  0.4695 -0.8251 -1.3708
14656TIP3    H265384   3.663   5.218   4.703  1.1896  0.6878  0.8148
14657TIP3   OH265385   5.114   4.229   3.399  0.0304  0.4528  0.8074
14657TIP3    H165386   5.077   4.196   3.317  0.5152 -1.7662  1.4669
14657TIP3    H265387   5.157   4.311   3.374 -1.1368  0.5817 -0.8639
14658TIP3   OH265388   1.255   0.044  13.956  0.4035  0.4330 -0.3181
14658TIP3    H165389   1.263  -0.027  14.020 -1.5736  0.9376  0.5271
14658TIP3    H265390   1.228   0.002  13.875  1.0003  0.0243 -0.3080
14659TIP3   OH265391   6.629   0.141  12.610 -0.1903 -0.8715  0.0297
14659TIP3    H165392   6.694   0.073  12.628  1.1947  0.5548  0.5633
14659TIP3    H265393   6.632   0.153  12.515  0.9189 -0.2570  0.1331
14660TIP3   OH265394   4.786   4.590   2.664 -0.4629 -0.4697  0.0645
14660TIP3    H165395   4.765   4.680   2.686 -1.0138 -0.8107  0.9933
14660TIP3    H265396   4.881   4.588   2.656 -0.5296  0.4022 -0.9364
14661TIP3   OH265397   6.748   6.608   0.273 -0.1870  0.5639  0.0546
14661TIP3    H165398   6.743   6.518   0.303  1.5092  0.4561  0.0759
14661TIP3    H265399   6.775   6.601   0.181 -0.7684  1.0286 -0.1560
14662TIP3   OH265400   4.409   2.035   4.377  0.2747  0.0972 -0.1542
14662TIP3    H165401   4.411   2.090   4.299 -2.0812 -2.5434 -2.2253
14662TIP3    H265402   4.483   1.975   4.366  0.0471 -0.1615 -0.2799
14663TIP3   OH265403   5.299   6.122  14.867  0.7995  0.8682  0.0079
14663TIP3    H165404   5.366   6.129  14.936 -0.0012  1.0585  0.7718
14663TIP3    H265405   5.312   6.200  14.813  1.3684  0.7660 -0.0082
14664TIP3   OH265406   6.147   3.879  12.609 -0.0724  0.0432 -0.3725
14664TIP3    H165407   6.235   3.883  12.647  0.7162  0.4061 -2.1676
14664TIP3    H265408   6.127   3.786  12.603  0.7776 -0.1025 -1.1975
14665TIP3   OH265409   1.308   1.988  11.078 -0.2856 -0.4865  0.3130
14665TIP3    H165410   1.282   2.080  11.075 -1.1095 -0.7257  0.0563
14665TIP3    H265411   1.321   1.964  10.987  0.8752 -0.3676  0.4352
14666TIP3   OH265412   5.200   2.399   5.342 -0.1405 -0.3398  1.2147
14666TIP3    H165413   5.109   2.385   5.318  0.5000 -0.3415 -1.3752
14666TIP3    H265414   5.212   2.494   5.335  0.3167 -0.4459  0.5321
14667TIP3   OH265415   0.534   4.370   1.204  0.0225 -0.7374  0.0584
14667TIP3    H165416   0.531   4.334   1.115 -0.5585 -0.4991 -0.0223
14667TIP3    H265417   0.610   4.427   1.205 -0.1656 -0.4731 -0.3934
14668TIP3   OH265418   2.948   1.566  11.220 -0.1313 -0.2468  0.9707
14668TIP3    H165419   3.011   1.632  11.191 -1.6218  1.8913  2.4188
14668TIP3    H265420   2.932   1.512  11.142  0.7278  1.4354 -0.4099
14669TIP3   OH265421   3.268   5.215  12.829  0.5873 -0.3766 -0.0759
14669TIP3    H165422   3.285   5.160  12.753  1.6199 -0.3836  0.1465
14669TIP3    H265423   3.240   5.154  12.897  0.1817 -0.4353 -0.2967
14670TIP3   OH265424   1.233   6.388  13.380 -0.3394 -0.5309  0.0180
14670TIP3    H165425   1.228   6.369  13.474 -1.9988  0.5477  0.1802
14670TIP3    H265426   1.325   6.408  13.364  0.0334 -1.1391  1.3247
14671TIP3   OH265427   6.635   4.986  12.994 -0.0922  0.0816 -0.3797
14671TIP3    H165428   6.607   4.898  13.020 -0.6630  0.6528  1.0037
14671TIP3    H265429   6.592   5.001  12.910 -0.4597 -0.7300 -0.3421
14672TIP3   OH265430   2.267   4.888  11.195 -0.1228 -0.4316  0.5152
14672TIP3    H165431   2.333   4.922  11.134 -0.9518 -0.3323 -0.3510
14672TIP3    H265432   2.265   4.952  11.266  2.1061 -1.4725  1.5183
14673TIP3   OH265433   4.396   5.636   2.145 -0.3407 -0.0279 -0.9109
14673TIP3    H165434   4.315   5.668   2.185 -0.8764 -1.4134 -0.8282
14673TIP3    H265435   4.434   5.712   2.102 -1.6116  0.6884 -0.7968
14674TIP3   OH265436   3.814   6.147  13.924 -0.1523 -0.4323  0.2422
14674TIP3    H165437   3.771   6.208  13.983 -0.4638  1.1093 -1.5388
14674TIP3    H265438   3.766   6.064  13.934  0.1643 -0.3566  2.5353
14675TIP3   OH265439   3.708   3.952  15.717 -0.3900  0.1547 -0.3918
14675TIP3    H165440   3.636   3.892  15.734 -1.3963  1.2577 -0.7112
14675TIP3    H265441   3.787   3.900  15.733 -1.2487 -1.0693 -0.0805
14676TIP3   OH265442   1.141   2.383   5.966 -0.4202 -0.1701  0.4931
14676TIP3    H165443   1.127   2.455   6.028  1.1122  0.0697  0.5672
14676TIP3    H265444   1.055   2.340   5.960 -1.6240  2.2378 -0.2913
14677TIP3   OH265445   4.070   0.291   4.256  0.3505  0.3027 -0.2487
14677TIP3    H165446   3.982   0.273   4.287  0.3058  0.7718 -0.1045
14677TIP3    H265447   4.086   0.383   4.278  0.7672  0.3023 -0.5282
14678TIP3   OH265448   1.209   2.961  12.747 -0.3420  0.4265 -0.5500
14678TIP3    H165449   1.129   3.013  12.747 -1.0951 -0.6844  1.0250
14678TIP3    H265450   1.189   2.885  12.693 -0.9105 -0.6460  1.1398
14679TIP3   OH265451   4.489   4.530   5.488 -0.5844  0.3875  0.5464
14679TIP3    H165452   4.563   4.479   5.524 -0.8951  0.7136  1.6794
14679TIP3    H265453   4.511   4.543   5.396  1.4177  1.5813  1.1587
14680TIP3   OH265454   2.924   4.738   5.407  0.1090  0.6031 -0.4367
14680TIP3    H165455   2.991   4.673   5.385  0.4908  1.1965 -1.0102
14680TIP3    H265456   2.887   4.706   5.490  0.5822 -0.1240 -0.5002
14681TIP3   OH265457   5.461   2.223  15.935  0.2892  0.3893 -0.3903
14681TIP3    H165458   5.373   2.240  15.903  0.4764  0.1314 -1.0486
14681TIP3    H265459   5.448   2.180  16.020 -0.2120  0.5127 -0.4032
14682TIP3   OH265460   1.447   2.637   2.790  0.2168 -0.6135 -0.1060
14682TIP3    H165461   1.481   2.593   2.868  1.0222  1.1475  0.5479
14682TIP3    H265462   1.474   2.728   2.800 -1.0953 -0.0390 -1.6417
14683TIP3   OH265463   0.635   4.723   6.249 -1.1885  0.6213  0.2929
14683TIP3    H165464   0.659   4.811   6.278 -1.1374  1.0762 -1.1104
14683TIP3    H265465   0.545   4.731   6.218 -0.3921  0.7616 -2.1386
14684TIP3   OH265466   0.317   1.525   2.508 -0.1408 -0.4276  0.1602
14684TIP3    H165467   0.354   1.605   2.470  0.2073 -0.0441  1.2777
14684TIP3    H265468   0.327   1.536   2.602  0.0269 -1.8521  0.3283
14685TIP3   OH265469   6.725   1.148  10.663 -0.0316  0.2171 -0.4701
14685TIP3    H165470   6.808   1.181  10.626 -0.2900 -0.8505 -2.0700
14685TIP3    H265471   6.658   1.206  10.627 -0.0625  0.5170  0.0788
14686TIP3   OH265472   1.854   1.529  16.662  0.1666 -0.2986 -0.1115
14686TIP3    H165473   1.858   1.598  16.596  2.0447  0.5386  0.8336
14686TIP3    H265474   1.813   1.569  16.738  0.9425 -0.3045  0.3195
14687TIP3   OH265475   4.453   0.736   1.389  0.0672 -0.0561  0.1234
14687TIP3    H165476   4.522   0.763   1.449  2.0178 -0.8354 -1.6830
14687TIP3    H265477   4.421   0.817   1.350  0.8602  0.2160  0.0357
14688TIP3   OH265478   3.460   5.967  15.458  0.0844 -0.1946 -0.6085
14688TIP3    H165479   3.454   5.910  15.534  2.1424 -0.6121 -0.7507
14688TIP3    H265480   3.553   5.983  15.446 -0.4123  2.7303 -0.9324
14689TIP3   OH265481   6.390   5.701   2.326 -0.4710 -0.0882  0.3846
14689TIP3    H165482   6.474   5.746   2.323 -0.8015  0.4945 -0.1485
14689TIP3    H265483   6.387   5.651   2.244 -1.2065  0.9188 -0.2184
14690TIP3   OH265484   4.221   0.246   0.194 -0.2522  0.2074  0.3295
14690TIP3    H165485   4.125   0.242   0.191 -0.3033 -0.4856  2.2998
14690TIP3    H265486   4.245   0.181   0.259  1.4951  1.2890  0.7828
14691TIP3   OH265487   0.992   1.355  17.201 -0.2457 -0.4205  0.1143
14691TIP3    H165488   0.924   1.423  17.199  1.0765  0.8895 -2.8972
14691TIP3    H265489   1.058   1.389  17.262  1.1555  1.8551 -2.5420
14692TIP3   OH265490   4.278   4.438  11.408 -0.1562  0.2002 -0.8197
14692TIP3    H165491   4.216   4.437  11.335 -0.4240  0.4559 -0.5965
14692TIP3    H265492   4.267   4.353  11.450 -1.0316  0.6035 -0.2143
14693TIP3   OH265493   4.071   0.253   1.832  0.4914 -0.1692  0.0253
14693TIP3    H165494   4.073   0.344   1.860 -1.0927 -0.4643  1.2230
14693TIP3    H265495   3.977   0.233   1.825  0.8385 -1.2436 -1.7777
14694TIP3   OH265496   0.817   2.361  16.639  0.3197  0.2176 -0.0163
14694TIP3    H165497   0.799   2.409  16.720 -1.6682 -0.1950 -0.1904
14694TIP3    H265498   0.892   2.407  16.600  0.1819  1.4877  1.1788
14695TIP3   OH265499   3.634   5.355   6.291 -0.0497 -0.2324  0.0082
14695TIP3    H165500   3.560   5.328   6.347 -0.2140  3.5250  1.7074
14695TIP3    H265501   3.710   5.351   6.349  0.7580 -1.8155 -1.1188
14696TIP3   OH265502   6.665   5.520  14.438  0.8111  0.4133  0.0821
14696TIP3    H165503   6.745   5.562  14.468  0.8630  0.0832  0.4096
14696TIP3    H265504   6.679   5.427  14.455  0.0594  0.4355  0.8264
14697TIP3   OH265505   4.770   5.961  15.010  0.4777 -0.6890 -0.3296
14697TIP3    H165506   4.691   5.927  15.051  0.5939  0.3328  0.7564
14697TIP3    H265507   4.750   5.963  14.916 -1.1552  0.4967  0.0270
14698TIP3   OH265508   5.682   2.274   5.807  0.8936 -0.0416  0.0195
14698TIP3    H165509   5.617   2.340   5.833  0.4517 -0.6152  0.3660
14698TIP3    H265510   5.649   2.239   5.724  1.5074  0.6856 -0.5440
14699TIP3   OH265511   2.280   2.060   4.402  0.2090  0.4274  0.3922
14699TIP3    H165512   2.220   1.986   4.392  3.7830 -2.4985 -0.3142
14699TIP3    H265513   2.280   2.103   4.317 -0.7703  0.4030  0.3726
14700TIP3   OH265514   6.016   1.148   2.577 -0.2537 -0.4300 -0.6197
14700TIP3    H165515   5.992   1.056   2.563  1.8632 -0.8936 -1.4002
14700TIP3    H265516   6.070   1.148   2.656 -1.0824  0.3003 -0.0416
14701TIP3   OH265517   4.144   6.411  14.957 -0.3095  0.0053  0.2681
14701TIP3    H165518   4.146   6.443  15.048  1.1943 -0.4608  0.4127
14701TIP3    H265519   4.069   6.352  14.954  0.6118 -1.2936  1.6734
14702TIP3   OH265520   4.704   4.911   6.059 -0.4333  0.2719  0.0136
14702TIP3    H165521   4.658   4.969   5.999 -0.6313  0.6244  0.5027
14702TIP3    H265522   4.635   4.861   6.102 -0.3197  0.3290  0.2637
14703TIP3   OH265523   4.779   5.523   0.877 -0.4189  0.2612 -0.6376
14703TIP3    H165524   4.788   5.598   0.936 -0.7186 -0.5203  0.4332
14703TIP3    H265525   4.685   5.503   0.879 -0.0404 -1.6398  1.0411
14704TIP3   OH265526   0.420   5.264   5.402  0.2552  0.5957 -0.2283
14704TIP3    H165527   0.423   5.346   5.451  1.9742  0.4149 -0.0135
14704TIP3    H265528   0.499   5.217   5.428 -0.5735 -1.0176 -0.5546
14705TIP3   OH265529   3.466   2.812  13.523  0.5414 -0.3747 -0.2491
14705TIP3    H165530   3.533   2.803  13.591  1.7508  0.4283 -1.3135
14705TIP3    H265531   3.404   2.742  13.542  1.3898 -0.7963  1.0769
14706TIP3   OH265532   5.216   5.777  12.537 -0.4158  0.2476 -0.1484
14706TIP3    H165533   5.296   5.781  12.485  1.0044  1.9690  2.0773
14706TIP3    H265534   5.187   5.686  12.529  1.3059 -0.2028 -1.6338
14707TIP3   OH265535   4.215   3.017   2.554 -0.2209 -0.4383  0.0812
14707TIP3    H165536   4.227   3.051   2.642 -0.5353 -2.2854  0.8692
14707TIP3    H265537   4.299   3.033   2.510 -0.4675  1.5657  0.3127
14708TIP3   OH265538   4.601   5.365  11.636 -0.0956  0.1231  0.1697
14708TIP3    H165539   4.686   5.331  11.608 -0.4181 -0.0875 -0.5749
14708TIP3    H265540   4.602   5.358  11.731  0.4013 -0.6427  0.1105
14709TIP3   OH265541   0.756   2.268   4.783  0.1113 -0.5802  0.1337
14709TIP3    H165542   0.821   2.293   4.848  0.0912 -0.4013  0.0861
14709TIP3    H265543   0.765   2.333   4.713 -0.0133 -0.6448  0.0570
14710TIP3   OH265544   0.112   0.044  16.858 -0.0670 -0.3964  0.1235
14710TIP3    H165545   0.128   0.032  16.764 -0.6832  3.2425 -0.5402
14710TIP3    H265546   0.195   0.022  16.900  1.1766  0.9554 -1.5927
14711TIP3   OH265547   1.861   3.898   4.445 -1.0018  0.3177 -0.1039
14711TIP3    H165548   1.856   3.988   4.415  1.0927  0.4440 -0.1645
14711TIP3    H265549   1.805   3.849   4.385  0.6454  1.0395 -2.2810
14712TIP3   OH265550   3.137   3.146  14.880 -0.0609 -0.2063 -0.5776
14712TIP3    H165551   3.184   3.111  14.804 -0.9726 -1.3377 -0.6460
14712TIP3    H265552   3.048   3.163  14.847 -0.1745  0.2856 -0.0273
14713TIP3   OH265553   3.165   3.739   0.388  0.1364  0.0838  0.4263
14713TIP3    H165554   3.234   3.702   0.442 -0.0937 -3.0788 -1.3397
14713TIP3    H265555   3.210   3.781   0.315  0.2802 -1.9523 -0.7096
14714TIP3   OH265556   6.708   3.103  16.915 -0.5554  0.5501 -0.3039
14714TIP3    H165557   6.620   3.065  16.909 -0.7806  0.8396  0.9997
14714TIP3    H265558   6.693   3.193  16.945  0.1143  1.0141 -1.3185
14715TIP3   OH265559   6.596   1.374  14.743 -0.1820 -0.0871  0.1921
14715TIP3    H165560   6.587   1.385  14.838 -1.0916 -0.0448  0.0993
14715TIP3    H265561   6.507   1.360  14.711 -0.0298  1.0931 -0.8001
14716TIP3   OH265562   1.723   3.803  11.323 -0.0975 -0.3252  0.3173
14716TIP3    H165563   1.713   3.874  11.259  0.1332 -0.3599  0.2418
14716TIP3    H265564   1.688   3.840  11.405  2.6402  0.9161  0.9923
14717TIP3   OH265565   0.171   4.341  13.310  1.7088 -0.3997  0.0269
14717TIP3    H165566   0.111   4.336  13.236  1.1392  0.6744  0.4034
14717TIP3    H265567   0.207   4.430  13.306 -0.7853  0.8380  2.8955
14718TIP3   OH265568   4.166   4.934  13.241 -0.4023 -0.2222  0.0100
14718TIP3    H165569   4.102   5.005  13.233 -1.9946 -1.4904  1.1525
14718TIP3    H265570   4.180   4.905  13.151  0.8621  2.0122 -0.5649
14719TIP3   OH265571   2.314   4.164   1.042 -0.5228 -0.1665 -0.5417
14719TIP3    H165572   2.337   4.219   0.968 -0.8846  0.2858 -0.3223
14719TIP3    H265573   2.359   4.081   1.026  1.4319  0.7581 -0.0282
14720TIP3   OH265574   4.361   4.230   6.008 -0.1520  0.0589  0.1661
14720TIP3    H165575   4.292   4.269   5.954  0.4339 -0.4426 -0.9830
14720TIP3    H265576   4.325   4.147   6.038 -0.3383  0.1607  0.2239
14721TIP3   OH265577   4.849   1.629  13.462  0.3316 -0.0497  0.1438
14721TIP3    H165578   4.921   1.650  13.402 -1.4272 -0.4572 -2.1614
14721TIP3    H265579   4.797   1.709  13.465  0.5766  0.0821  1.4383
14722TIP3   OH265580   0.644   5.441  12.774  0.2792  0.3380 -0.2205
14722TIP3    H165581   0.688   5.520  12.743 -0.0202 -0.3581 -2.4805
14722TIP3    H265582   0.657   5.442  12.869  1.3078  2.4651 -0.3625
14723TIP3   OH265583   4.654   1.694   3.717  0.4764  0.5197  0.2926
14723TIP3    H165584   4.578   1.636   3.721  0.2922  0.7685  0.4411
14723TIP3    H265585   4.689   1.694   3.806  0.7256  0.3046  0.1936
14724TIP3   OH265586   3.032   3.080   1.628 -0.3985  0.5961 -0.2482
14724TIP3    H165587   3.024   3.174   1.611  0.2555  0.3398 -2.1434
14724TIP3    H265588   2.976   3.039   1.563 -0.9530 -0.3331  0.7986
14725TIP3   OH265589   0.700   3.836   2.877 -0.2621 -0.3110 -0.5084
14725TIP3    H165590   0.694   3.796   2.964 -0.1591 -0.6959 -0.6777
14725TIP3    H265591   0.621   3.809   2.832 -0.0384 -0.5930 -0.7351
14726TIP3   OH265592   6.446   5.356   3.189 -0.0838  0.8127 -0.2260
14726TIP3    H165593   6.437   5.273   3.141  0.5815  1.4695 -1.5108
14726TIP3    H265594   6.414   5.336   3.277 -0.7253 -0.5886 -0.7572
14727TIP3   OH265595   6.035   6.573  11.445 -0.3425  0.6305 -0.1417
14727TIP3    H165596   5.950   6.570  11.488 -0.2608 -1.0657 -0.0578
14727TIP3    H265597   6.046   6.486  11.408  1.3345  0.8439 -0.1862
14728TIP3   OH265598   1.085   0.816  15.270 -0.6536  0.0892 -0.3585
14728TIP3    H165599   1.169   0.853  15.243 -0.4474 -0.8102 -0.9856
14728TIP3    H265600   1.068   0.746  15.206 -1.8967  0.2888 -0.2627
14729TIP3   OH265601   0.134   2.354  15.509 -0.4050  0.7076 -0.4107
14729TIP3    H165602   0.209   2.294  15.516  0.7242  1.9752 -1.2932
14729TIP3    H265603   0.068   2.303  15.463  0.8513  0.3980 -1.9353
14730TIP3   OH265604   6.380   3.379   6.745 -0.0526 -0.4569  0.4266
14730TIP3    H165605   6.439   3.407   6.815  1.0925  1.2806 -1.1829
14730TIP3    H265606   6.437   3.333   6.683 -0.8280 -0.8440 -0.0049
14731TIP3   OH265607   4.927   1.867   3.792  0.2829  0.0491  0.4720
14731TIP3    H165608   4.908   1.779   3.825 -1.2221  0.4730  0.7772
14731TIP3    H265609   4.974   1.910   3.864  1.2768 -0.5937  0.2102
14732TIP3   OH265610   3.711   3.535  13.149  0.5081 -0.5606  0.3856
14732TIP3    H165611   3.679   3.561  13.063 -1.7108  0.1432  1.3912
14732TIP3    H265612   3.739   3.444  13.138 -0.3405 -0.6707 -0.9226
14733TIP3   OH265613   4.156   0.322   5.396 -0.4741 -0.4513 -0.1170
14733TIP3    H165614   4.120   0.242   5.357 -2.0784  0.6221 -0.8516
14733TIP3    H265615   4.113   0.393   5.350 -0.9732  0.8522  2.3039
14734TIP3   OH265616   3.361   0.948   0.479  0.2280 -0.2352 -0.5613
14734TIP3    H165617   3.431   0.927   0.417  0.8972  0.8106 -0.1715
14734TIP3    H265618   3.308   1.014   0.434 -1.0863 -1.7194 -1.2425
14735TIP3   OH265619   1.876   2.913  15.304 -0.1108  0.2300 -0.0365
14735TIP3    H165620   1.810   2.982  15.314 -1.4779 -0.7514 -2.0289
14735TIP3    H265621   1.825   2.832  15.296  1.4076 -0.7662  0.2093
14736TIP3   OH265622   6.106   0.904  11.161  0.2524 -0.6136  0.1416
14736TIP3    H165623   6.045   0.971  11.191  0.8348 -0.2207  0.4717
14736TIP3    H265624   6.137   0.936  11.076  0.5269 -0.4615  0.2967
14737TIP3   OH265625   5.739   2.637   3.678 -0.7725  0.4733  0.0941
14737TIP3    H165626   5.785   2.719   3.659 -1.1093  0.3145 -1.4795
14737TIP3    H265627   5.668   2.662   3.737  1.8464  0.5791  3.3136
14738TIP3   OH265628   3.401   6.558  13.467  0.1482 -0.0555  0.4431
14738TIP3    H165629   3.319   6.510  13.456  1.0578 -1.8814  1.4329
14738TIP3    H265630   3.374   6.648  13.484 -1.6587 -0.6776  0.9481
14739TIP3   OH265631   5.845   0.276   4.664  0.2541  0.4184  0.0042
14739TIP3    H165632   5.899   0.288   4.585  0.3524  0.2386  0.0419
14739TIP3    H265633   5.864   0.352   4.718 -0.4411  0.9562 -0.5018
14740TIP3   OH265634   3.387   0.234   0.396 -0.3864  0.0214 -0.1590
14740TIP3    H165635   3.315   0.256   0.337  0.6197  1.5803 -0.8233
14740TIP3    H265636   3.356   0.156   0.443 -3.4996  2.0042  1.2721
14741TIP3   OH265637   3.904   2.394   5.731  0.0658  0.2081 -0.1539
14741TIP3    H165638   3.961   2.353   5.666 -1.2757 -1.7590 -0.1452
14741TIP3    H265639   3.819   2.351   5.718 -0.7743  1.3478  1.4435
14742TIP3   OH265640   4.944   4.295  12.868 -0.0673  0.4111  0.2430
14742TIP3    H165641   4.926   4.204  12.845  1.3229 -0.2624  1.7132
14742TIP3    H265642   4.897   4.309  12.950 -0.7732  1.2138 -0.2876
14743TIP3   OH265643   6.464   0.978   5.191 -0.1306 -0.1989  0.4260
14743TIP3    H165644   6.520   1.009   5.120  0.3889 -1.8319  0.1041
14743TIP3    H265645   6.376   1.008   5.167 -0.2569 -2.2055 -1.8313
14744TIP3   OH265646   0.410   5.832  15.084 -0.2614 -0.1355 -0.0202
14744TIP3    H165647   0.355   5.881  15.023  0.0218  1.8132  1.2746
14744TIP3    H265648   0.349   5.793  15.146 -0.3056  0.6120  0.4037
14745TIP3   OH265649   3.018   4.856  17.200  0.6739 -0.9705 -0.1737
14745TIP3    H165650   2.965   4.850  17.121  0.6064 -3.0824  0.0119
14745TIP3    H265651   3.005   4.946  17.231 -0.2317 -0.4882 -1.8886
14746TIP3   OH265652   1.289   3.195   2.144 -0.1149  0.1494  0.3623
14746TIP3    H165653   1.369   3.149   2.121  0.1580  0.8270 -0.0605
14746TIP3    H265654   1.263   3.240   2.064  0.1005  1.4171  0.9953
14747TIP3   OH265655   1.717   5.562  12.101  0.4788 -0.2331  0.0865
14747TIP3    H165656   1.778   5.606  12.160  0.3692  0.0664 -0.0211
14747TIP3    H265657   1.757   5.478  12.082  0.2091 -0.5978  1.1060
14748TIP3   OH265658   0.837   0.585   0.298  0.2187 -0.0993 -0.0964
14748TIP3    H165659   0.896   0.563   0.370  0.1660  2.2378  0.6781
14748TIP3    H265660   0.766   0.521   0.304  0.0097  0.3332  2.1418
14749TIP3   OH265661   5.614   6.304   5.097  0.7412  0.3004  0.8769
14749TIP3    H165662   5.545   6.291   5.032  0.3675 -1.1318  1.5416
14749TIP3    H265663   5.594   6.389   5.136  1.5429  1.6231 -1.5474
14750TIP3   OH265664   4.399   4.428  13.249  0.9858 -0.6168  0.2628
14750TIP3    H165665   4.367   4.379  13.324 -1.3222 -0.6791 -0.6977
14750TIP3    H265666   4.451   4.499  13.286  0.4066 -1.0329  1.8889
14751TIP3   OH265667   3.481   6.561  11.824 -0.5952 -0.2217 -0.0200
14751TIP3    H165668   3.418   6.558  11.896 -0.9915 -0.6524 -0.3816
14751TIP3    H265669   3.563   6.590  11.865 -1.2684  1.3150  0.2668
14752TIP3   OH265670   2.329   3.941   2.926 -0.5218 -0.3272  0.3449
14752TIP3    H165671   2.275   4.019   2.933 -0.5825 -0.4406  1.1976
14752TIP3    H265672   2.415   3.973   2.901 -0.4638  0.0535  1.0059
14753TIP3   OH265673   0.502   1.575  11.942 -0.0323 -0.5172  0.3344
14753TIP3    H165674   0.432   1.640  11.937 -0.1191 -0.6397 -0.0242
14753TIP3    H265675   0.579   1.625  11.970 -0.5091 -0.5644  1.7655
14754TIP3   OH265676   4.333   2.248   0.153  0.2333 -0.2438  0.0457
14754TIP3    H165677   4.271   2.308   0.192  1.3973  0.5463  0.7069
14754TIP3    H265678   4.294   2.161   0.165 -1.7547  0.3967 -1.4852
14755TIP3   OH265679   5.251   2.588  13.806  0.7523  0.1029 -0.2088
14755TIP3    H165680   5.187   2.521  13.780 -0.3141  0.5867  1.0967
14755TIP3    H265681   5.213   2.627  13.885  1.8553  1.5619 -0.3956
14756TIP3   OH265682   6.186   6.518  11.857 -0.2661 -0.6303 -0.0146
14756TIP3    H165683   6.246   6.537  11.929  0.9389  0.5347 -1.2737
14756TIP3    H265684   6.105   6.563  11.880  0.1253 -0.2318  0.6033
14757TIP3   OH265685   4.253   2.070   2.028  0.4200  0.6069 -0.1904
14757TIP3    H165686   4.326   2.065   2.090 -1.4082  0.2680  1.9703
14757TIP3    H265687   4.218   1.981   2.024 -1.3826  1.2529  0.6644
14758TIP3   OH265688   3.233   3.724  14.769 -0.3928 -0.1479 -0.1494
14758TIP3    H165689   3.210   3.809  14.808 -0.1837 -0.5906  0.9321
14758TIP3    H265690   3.266   3.672  14.841 -3.9014 -2.4022 -0.0931
14759TIP3   OH265691   4.001   0.772  11.396 -0.4398  0.5873  0.2615
14759TIP3    H165692   3.949   0.697  11.423 -1.9772  1.4065 -0.3864
14759TIP3    H265693   3.964   0.846  11.444  1.6657  0.8121  1.6304
14760TIP3   OH265694   4.575   4.550   2.292  0.2948 -0.7369  0.5294
14760TIP3    H165695   4.666   4.545   2.263 -0.3898 -2.0096 -1.4857
14760TIP3    H265696   4.576   4.615   2.361  2.4266  0.6247 -0.7216
14761TIP3   OH265697   0.041   1.698  13.781 -0.1594  0.6970  0.2562
14761TIP3    H165698   0.121   1.667  13.822  0.0204 -2.6022 -2.4228
14761TIP3    H265699  -0.027   1.683  13.848  0.9836  0.9263  1.4962
14762TIP3   OH265700   0.906   5.240  10.864  0.0871 -0.1361  0.7552
14762TIP3    H165701   0.868   5.253  10.777  0.8431  0.3948  0.4996
14762TIP3    H265702   0.995   5.212  10.848  0.1588 -0.2709  1.3639
14763TIP3   OH265703   3.985   1.310   2.076  0.1609 -0.1723  0.1667
14763TIP3    H165704   3.951   1.350   2.157  0.1466 -1.2551  0.7035
14763TIP3    H265705   3.910   1.308   2.017 -0.0117 -0.0535  0.3808
14764TIP3   OH265706   4.260   0.938   2.514  0.1826  0.4021 -0.0805
14764TIP3    H165707   4.199   1.004   2.546 -0.6274 -0.5237  0.2876
14764TIP3    H265708   4.328   0.933   2.582  1.4153  2.3972 -1.1204
14765TIP3   OH265709   1.429   0.533  14.234 -0.4999  0.0600 -0.3882
14765TIP3    H165710   1.411   0.593  14.306 -1.0009 -0.0601 -0.4126
14765TIP3    H265711   1.508   0.568  14.193 -0.9374  0.8446 -0.5612
14766TIP3   OH265712   4.952   2.382  16.318  0.8358 -0.3505 -0.3764
14766TIP3    H165713   4.948   2.338  16.403 -0.6454 -0.8743 -0.6970
14766TIP3    H265714   4.943   2.311  16.255 -5.9429  0.6111 -0.9092
14767TIP3   OH265715   4.571   1.394   4.077 -0.0070  0.4289  0.0512
14767TIP3    H165716   4.622   1.337   4.019  0.2727 -1.6969  2.3079
14767TIP3    H265717   4.636   1.444   4.126 -0.1214 -0.2786  0.9495
14768TIP3   OH265718   6.131   0.283  10.427 -0.1910  0.2400 -0.3281
14768TIP3    H165719   6.038   0.267  10.409  0.1336 -0.4682 -1.3931
14768TIP3    H265720   6.176   0.255  10.348  0.9927  0.0217  0.4091
14769TIP3   OH265721   5.688   0.700   4.806 -0.3467 -0.0381 -0.2707
14769TIP3    H165722   5.696   0.743   4.721 -0.4861 -1.4455 -1.0185
14769TIP3    H265723   5.598   0.719   4.834  0.1646  1.6535  0.2594
14770TIP3   OH265724   5.810   5.100   5.121 -0.0246  0.4297  0.0389
14770TIP3    H165725   5.825   5.189   5.155  1.3659 -0.4989  1.9187
14770TIP3    H265726   5.895   5.072   5.088 -0.5655 -0.0430 -0.9744
14771TIP3   OH265727   3.445   0.789  12.620 -0.2916 -0.1198 -0.1311
14771TIP3    H165728   3.517   0.748  12.667  0.4081 -0.7394 -1.7228
14771TIP3    H265729   3.408   0.719  12.566 -1.2290  0.5216 -0.3395
14772TIP3   OH265730   0.748   6.255   2.583  1.0310 -0.3738  0.3962
14772TIP3    H165731   0.746   6.160   2.596 -2.3350 -0.3427  0.6351
14772TIP3    H265732   0.744   6.266   2.488  1.2377 -0.4614  0.3768
14773TIP3   OH265733   1.262   0.324  12.579  0.2118  0.2647  0.2772
14773TIP3    H165734   1.278   0.289  12.667  0.5276  1.9532  0.9236
14773TIP3    H265735   1.169   0.350  12.580  0.8848  2.8390  1.0929
14774TIP3   OH265736   6.349   3.075  14.912  0.1348  0.1018 -0.5310
14774TIP3    H165737   6.364   3.088  15.005  0.4343 -1.4438 -0.3472
14774TIP3    H265738   6.341   2.980  14.902  0.3540  0.2326 -2.1075
14775TIP3   OH265739   6.148   0.350  14.891 -0.0150 -0.3271 -0.5179
14775TIP3    H165740   6.158   0.337  14.985 -0.8363  0.8045 -0.2741
14775TIP3    H265741   6.054   0.345  14.875  0.0408  0.4772 -1.1318
14776TIP3   OH265742   4.073   3.259   4.069  0.0065 -0.0194 -0.2874
14776TIP3    H165743   4.138   3.325   4.045  1.3470 -1.0541  0.4461
14776TIP3    H265744   4.027   3.240   3.987  1.9401 -0.6784 -1.2664
14777TIP3   OH265745   4.936   4.165   4.150  0.1641  0.3801  0.7597
14777TIP3    H165746   4.926   4.077   4.186 -0.0642 -0.3050 -0.9260
14777TIP3    H265747   4.869   4.216   4.194  0.2442 -0.3011  1.6972
14778TIP3   OH265748   2.968   1.631  14.492 -0.4814 -0.1541  0.3247
14778TIP3    H165749   2.982   1.704  14.432 -0.2055  0.6995  1.4264
14778TIP3    H265750   2.954   1.556  14.434 -1.4662  0.8844 -0.8196
14779TIP3   OH265751   1.625   2.713  11.576  0.1976  0.4574 -1.0252
14779TIP3    H165752   1.676   2.690  11.654 -2.4491  0.0684  0.6560
14779TIP3    H265753   1.608   2.807  11.585 -0.2237  0.3870 -1.0653
14780TIP3   OH265754   1.345   2.212  12.495  0.3743  0.8759  0.2745
14780TIP3    H165755   1.433   2.248  12.507  0.8610  0.3987 -1.6131
14780TIP3    H265756   1.318   2.245  12.409 -0.5351 -0.5101  0.0163
14781TIP3   OH265757   0.601   4.131  14.860 -0.5091 -0.3324 -0.0362
14781TIP3    H165758   0.609   4.224  14.839 -1.3483 -0.1215  0.5637
14781TIP3    H265759   0.531   4.126  14.925 -1.9975 -1.6205 -1.6864
14782TIP3   OH265760   2.353   1.888  14.991  0.0838 -0.2622  0.4883
14782TIP3    H165761   2.292   1.840  15.046  0.0682 -0.4821  0.2801
14782TIP3    H265762   2.302   1.959  14.952 -0.4083 -1.3364 -0.8674
14783TIP3   OH265763   0.968   5.740   2.439 -0.1959 -0.1587 -0.1645
14783TIP3    H165764   1.019   5.806   2.391 -1.3680  0.1098 -1.0622
14783TIP3    H265765   1.027   5.665   2.448  0.4493  0.2512 -0.9373
14784TIP3   OH265766   3.102   1.722  11.040 -0.3271  0.0426  0.0935
14784TIP3    H165767   3.193   1.750  11.047 -0.6369  0.8639  0.9227
14784TIP3    H265768   3.083   1.722  10.946  0.9892 -1.6399 -0.1970
14785TIP3   OH265769   6.539   1.183   2.495  0.0627  0.3242  0.2736
14785TIP3    H165770   6.593   1.223   2.563  1.1052 -0.4212 -0.1207
14785TIP3    H265771   6.452   1.222   2.509  0.5299  1.0314  1.3102
14786TIP3   OH265772   3.913   0.104  12.069  0.6324  0.0263  0.6919
14786TIP3    H165773   3.935   0.165  11.998 -3.1099  1.6092  0.7792
14786TIP3    H265774   3.884   0.160  12.141  0.1545 -1.7608  1.9233
14787TIP3   OH265775   5.432   5.659   4.983 -0.2643 -0.7787  0.2377
14787TIP3    H165776   5.352   5.613   4.956 -0.4774 -0.3750  0.1779
14787TIP3    H265777   5.441   5.730   4.920  1.0599 -1.8133 -0.7594
14788TIP3   OH265778   2.196   5.726  12.136 -0.5820  0.1169 -0.5891
14788TIP3    H165779   2.209   5.631  12.134 -1.7996 -0.0538 -0.4969
14788TIP3    H265780   2.285   5.762  12.134 -0.0534 -1.0466  0.7019
14789TIP3   OH265781   1.925   4.747   5.966  0.2145  0.5128 -0.1952
14789TIP3    H165782   1.841   4.713   5.935 -0.2734  0.4992  1.1251
14789TIP3    H265783   1.913   4.760   6.060  2.0154 -0.4985  0.2153
14790TIP3   OH265784   1.294   1.068   1.814 -0.1917 -0.1767 -0.1567
14790TIP3    H165785   1.301   1.061   1.909  1.9023  0.3736 -0.2469
14790TIP3    H265786   1.218   1.125   1.799 -1.2843 -1.2650  1.1362
14791TIP3   OH265787   0.070   4.526   5.651  0.6934  0.3432 -0.1326
14791TIP3    H165788   0.110   4.462   5.710 -0.0971  0.5391  0.6298
14791TIP3    H265789   0.106   4.610   5.678 -0.1220  0.5057  0.4803
14792TIP3   OH265790   5.363   0.599   2.721 -0.3682 -0.3103  0.2260
14792TIP3    H165791   5.458   0.588   2.716 -0.5637 -1.8267 -0.6899
14792TIP3    H265792   5.351   0.686   2.757  1.3790 -0.4122  1.1466
14793TIP3   OH265793   1.385   3.821  11.259 -0.0929  0.2235  0.0829
14793TIP3    H165794   1.422   3.898  11.217  0.5201  1.2777  2.4922
14793TIP3    H265795   1.419   3.747  11.208  1.1471  1.4266 -0.8652
14794TIP3   OH265796   1.776   2.627   0.211 -0.0394  0.1528  0.0737
14794TIP3    H165797   1.815   2.562   0.270 -0.5602 -1.1234 -0.9598
14794TIP3    H265798   1.844   2.693   0.200  0.3783 -0.0350  1.4104
14795TIP3   OH265799   4.669   2.211   3.407  0.3653 -0.4130 -0.3227
14795TIP3    H165800   4.693   2.121   3.429  2.7908  0.1148 -0.7303
14795TIP3    H265801   4.717   2.231   3.327  1.0839  1.7661  0.6096
14796TIP3   OH265802   6.709   3.200  16.308 -0.1679  0.3057  0.0732
14796TIP3    H165803   6.721   3.105  16.304  1.4643  0.4427  1.1740
14796TIP3    H265804   6.658   3.213  16.388 -0.8791  0.3154 -0.3835
14797TIP3   OH265805   6.239   4.436  12.805 -0.0856 -0.5908  0.1877
14797TIP3    H165806   6.167   4.419  12.745 -0.0046 -0.7567  0.1393
14797TIP3    H265807   6.208   4.405  12.890 -0.7228  0.8567  0.5052
14798TIP3   OH265808   2.380   1.266  16.771  0.4813 -0.0801 -0.2682
14798TIP3    H165809   2.334   1.335  16.724  0.2744  0.1754  0.3073
14798TIP3    H265810   2.365   1.285  16.864 -2.8886 -3.0781 -0.1135
14799TIP3   OH265811   4.571   3.888  14.006 -0.0938 -0.3987  0.2989
14799TIP3    H165812   4.528   3.972  13.989  0.5900 -0.1397 -0.1974
14799TIP3    H265813   4.665   3.907  13.996  0.0372 -1.3299 -0.3169
14800TIP3   OH265814   5.311   4.397  15.904  0.0087  0.3426  0.2561
14800TIP3    H165815   5.223   4.434  15.913  0.2880  0.8584  0.9518
14800TIP3    H265816   5.367   4.455  15.956  0.8808  0.4226 -0.7562
14801TIP3   OH265817   5.273   1.896   3.859  0.1232  0.2658  0.1935
14801TIP3    H165818   5.336   1.952   3.905 -0.9958  0.5510  1.3919
14801TIP3    H265819   5.231   1.955   3.796  3.5498 -0.7094 -3.1757
14802TIP3   OH265820   2.229   5.656  11.720 -0.1846  0.3800 -0.4517
14802TIP3    H165821   2.143   5.615  11.713 -0.4443  0.9555 -0.7210
14802TIP3    H265822   2.214   5.747  11.692  0.5936  0.3753 -0.9013
14803TIP3   OH265823   4.680   4.091   3.689  0.0780  0.3005 -0.1825
14803TIP3    H165824   4.768   4.100   3.652 -0.3845  1.9492 -0.8878
14803TIP3    H265825   4.633   4.037   3.626  0.5051 -0.4156  0.0982
14804TIP3   OH265826   2.608   1.798   4.870  0.1715 -0.3576  0.3631
14804TIP3    H165827   2.546   1.859   4.829  0.4027  1.0737  2.0804
14804TIP3    H265828   2.693   1.823   4.832  0.0697 -0.5202  0.0287
14805TIP3   OH265829   4.027   3.921   1.930  0.3932  0.1200  0.0664
14805TIP3    H165830   4.020   4.014   1.951  0.2092 -0.2170  1.5068
14805TIP3    H265831   4.024   3.876   2.014 -1.3536 -1.3167 -0.7238
14806TIP3   OH265832   2.605   3.334  14.197  0.1227  0.3587 -0.1991
14806TIP3    H165833   2.536   3.271  14.179 -1.8461  1.6526  2.4390
14806TIP3    H265834   2.676   3.282  14.234 -0.4158 -0.6834 -0.6232
14807TIP3   OH265835   4.781   0.030  14.171 -0.1430 -0.2126 -0.5678
14807TIP3    H165836   4.849  -0.035  14.184  0.2931  0.2805 -0.3912
14807TIP3    H265837   4.702  -0.010  14.209  0.1193 -0.6368 -0.4674
14808TIP3   OH265838   3.707   2.642  16.174 -0.4627 -0.1827 -0.4540
14808TIP3    H165839   3.792   2.617  16.210 -0.6720 -0.9700 -0.4964
14808TIP3    H265840   3.715   2.625  16.080 -0.5319  0.1260 -0.5160
14809TIP3   OH265841   4.986   6.008   3.718 -0.2967  0.4192 -0.0968
14809TIP3    H165842   4.936   6.054   3.650 -0.7001  1.1115  0.6628
14809TIP3    H265843   5.066   6.060   3.728  0.6058 -0.6975 -1.3239
14810TIP3   OH265844   0.205   1.547  10.800 -0.4419  0.3189 -0.0353
14810TIP3    H165845   0.293   1.508  10.802 -0.0453  1.1549 -0.7049
14810TIP3    H265846   0.171   1.522  10.714 -0.8675 -0.0047  0.2278
14811TIP3   OH265847   5.112   2.849  12.824 -0.1677 -0.1600  0.2137
14811TIP3    H165848   5.191   2.822  12.776 -1.5801 -1.3173 -1.5119
14811TIP3    H265849   5.053   2.774  12.816 -1.1554  0.3772  2.1981
14812TIP3   OH265850   2.809   3.805   1.130 -0.0722 -0.5155  0.4351
14812TIP3    H165851   2.800   3.771   1.218  1.7542  1.7649  1.5637
14812TIP3    H265852   2.847   3.733   1.079  0.0580 -1.4274  1.8176
14813TIP3   OH265853   3.400   6.326   3.750 -0.3479  0.7092 -0.3408
14813TIP3    H165854   3.338   6.286   3.811  0.3784  0.8192  0.4747
14813TIP3    H265855   3.469   6.261   3.739  0.2899  1.2903  0.1455
14814TIP3   OH265856   3.310   5.815   4.923 -0.0810 -0.3003  0.7026
14814TIP3    H165857   3.280   5.769   5.001  0.2389 -0.3488  0.7984
14814TIP3    H265858   3.405   5.809   4.927  0.0136  1.2980  1.3010
14815TIP3   OH265859   0.763   1.435   3.262  0.5494 -0.4620 -0.5576
14815TIP3    H165860   0.677   1.395   3.243 -0.2822  0.5126  1.0558
14815TIP3    H265861   0.794   1.389   3.339  0.1894  1.0821  0.5256
14816TIP3   OH265862   4.436   1.218   0.696 -0.2175  0.1590 -0.2399
14816TIP3    H165863   4.419   1.254   0.783 -4.2632  0.9392 -1.2365
14816TIP3    H265864   4.465   1.128   0.713 -0.5276  0.4362  1.9421
14817TIP3   OH265865   6.699   5.788   2.664 -0.2269  0.0103 -0.1127
14817TIP3    H165866   6.748   5.852   2.716  0.7633  1.5654 -2.8397
14817TIP3    H265867   6.621   5.836   2.635 -0.3957 -0.6019 -0.6857
14818TIP3   OH265868   1.651   3.363  16.885 -0.3950  0.1550 -0.1081
14818TIP3    H165869   1.679   3.343  16.975  1.0868 -0.1435 -0.6246
14818TIP3    H265870   1.584   3.299  16.866  1.8113 -2.1285 -0.4739
14819TIP3   OH265871   0.609   5.817   3.034  0.5408 -0.0781  0.0376
14819TIP3    H165872   0.525   5.861   3.046 -0.0226 -0.9690 -0.6052
14819TIP3    H265873   0.609   5.747   3.099  0.4519 -0.5462 -0.4559
14820TIP3   OH265874   4.073   6.191  16.809 -0.0394  0.2396 -0.1807
14820TIP3    H165875   4.009   6.176  16.739 -0.0256  0.6641 -0.2836
14820TIP3    H265876   4.158   6.171  16.768 -0.2481 -2.2239  0.5044
14821TIP3   OH265877   4.312   5.776   3.078  0.0228  0.4129 -0.4196
14821TIP3    H165878   4.346   5.751   2.992 -0.0301  1.7836 -0.8370
14821TIP3    H265879   4.217   5.768   3.069  0.0484 -0.1655 -0.2493
14822TIP3   OH265880   1.115   2.226  14.262  0.6773 -0.6257 -0.1939
14822TIP3    H165881   1.158   2.142  14.249  1.0769 -0.5280  0.4680
14822TIP3    H265882   1.180   2.280  14.307 -0.6448 -0.9682  2.2494
14823TIP3   OH265883   3.980   3.839  12.621  0.5154  0.7570 -0.3037
14823TIP3    H165884   3.985   3.894  12.543 -2.0476  1.3209 -0.1294
14823TIP3    H265885   3.957   3.900  12.692 -2.3505 -0.4750 -0.1088
14824TIP3   OH265886   6.221   3.811   1.586  0.1918  0.6194  0.2607
14824TIP3    H165887   6.291   3.782   1.645  0.8542 -0.4396 -1.0149
14824TIP3    H265888   6.146   3.824   1.643  1.4909  2.0324  1.7010
14825TIP3   OH265889   4.841   4.957   1.607 -0.0925  0.2946 -0.3353
14825TIP3    H165890   4.789   5.028   1.644  0.0469  0.1092  0.2381
14825TIP3    H265891   4.779   4.904   1.558 -0.1503  0.9519 -0.9753
14826TIP3   OH265892   5.352   4.170   2.474 -0.1868 -0.6260 -0.2878
14826TIP3    H165893   5.302   4.196   2.552  0.9481  0.9624 -0.0726
14826TIP3    H265894   5.347   4.246   2.416  0.2553 -1.2334 -1.1191
14827TIP3   OH265895   0.792   4.805   3.492 -0.0500 -0.1141 -0.3727
14827TIP3    H165896   0.759   4.716   3.506 -3.5437  1.0520 -0.5506
14827TIP3    H265897   0.835   4.828   3.575  1.2386 -2.0772 -0.4732
14828TIP3   OH265898   1.145   4.194   4.272 -0.4390  0.4464  0.1049
14828TIP3    H165899   1.151   4.264   4.207  3.1809  0.5610  0.4802
14828TIP3    H265900   1.093   4.126   4.229 -0.5777  1.7086 -1.7761
14829TIP3   OH265901   5.041   6.769   5.985  0.8324 -0.1524 -0.1092
14829TIP3    H165902   5.107   6.762   6.054 -0.2886 -3.3416  0.7457
14829TIP3    H265903   4.962   6.797   6.030  0.8123  0.6841 -0.6385
14830TIP3   OH265904   3.164   6.179  14.919  0.3394  0.3920  0.2769
14830TIP3    H165905   3.138   6.271  14.924  1.2794  0.6760  0.0610
14830TIP3    H265906   3.211   6.163  15.001  0.7611  0.2899  0.0155
14831TIP3   OH265907   3.395   0.482   1.340 -0.3783 -0.4579 -0.7001
14831TIP3    H165908   3.328   0.415   1.333 -0.5744 -0.5256  1.5870
14831TIP3    H265909   3.478   0.435   1.330 -0.5692 -0.7855 -0.7248
14832TIP3   OH265910   3.173   0.927   6.404 -0.0107  0.3892 -0.3242
14832TIP3    H165911   3.103   0.897   6.346  0.6253 -1.1541 -0.2874
14832TIP3    H265912   3.205   1.007   6.363 -0.3742 -0.0375 -1.4567
14833TIP3   OH265913   5.811   5.732   0.784  0.4431  0.0081  0.1069
14833TIP3    H165914   5.887   5.773   0.743  0.9172 -0.4955  0.4725
14833TIP3    H265915   5.822   5.748   0.877 -1.6473  2.8557 -0.0933
14834TIP3   OH265916   5.636   5.951  11.089  0.2552  0.1280  0.0402
14834TIP3    H165917   5.564   6.015  11.084 -0.0487 -0.1723  0.4874
14834TIP3    H265918   5.711   5.997  11.053 -0.1944  0.4001 -0.5572
14835TIP3   OH265919   6.766   0.109   2.824 -0.4383  0.3403  0.4305
14835TIP3    H165920   6.806   0.177   2.769  3.3371 -3.2031 -1.4856
14835TIP3    H265921   6.823   0.104   2.901  0.3047 -1.7058 -0.2206
14836TIP3   OH265922   5.590   3.924  15.077  0.2294  0.6921  0.4643
14836TIP3    H165923   5.572   4.008  15.120  1.0823  0.4132  1.4178
14836TIP3    H265924   5.575   3.859  15.146 -2.0796 -0.0773 -0.7516
14837TIP3   OH265925   1.740   6.558  10.970 -0.3721  0.1288 -0.1274
14837TIP3    H165926   1.689   6.479  10.988  0.0371  0.2181  1.4929
14837TIP3    H265927   1.740   6.564  10.874  1.6050 -3.1637 -0.4178
14838TIP3   OH265928   6.581   2.356  15.474  0.6220 -0.6441 -0.6927
14838TIP3    H165929   6.578   2.435  15.420  2.1733 -0.7697 -0.9714
14838TIP3    H265930   6.493   2.318  15.466 -0.2624  1.2468 -0.2518
14839TIP3   OH265931   4.974   2.419   3.682  0.1741  0.3345  0.1454
14839TIP3    H165932   4.896   2.406   3.629 -0.6451  1.9529  0.9538
14839TIP3    H265933   5.004   2.330   3.703 -1.8779 -0.2935  0.4753
14840TIP3   OH265934   1.301   1.794   5.570 -0.8331 -0.2784  0.2827
14840TIP3    H165935   1.320   1.883   5.600 -1.9286  0.3414 -0.8029
14840TIP3    H265936   1.313   1.739   5.647  1.3064  0.6138  0.6203
14841TIP3   OH265937   1.171   5.123  17.112  0.0249 -0.4297  0.1965
14841TIP3    H165938   1.239   5.115  17.045  0.2655 -0.7765  0.4876
14841TIP3    H265939   1.218   5.131  17.194 -0.2127  2.2580  0.1196
14842TIP3   OH265940   2.291   3.276   5.137 -0.1967  0.7216 -0.0964
14842TIP3    H165941   2.291   3.350   5.197  1.6421 -0.5204  1.4775
14842TIP3    H265942   2.276   3.200   5.193  0.2074 -0.3293 -1.3888
14843TIP3   OH265943   4.971   3.910   1.950  0.2090  0.5257 -0.4757
14843TIP3    H165944   5.000   3.839   2.008 -0.7977 -0.3218 -0.9915
14843TIP3    H265945   5.027   3.902   1.873  1.0891  1.2233  0.0879
14844TIP3   OH265946   3.838   3.198  17.066  0.0505  0.3984  0.0150
14844TIP3    H165947   3.839   3.120  17.121  2.0877  0.0516 -0.4590
14844TIP3    H265948   3.921   3.242  17.086  0.1041  1.0685 -1.6063
14845TIP3   OH265949   1.949   5.030   5.890  0.0794 -0.2180 -0.0428
14845TIP3    H165950   1.992   4.947   5.912 -3.5747 -2.1840 -0.0467
14845TIP3    H265951   1.962   5.085   5.967  0.1458 -1.7876  1.0766
14846TIP3   OH265952   0.136   4.786  14.591 -0.2390  0.0012  0.1979
14846TIP3    H165953   0.190   4.860  14.563  0.8238 -0.8949 -0.1608
14846TIP3    H265954   0.057   4.827  14.626  0.8209  1.3755  1.0995
14847TIP3   OH265955   4.862   4.208   5.720 -0.1391 -0.0219 -0.2377
14847TIP3    H165956   4.933   4.193   5.782  0.3817  1.1270 -0.5557
14847TIP3    H265957   4.782   4.199   5.772  0.2195 -1.4921  0.0820
14848TIP3   OH265958   3.006   3.161  11.433 -0.3129  0.5176 -0.3384
14848TIP3    H165959   2.963   3.140  11.516 -0.9322  3.3718  0.1044
14848TIP3    H265960   3.089   3.113  11.437 -1.4372 -1.4159  0.7863
14849TIP3   OH265961   0.959   1.153   4.457 -0.1269  0.1278 -0.0780
14849TIP3    H165962   1.049   1.130   4.437 -0.5513 -0.0995 -1.7584
14849TIP3    H265963   0.962   1.183   4.548  1.9965  2.0123 -0.7165
14850TIP3   OH265964   2.653   4.539  14.511 -0.2581 -0.1254 -0.1298
14850TIP3    H165965   2.600   4.619  14.519 -0.6018 -0.5297  1.8025
14850TIP3    H265966   2.718   4.560  14.444 -1.0484  1.3941 -0.4360
14851TIP3   OH265967   3.303   3.306   1.086 -0.1616  0.0179 -0.1491
14851TIP3    H165968   3.337   3.226   1.045 -1.2674 -0.5375 -0.0162
14851TIP3    H265969   3.312   3.373   1.019 -0.9501 -0.6395 -0.9249
14852TIP3   OH265970   4.109   3.609   3.159 -0.4344  0.5350  0.2920
14852TIP3    H165971   4.169   3.661   3.212  0.6605  0.4957 -0.8832
14852TIP3    H265972   4.029   3.661   3.154 -0.9613  0.0726  2.8444
14853TIP3   OH265973   0.758   0.497   5.374 -0.0928  0.4330  0.0009
14853TIP3    H165974   0.809   0.531   5.301 -0.5540 -0.5028 -0.7794
14853TIP3    H265975   0.818   0.439   5.420 -0.5585 -1.1061 -1.2403
14854TIP3   OH265976   4.810   4.043  16.205  0.3329 -0.4324 -0.2662
14854TIP3    H165977   4.719   4.013  16.202  0.5781 -1.2765  0.6987
14854TIP3    H265978   4.805   4.133  16.239 -0.0234 -0.9611  1.0843
14855TIP3   OH265979   5.560   3.516   2.502  0.3366 -0.2765 -0.1389
14855TIP3    H165980   5.549   3.556   2.588  0.0309  0.7337 -0.6452
14855TIP3    H265981   5.644   3.549   2.471  0.1598 -0.1532 -0.4902
14856TIP3   OH265982   1.490   5.135  14.382 -0.5281  0.7066  0.6126
14856TIP3    H165983   1.461   5.067  14.443  0.5507 -0.1973  0.1409
14856TIP3    H265984   1.446   5.115  14.300 -0.1742  0.5395  0.4597
14857TIP3   OH265985   1.045   5.052  14.148  0.2057  0.2116 -0.4406
14857TIP3    H165986   0.959   5.070  14.110  0.3447  2.3569  0.1492
14857TIP3    H265987   1.107   5.086  14.083  0.5512  0.3236 -0.0557
14858TIP3   OH265988   3.321   1.937   0.960 -0.1718 -0.5139 -0.5602
14858TIP3    H165989   3.363   2.019   0.987  1.5145 -0.9799 -1.6420
14858TIP3    H265990   3.244   1.964   0.912  0.5185  0.4613 -1.1394
14859TIP3   OH265991   1.688   3.429  11.805 -0.1652  0.7411 -0.3322
14859TIP3    H165992   1.619   3.492  11.783  0.6589  0.7151 -3.1746
14859TIP3    H265993   1.651   3.344  11.781  0.3770  0.6064 -0.6974
14860TIP3   OH265994   0.484   6.751  13.816  0.7187 -0.1847 -0.0876
14860TIP3    H165995   0.419   6.774  13.882 -0.2369  1.6243 -1.6357
14860TIP3    H265996   0.554   6.707  13.865  1.2901  3.4922  2.5626
14861TIP3   OH265997   5.068   5.205   4.355  0.4810  0.5891 -0.3284
14861TIP3    H165998   5.030   5.261   4.288  2.5727  0.7872 -1.3654
14861TIP3    H265999   5.060   5.116   4.319 -0.0835  0.5036 -0.0057
14862TIP3   OH266000   2.304   2.830   2.218  0.7441  0.4458 -0.5465
14862TIP3    H166001   2.344   2.766   2.277 -0.9248  0.9809  1.2337
14862TIP3    H266002   2.319   2.795   2.130 -0.6453 -2.7200  0.4090
14863TIP3   OH266003   4.626   0.774   2.473  0.2056 -0.1003 -0.1620
14863TIP3    H166004   4.566   0.804   2.405 -0.0930  2.1084  1.0155
14863TIP3    H266005   4.592   0.689   2.500 -1.3302  0.2926 -0.7959
14864TIP3   OH266006   2.920   0.327   3.680  0.3567  0.0147  0.1518
14864TIP3    H166007   3.007   0.331   3.640  0.6123 -0.3188  0.6663
14864TIP3    H266008   2.918   0.403   3.739 -0.5899  1.3871 -1.6165
14865TIP3   OH266009   3.256   3.439   2.238 -0.1925 -0.9575 -0.3004
14865TIP3    H166010   3.276   3.348   2.261 -1.1263 -1.1244 -0.1355
14865TIP3    H266011   3.294   3.450   2.151 -1.3855 -1.9742 -0.9794
14866TIP3   OH266012   6.546   4.260   5.674  0.0133 -0.5291  0.0289
14866TIP3    H166013   6.512   4.229   5.590 -1.5102  1.1944 -0.0112
14866TIP3    H266014   6.479   4.236   5.738 -0.5136  1.3685  0.2029
14867TIP3   OH266015   2.675   1.572   5.903  0.3181 -0.0401  0.1385
14867TIP3    H166016   2.604   1.586   5.966  0.5532 -1.4030  0.7187
14867TIP3    H266017   2.752   1.559   5.958  0.6830 -0.3850 -0.4600
14868TIP3   OH266018   1.866   5.888  17.194 -0.2532  0.2732  0.1962
14868TIP3    H166019   1.883   5.797  17.170  1.0912  0.6730 -0.4771
14868TIP3    H266020   1.783   5.886  17.241 -1.3611 -0.9808 -1.7817
14869TIP3   OH266021   4.264   5.291  13.821 -0.3119  0.3241 -0.0500
14869TIP3    H166022   4.298   5.376  13.849  0.6170 -0.6457  1.8976
14869TIP3    H266023   4.209   5.263  13.895  0.5840 -1.4202 -0.0297
14870TIP3   OH266024   2.818   5.197  14.816 -0.2950 -0.6155  0.0457
14870TIP3    H166025   2.861   5.223  14.897  2.3248  0.0879 -1.5048
14870TIP3    H266026   2.801   5.103  14.827  0.8961 -0.7276  1.0369
14871TIP3   OH266027   5.180   4.288   4.182 -0.0033  0.5793  0.5813
14871TIP3    H166028   5.152   4.339   4.106 -0.6936  1.0077  1.1249
14871TIP3    H266029   5.105   4.232   4.202  0.6510 -0.4707  0.1469
14872TIP3   OH266030   1.033   1.630  11.714  0.6405 -0.3200  0.1555
14872TIP3    H166031   1.018   1.540  11.743  2.4090 -0.4081  0.8383
14872TIP3    H266032   1.055   1.622  11.621 -0.7989 -0.4268 -0.1932
14873TIP3   OH266033   4.304   0.422  12.604 -0.0865  0.1857 -0.0987
14873TIP3    H166034   4.356   0.352  12.565  0.3056  0.4111  0.0194
14873TIP3    H266035   4.234   0.376  12.651 -0.3913 -0.0951 -0.8190
14874TIP3   OH266036   0.567   4.204  16.122  0.2403 -0.0136 -0.2454
14874TIP3    H166037   0.483   4.179  16.161  0.8612 -2.1102 -0.1735
14874TIP3    H266038   0.543   4.254  16.044 -1.0241  2.4641  1.6636
14875TIP3   OH266039   0.983   1.219  11.241 -0.6027  0.8476  0.3068
14875TIP3    H166040   0.888   1.207  11.238 -0.3066 -1.2441 -1.9737
14875TIP3    H266041   1.005   1.260  11.158  0.6949 -0.5156 -0.0458
14876TIP3   OH266042   5.458   4.947   5.218  0.0783 -0.3552  0.4399
14876TIP3    H166043   5.365   4.930   5.204 -0.1588  1.4963 -0.4061
14876TIP3    H266044   5.501   4.908   5.142 -0.3515  1.6320 -0.8809
14877TIP3   OH266045   3.030   2.610   5.414 -0.5604 -0.3210  0.0799
14877TIP3    H166046   3.001   2.536   5.468 -0.7202 -0.3890 -0.0976
14877TIP3    H266047   2.990   2.687   5.454  0.0890 -0.2560  0.6223
14878TIP3   OH266048   2.497   3.574   0.344 -0.0213 -0.5765  0.0082
14878TIP3    H166049   2.522   3.505   0.406  2.2779  0.5644  0.3876
14878TIP3    H266050   2.428   3.622   0.389  0.9716 -0.3502  1.3171
14879TIP3   OH266051   5.172   0.231  11.431  0.3444  0.3121  0.8813
14879TIP3    H166052   5.214   0.296  11.488  0.1096 -0.6694  2.1838
14879TIP3    H266053   5.078   0.247  11.443  0.2558  2.2738 -1.7597
14880TIP3   OH266054   2.006   2.900   4.654 -0.2547  0.4616 -0.6930
14880TIP3    H166055   2.037   2.984   4.688 -0.7667  1.2052 -2.0061
14880TIP3    H266056   2.081   2.841   4.663  0.4222  1.3220 -0.6380
14881TIP3   OH266057   1.098   6.294   4.124 -0.3331  0.5062  0.2519
14881TIP3    H166058   1.101   6.382   4.087 -1.0485  0.7651  0.7910
14881TIP3    H266059   1.042   6.303   4.201  1.4552  0.0797  1.6496
14882TIP3   OH266060   4.342   4.391   6.607  0.3149  0.0658 -0.0822
14882TIP3    H166061   4.279   4.461   6.592 -1.0066 -0.9144  0.7732
14882TIP3    H266062   4.328   4.329   6.536 -0.6929 -0.8497  0.8941
14883TIP3   OH266063   1.358   3.487   3.315  0.1151 -0.2976  0.0800
14883TIP3    H166064   1.390   3.399   3.301 -0.6791 -0.4744 -0.6701
14883TIP3    H266065   1.374   3.533   3.232 -2.1318 -0.5797 -0.5426
14884TIP3   OH266066   2.099   6.758  17.005 -0.3779 -0.0841  0.3027
14884TIP3    H166067   2.045   6.721  17.076 -0.9689  0.3518  0.0859
14884TIP3    H266068   2.177   6.792  17.049 -1.2225  1.1389  0.8791
14885TIP3   OH266069   4.968   5.069   3.139 -0.4290  0.0124 -0.0428
14885TIP3    H166070   4.958   4.974   3.145  3.0655 -0.3491  1.3895
14885TIP3    H266071   5.015   5.083   3.057 -2.2635  0.6533 -0.9987
14886TIP3   OH266072   4.150   2.095  13.413  0.1116 -0.2485 -0.1660
14886TIP3    H166073   4.103   2.125  13.335  0.3513 -1.1385 -0.6583
14886TIP3    H266074   4.107   2.139  13.485  0.1094  0.8594 -0.8339
14887TIP3   OH266075   2.174   0.464  15.927 -0.4021  0.0134 -0.3189
14887TIP3    H166076   2.132   0.392  15.880 -3.4491  1.4306  0.0577
14887TIP3    H266077   2.175   0.537  15.865 -1.3121  0.8902  0.6688
14888TIP3   OH266078   3.500   3.936   1.680 -0.0338  0.0316  0.8504
14888TIP3    H166079   3.548   3.993   1.741 -0.0920  0.0603  0.8693
14888TIP3    H266080   3.564   3.915   1.612  0.2702 -0.6331  1.3325
14889TIP3   OH266081   5.958   1.402  12.352 -0.7392  0.4263  1.2746
14889TIP3    H166082   5.976   1.308  12.349  1.0880  0.7863  0.7457
14889TIP3    H266083   6.041   1.444  12.330 -2.1728  2.1377 -1.2475
14890TIP3   OH266084   4.489   0.776  14.369  0.3025  0.4732 -0.5890
14890TIP3    H166085   4.568   0.791  14.420 -0.3845  0.6180  0.4419
14890TIP3    H266086   4.469   0.683  14.383 -0.7812  0.8908  0.7070
14891TIP3   OH266087   1.339   0.042   1.955 -0.0685  0.2223 -0.1530
14891TIP3    H166088   1.419   0.093   1.949 -0.3313  0.7880  1.0977
14891TIP3    H266089   1.277   0.088   1.899  0.4451 -0.1729 -1.0586
14892TIP3   OH266090   2.002   1.546   3.043 -0.3311  0.4553  0.8040
14892TIP3    H166091   2.038   1.465   3.009 -1.3564 -0.1406  1.1356
14892TIP3    H266092   2.079   1.600   3.064  0.3263  0.3345 -1.2190
14893TIP3   OH266093   4.956   0.705   2.815 -0.0916  0.2503  0.4220
14893TIP3    H166094   4.918   0.740   2.896  0.1810  0.8749  0.2857
14893TIP3    H266095   4.948   0.777   2.752 -0.1296 -0.1678 -0.0512
14894TIP3   OH266096   3.994   0.373   5.786  0.6471 -0.1533  0.1236
14894TIP3    H166097   3.924   0.326   5.831 -0.5595  1.6430  0.1514
14894TIP3    H266098   4.055   0.398   5.855  0.9732 -1.0855  0.1878
14895TIP3   OH266099   5.045   5.597  14.644  0.3803 -0.5380 -0.0731
14895TIP3    H166100   5.006   5.512  14.667  0.5337 -1.0534 -1.5964
14895TIP3    H266101   5.097   5.578  14.566  0.0388  1.0596 -0.7038
14896TIP3   OH266102   3.386   4.431   5.146 -0.4505  0.0363 -0.4775
14896TIP3    H166103   3.302   4.441   5.101 -1.7243  0.8721  2.0128
14896TIP3    H266104   3.420   4.519   5.154  0.2954 -0.2237 -0.7654
14897TIP3   OH266105   6.402   5.911  16.944  0.2030  0.4945  0.1686
14897TIP3    H166106   6.352   5.993  16.942 -1.7470 -0.6236  1.3495
14897TIP3    H266107   6.370   5.861  16.869  0.6710  0.3935  0.0333
14898TIP3   OH266108   6.293   3.530  16.465 -0.2420 -0.3911  0.3090
14898TIP3    H166109   6.332   3.601  16.517  1.0697 -1.3521  0.6458
14898TIP3    H266110   6.367   3.479  16.435 -1.1777 -1.5333 -0.0876
14899TIP3   OH266111   2.636   4.422  12.301 -0.2421 -0.1896 -0.0973
14899TIP3    H166112   2.657   4.330  12.282  0.7322 -0.3360  1.6059
14899TIP3    H266113   2.720   4.460  12.328 -1.3306  0.2840  2.7617
14900TIP3   OH266114   0.374   5.250   4.973  0.0812  0.4452  0.3816
14900TIP3    H166115   0.296   5.214   4.930  0.9817 -0.2718 -0.6882
14900TIP3    H266116   0.346   5.335   5.006 -1.0361  0.3864 -0.3737
14901TIP3   OH266117   5.656   6.408   4.650  0.2105 -0.5597  1.0998
14901TIP3    H166118   5.731   6.455   4.614 -1.3262 -0.9362 -2.8168
14901TIP3    H266119   5.593   6.477   4.673  0.0371 -0.4649  0.3269
14902TIP3   OH266120   6.084   0.722  12.418  0.2486 -0.2751 -0.2901
14902TIP3    H166121   6.151   0.720  12.349  0.0459 -3.8517 -0.4707
14902TIP3    H266122   6.131   0.693  12.497 -0.8901 -2.1340 -0.2738
14903TIP3   OH266123   2.922   1.143  12.158  0.2107  0.2537 -0.5438
14903TIP3    H166124   2.901   1.097  12.240  0.7120 -0.2673 -0.7026
14903TIP3    H266125   2.996   1.094  12.122  0.3361  0.8089 -1.0396
14904TIP3   OH266126   1.713   2.312   0.123 -0.5664 -0.1639  0.0955
14904TIP3    H166127   1.767   2.255   0.067 -0.9404 -0.8283  0.4008
14904TIP3    H266128   1.758   2.312   0.207 -0.2806  0.4244 -0.0557
14905TIP3   OH266129   6.653   6.375   2.103  0.1167  0.0650 -0.2735
14905TIP3    H166130   6.560   6.390   2.088  0.5861  0.4698 -3.0757
14905TIP3    H266131   6.697   6.439   2.047  2.1015 -1.2957 -0.3400
14906TIP3   OH266132   0.313   4.309   0.621  0.1102  0.2058 -0.8663
14906TIP3    H166133   0.233   4.310   0.569 -0.6915  2.4164  0.3457
14906TIP3    H266134   0.314   4.222   0.661 -0.4830 -0.6548 -2.6666
14907TIP3   OH266135   4.953   1.717  12.889  0.0475  0.5908 -0.0501
14907TIP3    H166136   5.043   1.736  12.915 -0.1363 -0.2989  1.2686
14907TIP3    H266137   4.953   1.625  12.865 -0.8486  0.1498  1.5481
14908TIP3   OH266138   4.538   3.203   4.420 -0.2154  1.1833  0.5193
14908TIP3    H166139   4.588   3.139   4.470 -0.4354  0.1371 -0.5709
14908TIP3    H266140   4.591   3.283   4.423  0.1868  0.8859  1.6715
14909TIP3   OH266141   0.616   4.692  13.881  0.1836  0.2208 -0.0311
14909TIP3    H166142   0.560   4.624  13.919  0.1014 -0.6557 -1.6520
14909TIP3    H266143   0.678   4.644  13.826 -0.5213  1.5246 -2.0149
14910TIP3   OH266144   5.354   0.086   5.800  0.4214 -0.3142 -0.2868
14910TIP3    H166145   5.336   0.048   5.886 -1.0289 -0.3941 -0.6186
14910TIP3    H266146   5.303   0.033   5.739  1.3866 -0.2065 -1.1942
14911TIP3   OH266147   0.913   5.803  13.524 -0.5252 -0.1508 -0.2831
14911TIP3    H166148   0.878   5.888  13.501 -1.9228 -0.5435  0.3499
14911TIP3    H266149   1.004   5.805  13.493 -0.7189  1.3423 -0.7767
14912TIP3   OH266150   0.976   1.449  12.777  0.3967 -0.3528 -0.2056
14912TIP3    H166151   0.996   1.471  12.686 -0.5489 -2.7456 -1.0354
14912TIP3    H266152   1.018   1.363  12.790 -1.1955 -0.9669  0.9785
14913TIP3   OH266153   4.285   6.055  11.668 -0.0552 -0.1563  0.4424
14913TIP3    H166154   4.281   5.975  11.615  1.0170 -0.5987  1.0020
14913TIP3    H266155   4.291   6.126  11.604  1.3167 -0.6940 -0.0443
14914TIP3   OH266156   3.023   3.322   3.122  0.1186 -0.3445  0.2968
14914TIP3    H166157   2.991   3.412   3.134 -0.8758 -0.9051  1.8995
14914TIP3    H266158   2.967   3.269   3.178  0.1435 -2.0946 -1.2900
14915TIP3   OH266159   1.004   6.765   1.165 -0.3313 -0.2894  0.1354
14915TIP3    H166160   0.992   6.690   1.107 -0.0953  0.8360 -1.3964
14915TIP3    H266161   0.916   6.795   1.184 -0.4394 -1.1398  1.0103
14916TIP3   OH266162   1.868   4.052  16.501  0.3556 -0.0161  0.2029
14916TIP3    H166163   1.828   4.137  16.481  2.0293  0.6699 -0.3170
14916TIP3    H266164   1.830   3.992  16.437  0.8597  0.8284 -0.9049
14917TIP3   OH266165   5.759   3.959  12.644  0.3735 -0.1356 -0.5538
14917TIP3    H166166   5.780   3.866  12.654 -0.3024 -0.3124 -0.7644
14917TIP3    H266167   5.844   4.002  12.639  0.7169 -0.4873  1.7000
14918TIP3   OH266168   1.941   4.456  16.556 -0.3230  0.1015  0.0601
14918TIP3    H166169   1.863   4.424  16.511  0.6627 -1.9380 -0.2937
14918TIP3    H266170   2.002   4.477  16.485  0.9573 -2.4039  0.3441
14919TIP3   OH266171   5.163   2.734  14.002 -0.0499  0.2631 -0.2213
14919TIP3    H166172   5.216   2.790  14.059  1.3191 -2.6765  1.5028
14919TIP3    H266173   5.089   2.708  14.057 -0.0932 -0.4723 -0.6146
14920TIP3   OH266174   4.336   6.581   5.682  0.3905 -0.0634 -0.8381
14920TIP3    H166175   4.401   6.601   5.616 -0.0586 -0.0589 -1.2817
14920TIP3    H266176   4.382   6.527   5.746  0.4567 -1.2916 -1.8984
14921TIP3   OH266177   3.647   6.027   4.563 -0.4440  0.0958  0.2490
14921TIP3    H166178   3.675   6.062   4.479 -0.1858  0.0676  0.3217
14921TIP3    H266179   3.568   6.076   4.585  0.1241  0.8914  0.5279
14922TIP3   OH266180   3.878   3.113   3.365  0.2680 -0.1942  0.2518
14922TIP3    H166181   3.936   3.165   3.420  1.5199 -0.6109 -0.6464
14922TIP3    H266182   3.903   3.022   3.382 -0.2746 -0.3933  0.0210
14923TIP3   OH266183   1.132   5.048  14.851 -0.2690 -0.3055 -0.1082
14923TIP3    H166184   1.184   5.128  14.860  0.1148 -0.4126 -1.3023
14923TIP3    H266185   1.071   5.051  14.925  0.6077  0.4361  0.6012
14924TIP3   OH266186   4.633   1.470  12.129 -0.1163 -0.5567 -0.3250
14924TIP3    H166187   4.570   1.536  12.158 -0.0887  0.1023 -1.7528
14924TIP3    H266188   4.686   1.514  12.063 -1.6583 -2.6784 -3.0825
14925TIP3   OH266189   4.960   1.905   3.198  0.2540 -0.0655 -0.0300
14925TIP3    H166190   5.053   1.924   3.183 -0.1490  2.7100  0.6919
14925TIP3    H266191   4.914   1.963   3.137 -1.0164 -1.2830 -0.2439
14926TIP3   OH266192   4.008   4.667  15.767 -0.7889  1.0149 -0.3636
14926TIP3    H166193   4.064   4.602  15.724 -2.5292  1.0594 -2.7758
14926TIP3    H266194   4.002   4.739  15.704 -1.1829  2.2950  1.1151
14927TIP3   OH266195   6.727   3.161  13.932 -0.1066 -0.2389  0.2771
14927TIP3    H166196   6.636   3.162  13.904 -0.2848 -2.1127  0.7543
14927TIP3    H266197   6.727   3.211  14.014 -0.3027  1.6434 -0.8447
14928TIP3   OH266198   1.524   2.799   1.929  0.3685 -1.3763 -0.7224
14928TIP3    H166199   1.458   2.815   1.996  0.7049  1.5562 -1.0079
14928TIP3    H266200   1.547   2.707   1.939 -1.0456 -1.4922  1.8606
14929TIP3   OH266201   0.070   6.703  11.079  0.1626  0.5347 -0.0829
14929TIP3    H166202   0.148   6.751  11.050  0.6651 -0.9529 -1.3215
14929TIP3    H266203   0.029   6.759  11.144  2.5119  1.1616  0.8939
14930TIP3   OH266204   4.373   5.893  11.476 -0.0547 -0.1249 -0.3772
14930TIP3    H166205   4.283   5.861  11.479 -0.3066  0.4832 -1.1770
14930TIP3    H266206   4.412   5.848  11.400  0.0398  0.2933 -0.5781
14931TIP3   OH266207   5.924   6.784   0.578 -0.3324 -0.0737 -0.1257
14931TIP3    H166208   5.946   6.759   0.667  1.9323  1.7817 -0.1008
14931TIP3    H266209   5.987   6.852   0.556 -1.3236  0.0370 -2.8864
14932TIP3   OH266210   1.450   3.205   0.954 -0.1373  0.0216  0.3437
14932TIP3    H166211   1.535   3.194   0.996  0.3057 -1.9954 -1.0180
14932TIP3    H266212   1.393   3.143   0.998 -0.1859 -0.6191 -0.5964
14933TIP3   OH266213   3.576   3.776  14.841  0.9506 -0.4437 -0.1426
14933TIP3    H166214   3.607   3.692  14.807  2.6388  0.4369 -0.8507
14933TIP3    H266215   3.504   3.753  14.900 -1.0909 -2.1383 -3.1538
14934TIP3   OH266216   5.842   4.004  15.618  0.7408 -0.0144  0.7738
14934TIP3    H166217   5.800   3.990  15.533 -0.2724 -1.1721  1.4538
14934TIP3    H266218   5.920   3.949  15.614  0.8059  0.0940  0.5126
14935TIP3   OH266219   4.924   0.329   3.936 -0.3986  0.0760  0.1236
14935TIP3    H166220   4.940   0.410   3.887  1.0571 -0.9416 -1.1474
14935TIP3    H266221   4.904   0.358   4.025  0.7218  1.7939 -0.1601
14936TIP3   OH266222   3.789   5.032  12.581 -0.2961  0.1635 -0.2658
14936TIP3    H166223   3.730   4.996  12.648  0.2778 -0.8207 -0.2803
14936TIP3    H266224   3.862   5.068  12.631  0.5119 -1.2769 -0.3932
14937TIP3   OH266225   4.479   1.677   1.634 -0.2346 -0.0691  0.6581
14937TIP3    H166226   4.494   1.710   1.722  1.3966  0.0878  0.3398
14937TIP3    H266227   4.448   1.753   1.585  1.5705  0.5346  0.4210
14938TIP3   OH266228   0.445   2.685   2.507 -0.3733 -0.7099 -0.0655
14938TIP3    H166229   0.516   2.684   2.571 -1.4550  1.4812  1.2172
14938TIP3    H266230   0.484   2.721   2.428  0.1689 -0.3541  0.3623
14939TIP3   OH266231   0.893   4.638   4.078 -0.1636  0.4748  0.0122
14939TIP3    H166232   0.821   4.579   4.058  0.1904  0.0669 -0.0702
14939TIP3    H266233   0.896   4.642   4.174 -1.6266  2.1424  0.0260
14940TIP3   OH266234   5.535   4.044  12.398 -0.1990 -0.2262  0.0206
14940TIP3    H166235   5.495   4.130  12.411  0.1662 -0.2254  1.2737
14940TIP3    H266236   5.571   4.021  12.484 -0.0127 -1.4896 -0.3762
14941TIP3   OH266237   4.153   1.490  15.742 -1.2094  0.2123 -0.2580
14941TIP3    H166238   4.191   1.545  15.811  2.3662 -0.9568 -1.1947
14941TIP3    H266239   4.061   1.516  15.739 -0.4569  3.4797  1.8857
14942TIP3   OH266240   3.544   1.280  13.664  0.1534  0.1710  0.0497
14942TIP3    H166241   3.473   1.343  13.655 -1.4484 -1.7933 -1.5036
14942TIP3    H266242   3.593   1.287  13.582  0.5955  0.1442  0.3107
14943TIP3   OH266243   5.081   5.403  13.892  0.4988  0.6255  0.3920
14943TIP3    H166244   5.000   5.357  13.868  1.0198 -0.6801  1.0751
14943TIP3    H266245   5.105   5.451  13.813 -0.2270 -0.0395 -0.2461
14944TIP3   OH266246   4.769   2.018  16.044 -0.0145  0.3930  0.6118
14944TIP3    H166247   4.709   2.035  15.972  0.9476 -1.2894 -0.6339
14944TIP3    H266248   4.763   1.924  16.060  0.9707  0.4797  1.6606
14945TIP3   OH266249   6.747   0.408  13.622 -0.4450 -0.2252  0.3210
14945TIP3    H166250   6.742   0.498  13.654 -2.6045  0.8636 -2.7716
14945TIP3    H266251   6.667   0.367  13.653  0.6013 -1.1549  1.8383
14946TIP3   OH266252   5.199   1.839  12.541 -0.0435  0.2500 -0.1447
14946TIP3    H166253   5.254   1.762  12.556  0.2146  0.4680  0.0325
14946TIP3    H266254   5.135   1.810  12.475 -1.2178 -0.7394  1.3651
14947TIP3   OH266255   3.902   3.324  11.858  0.1633 -0.0925  0.8999
14947TIP3    H166256   3.891   3.391  11.925 -0.1286  1.4673 -0.6994
14947TIP3    H266257   3.936   3.370  11.782  0.9038 -1.9190  0.0931
14948TIP3   OH266258   2.723   4.959  12.163  0.5881  0.1379  0.4485
14948TIP3    H166259   2.641   4.929  12.123  0.4602 -0.0281  0.8344
14948TIP3    H266260   2.790   4.938  12.099  0.2375  0.9647 -0.2064
14949TIP3   OH266261   1.131   4.343   0.051  0.4843 -0.2841  0.1455
14949TIP3    H166262   1.160   4.324  -0.038 -1.6352 -0.1354 -0.6023
14949TIP3    H266263   1.046   4.385   0.040  0.7608  0.8634  2.1967
14950TIP3   OH266264   5.599   2.968  15.344 -0.2116  0.1458 -0.2690
14950TIP3    H166265   5.541   2.901  15.380 -0.2725 -0.9874 -2.3937
14950TIP3    H266266   5.647   3.001  15.420 -0.4664 -2.0214  0.8885
14951TIP3   OH266267   2.015   2.753  13.491  0.3648 -0.7629 -0.5129
14951TIP3    H166268   1.919   2.752  13.494  0.2558  0.6607 -2.3898
14951TIP3    H266269   2.039   2.843  13.514  1.2825 -1.2524  0.4781
14952TIP3   OH266270   3.603   5.859  12.306 -0.3006 -0.1521 -0.4226
14952TIP3    H166271   3.534   5.861  12.372  0.2517  0.6738  0.1442
14952TIP3    H266272   3.625   5.766  12.297 -0.4132 -0.2767  0.5243
14953TIP3   OH266273   0.559   1.296  11.979 -0.3698 -0.0983 -0.2040
14953TIP3    H166274   0.558   1.391  11.981  0.4439 -0.0362 -1.8537
14953TIP3    H266275   0.467   1.271  11.989 -0.2792  0.7093  3.4883
14954TIP3   OH266276   2.732   5.246   6.288 -0.1020 -0.1601 -0.1426
14954TIP3    H166277   2.782   5.165   6.296  0.4899  0.2438  0.3907
14954TIP3    H266278   2.779   5.308   6.345 -2.1354 -0.2200  1.6494
14955TIP3   OH266279   3.903   5.873  16.453 -0.1357  0.3153  0.3568
14955TIP3    H166280   3.836   5.809  16.474 -0.0105 -0.7951 -2.5072
14955TIP3    H266281   3.859   5.958  16.464 -2.3240 -0.3991 -2.3231
14956TIP3   OH266282   5.712   6.311  12.702 -0.3659 -0.1462 -0.0296
14956TIP3    H166283   5.673   6.372  12.639  1.9131  1.2386 -0.1960
14956TIP3    H266284   5.643   6.295  12.766 -1.1050  2.4950 -0.0833
14957TIP3   OH266285   4.020   4.891  15.011  0.0028  0.6315 -0.0553
14957TIP3    H166286   4.068   4.970  14.986  0.4331  0.2446 -0.4699
14957TIP3    H266287   4.035   4.830  14.938  1.3547 -0.5510  1.1791
14958TIP3   OH266288   3.682   4.710  11.593 -0.3942  0.0285  0.2396
14958TIP3    H166289   3.672   4.629  11.542  0.3804 -0.6989  1.2104
14958TIP3    H266290   3.659   4.780  11.532  1.4833 -0.7594 -1.4365
14959TIP3   OH266291   3.296   6.406   4.060 -0.0338  0.4115  0.7927
14959TIP3    H166292   3.226   6.462   4.094 -0.6374  0.4823 -0.5374
14959TIP3    H266293   3.250   6.328   4.029  0.3583  0.8540 -0.9447
14960TIP3   OH266294   3.043   2.441   5.068 -0.2214  0.2313  0.9283
14960TIP3    H166295   3.045   2.382   5.143  1.2089 -1.3732 -0.3264
14960TIP3    H266296   3.097   2.516   5.094 -0.7213  0.2490  1.9277
14961TIP3   OH266297   2.466   1.058   2.841  0.5703  0.8313 -1.1602
14961TIP3    H166298   2.536   1.019   2.788  0.1743  1.1331 -1.9113
14961TIP3    H266299   2.399   1.085   2.778 -0.3360  0.3346 -0.4291
14962TIP3   OH266300   5.575   4.698   2.159  0.4160 -0.5217  0.5283
14962TIP3    H166301   5.604   4.637   2.226 -2.0950 -1.4508  0.8125
14962TIP3    H266302   5.554   4.642   2.084  2.2752  0.4170 -0.7225
14963TIP3   OH266303   2.355   1.361   0.117 -0.4294  0.3990 -0.4403
14963TIP3    H166304   2.368   1.314   0.034 -1.2292  0.8415 -0.8266
14963TIP3    H266305   2.260   1.362   0.129 -0.2529 -1.3000  1.4464
14964TIP3   OH266306   3.019   0.017  12.667 -0.0756  0.4815 -0.0515
14964TIP3    H166307   3.069  -0.059  12.698  0.4915  0.5924 -0.6617
14964TIP3    H266308   3.064   0.092  12.705 -0.4955  0.5252  0.3611
14965TIP3   OH266309   6.544   3.862  12.367  0.1179  0.0767  0.5077
14965TIP3    H166310   6.476   3.837  12.430  0.9727 -1.7767  0.7324
14965TIP3    H266311   6.525   3.810  12.289  0.7030  0.2875  0.2244
14966TIP3   OH266312   5.048   0.776   5.257 -0.3772  0.0757  0.0297
14966TIP3    H166313   5.099   0.797   5.336  1.0559 -0.4335 -0.7555
14966TIP3    H266314   4.957   0.785   5.285  0.1084 -0.6436  1.9074
14967TIP3   OH266315   5.582   0.207   5.702 -0.7341  0.4120 -0.4343
14967TIP3    H166316   5.512   0.151   5.736  0.2299 -0.0662  0.8245
14967TIP3    H266317   5.572   0.203   5.607 -0.0133 -2.8289 -0.4311
14968TIP3   OH266318   1.932   3.355  11.053  0.4348  0.2852  0.3050
14968TIP3    H166319   1.843   3.390  11.044  0.6793  1.2075  1.4070
14968TIP3    H266320   1.984   3.428  11.086  1.2510 -0.7223  1.2972
14969TIP3   OH266321   1.210   6.653  12.642 -0.4350 -0.1780 -0.1470
14969TIP3    H166322   1.215   6.737  12.687  0.1437 -0.2911  0.0079
14969TIP3    H266323   1.247   6.670  12.556 -0.4766 -0.2307 -0.1746
14970TIP3   OH266324   6.358   5.968  13.385  0.3126 -0.4830 -0.2191
14970TIP3    H166325   6.391   5.978  13.295  0.7417  0.8312  0.0748
14970TIP3    H266326   6.408   5.895  13.421  1.4634  0.1756 -0.4528
14971TIP3   OH266327   1.471   4.572  11.679  0.0453 -0.0028  0.2428
14971TIP3    H166328   1.542   4.509  11.696 -1.5181 -1.8466  0.0671
14971TIP3    H266329   1.393   4.518  11.668 -0.7420  1.7094 -3.3826
14972TIP3   OH266330   1.912   5.059   3.806  0.5903  0.2159 -0.1335
14972TIP3    H166331   1.880   4.982   3.759  0.1234 -0.2946  1.0154
14972TIP3    H266332   1.963   5.023   3.878  2.3714  1.0017 -0.9638
14973TIP3   OH266333   4.814   4.483  16.818  0.5434  0.6146 -0.0275
14973TIP3    H166334   4.898   4.454  16.783  0.0874 -1.1612  0.2978
14973TIP3    H266335   4.756   4.484  16.742  0.6213  0.9482 -0.0842
14974TIP3   OH266336   6.772   2.500  14.379  0.6612  0.1761 -0.2707
14974TIP3    H166337   6.804   2.431  14.437  0.8976 -0.6978 -1.4304
14974TIP3    H266338   6.788   2.581  14.428  0.7409 -0.5462  0.9343
14975TIP3   OH266339   2.366   5.564  16.413 -0.0699 -0.6226 -0.4470
14975TIP3    H166340   2.273   5.572  16.391 -0.0097  0.1352 -0.4114
14975TIP3    H266341   2.367   5.555  16.508 -0.0212  0.5770 -0.3370
14976TIP3   OH266342   0.373   0.265   1.413  0.2093  0.4073  0.3687
14976TIP3    H166343   0.411   0.345   1.377 -2.0465  1.2241 -0.2656
14976TIP3    H266344   0.344   0.215   1.336  2.3774 -1.4640  0.7056
14977TIP3   OH266345   2.167   4.413   5.929 -0.1141  0.3452  0.5496
14977TIP3    H166346   2.191   4.500   5.899 -0.3033 -0.6132 -2.5015
14977TIP3    H266347   2.071   4.417   5.939 -0.0584  0.6487  0.9710
14978TIP3   OH266348   4.142   1.723  15.186  0.1311 -0.2618 -0.3316
14978TIP3    H166349   4.234   1.697  15.180 -0.1245 -1.7817  1.6204
14978TIP3    H266350   4.094   1.641  15.195 -1.3772  0.5388 -0.8370
14979TIP3   OH266351   6.044   1.423  15.224  0.6965 -0.2493 -0.3003
14979TIP3    H166352   6.069   1.336  15.191 -0.3011 -0.6077 -0.1530
14979TIP3    H266353   5.973   1.450  15.166 -0.1643 -0.2983  0.7157
14980TIP3   OH266354   0.682   5.605   0.593 -0.6832  0.3088 -0.1030
14980TIP3    H166355   0.766   5.614   0.548 -0.1864  2.8537  1.2144
14980TIP3    H266356   0.686   5.518   0.634  2.2200  1.2105  1.6588
14981TIP3   OH266357   4.161   3.711   1.450 -0.3906  0.1232  0.1354
14981TIP3    H166358   4.208   3.713   1.366  0.7632  1.3829  0.7860
14981TIP3    H266359   4.185   3.793   1.493 -0.2725 -0.8939  2.0793
14982TIP3   OH266360   2.360   4.252  16.379 -0.1205  0.3862 -0.3446
14982TIP3    H166361   2.312   4.333  16.361  0.1316  0.6682  0.2331
14982TIP3    H266362   2.292   4.191  16.409 -0.1143  0.8206  0.5886
14983TIP3   OH266363   5.320   5.217  16.444 -0.5743 -0.8369  0.0878
14983TIP3    H166364   5.255   5.147  16.447 -1.3808 -0.1278 -0.6669
14983TIP3    H266365   5.280   5.285  16.389 -0.2000  0.6264  1.5890
14984TIP3   OH266366   1.799   3.189   3.573 -0.1298  0.2089  0.3233
14984TIP3    H166367   1.827   3.098   3.562 -1.2503 -0.1276  0.1927
14984TIP3    H266368   1.789   3.200   3.667  0.4680  0.3424  0.3734
14985TIP3   OH266369   0.478   4.740   0.603 -0.1230 -0.0958 -0.6470
14985TIP3    H166370   0.547   4.802   0.579 -0.2703  0.1669 -0.4056
14985TIP3    H266371   0.474   4.678   0.531  1.0303 -0.6755 -0.2104
14986TIP3   OH266372   5.205   4.151  15.855  0.0889 -0.5090  0.0558
14986TIP3    H166373   5.116   4.172  15.887  0.2848  0.3864  0.0340
14986TIP3    H266374   5.251   4.235  15.858  0.6834 -0.8089 -0.7592
14987TIP3   OH266375   0.999   3.159  11.782  0.3159  0.0132  0.2724
14987TIP3    H166376   0.962   3.228  11.726  1.0260 -0.3305 -0.6432
14987TIP3    H266377   1.091   3.156  11.758  0.3264 -1.1333  0.4398
14988TIP3   OH266378   3.646   3.697   3.690 -0.2757 -0.1160 -0.2571
14988TIP3    H166379   3.689   3.748   3.759  0.0017  0.5010 -0.8741
14988TIP3    H266380   3.715   3.642   3.653  0.0409  0.9677 -1.3347
14989TIP3   OH266381   0.341   6.387   3.812  0.2501 -0.0780  0.6165
14989TIP3    H166382   0.405   6.357   3.876 -1.0040 -0.8215  1.5251
14989TIP3    H266383   0.319   6.309   3.762  0.3819  0.2741  0.0035
14990TIP3   OH266384   1.088   3.107  14.423  0.3095  0.3636 -0.9317
14990TIP3    H166385   1.109   3.191  14.381  0.9437 -0.0414 -1.4216
14990TIP3    H266386   1.156   3.047  14.393  0.7516  0.0524  0.6320
14991TIP3   OH266387   5.036   2.971   4.191 -0.4575 -0.3271  0.2234
14991TIP3    H166388   4.976   2.923   4.135 -0.2990 -0.4636  0.1714
14991TIP3    H266389   5.122   2.955   4.153 -0.5496  1.1514 -0.6342
14992TIP3   OH266390   0.624   0.515   0.005  0.6477  0.8896  0.3049
14992TIP3    H166391   0.593   0.604   0.018 -2.5694 -0.4526  2.2107
14992TIP3    H266392   0.615   0.473   0.090  1.1206 -1.5566 -0.8008
14993TIP3   OH266393   3.321   2.664   5.853  0.2007  0.1154 -0.4896
14993TIP3    H166394   3.392   2.688   5.794  0.3292  1.2864  0.1302
14993TIP3    H266395   3.283   2.747   5.880  1.6137 -0.2537  2.8992
14994TIP3   OH266396   3.376   1.481  14.944  0.2267 -0.8117 -0.0687
14994TIP3    H166397   3.307   1.538  14.909  3.3736  0.8939 -3.8886
14994TIP3    H266398   3.338   1.393  14.941 -2.5358  0.3258  0.0454
14995TIP3   OH266399   0.214   0.108   1.608  0.2690 -0.4814 -0.3226
14995TIP3    H166400   0.271   0.153   1.546  2.6441  0.7639  2.6497
14995TIP3    H266401   0.247   0.018   1.609 -0.5824 -0.8221 -1.7612
14996TIP3   OH266402   0.783   5.004  11.335  0.3728 -0.0825 -0.5782
14996TIP3    H166403   0.700   4.966  11.306 -0.1789  1.3043 -0.8280
14996TIP3    H266404   0.792   5.084  11.284  1.2278  0.4549  0.4042
14997TIP3   OH266405   4.598   4.748   2.503  0.2413 -0.4811 -0.7290
14997TIP3    H166406   4.554   4.827   2.473  0.4598 -0.6149 -1.4268
14997TIP3    H266407   4.671   4.780   2.556 -0.8777 -0.2727  0.7204
14998TIP3   OH266408   2.879   4.459  17.052 -0.4821  0.9409  0.5322
14998TIP3    H166409   2.961   4.440  17.006 -0.0369  1.0396  1.2711
14998TIP3    H266410   2.857   4.377  17.095 -0.1926  1.2201  1.2198
14999TIP3   OH266411   2.825   5.304   1.857  0.3463  0.2460  0.9979
14999TIP3    H166412   2.818   5.209   1.857 -1.4814  0.3555  0.9727
14999TIP3    H266413   2.746   5.334   1.810  2.0898  1.6983 -1.1294
15000TIP3   OH266414   5.889   6.074   6.126 -0.4516  0.2747  0.9274
15000TIP3    H166415   5.855   6.164   6.134  1.0234  0.7804  1.8305
15000TIP3    H266416   5.812   6.020   6.111 -1.2439  1.8486 -0.8498
15001TIP3   OH266417   5.309   4.949  13.465 -0.0760 -0.0656 -0.0300
15001TIP3    H166418   5.280   5.012  13.531  1.6566 -0.0904  0.7944
15001TIP3    H266419   5.394   4.983  13.436  0.1516 -1.2013 -0.7123
15002TIP3   OH266420   4.724   4.584   1.652  0.0711 -0.4693 -0.0116
15002TIP3    H166421   4.725   4.489   1.641  0.2323 -0.3168 -1.4171
15002TIP3    H266422   4.750   4.598   1.743 -0.8928 -1.8097  0.4820
15003TIP3   OH266423   4.410   2.354  17.146  0.1361  0.4502  0.2964
15003TIP3    H166424   4.406   2.313  17.233 -1.0543  2.3336  1.1651
15003TIP3    H266425   4.336   2.316  17.098 -1.8936  2.6515  1.6051
15004TIP3   OH266426   1.243   0.101  14.468 -0.9711 -0.2141 -0.5949
15004TIP3    H166427   1.245   0.193  14.494  1.1229 -0.6048  0.7931
15004TIP3    H266428   1.330   0.085  14.430 -0.0814 -2.3967  2.1664
15005TIP3   OH266429   2.050   5.299   1.719 -0.4877 -0.5385  0.5208
15005TIP3    H166430   2.094   5.385   1.721  0.4448 -1.0029  0.5269
15005TIP3    H266431   1.957   5.320   1.713 -0.2118  0.4661 -0.5497
15006TIP3   OH266432   3.536   2.959  13.103 -0.2754  0.3632  0.4206
15006TIP3    H166433   3.603   2.913  13.154 -0.5557 -0.0886  0.3870
15006TIP3    H266434   3.536   2.914  13.018 -1.9220 -0.8674  1.0413
15007TIP3   OH266435   4.298   6.130  15.956  0.3328  0.3837 -0.0608
15007TIP3    H166436   4.319   6.216  15.993  1.7001  0.0883 -0.1007
15007TIP3    H266437   4.204   6.120  15.968  0.2516  1.6635  0.4200
15008TIP3   OH266438   2.931   5.327   6.467  0.2275  0.0584 -0.8699
15008TIP3    H166439   2.899   5.387   6.535 -2.1904  0.5255 -2.3351
15008TIP3    H266440   2.943   5.244   6.512  0.4964  0.8248  0.5163
15009TIP3   OH266441   1.711   1.590  13.275  0.1473  0.3573 -0.5440
15009TIP3    H166442   1.802   1.561  13.271  0.4316  1.0242  0.7613
15009TIP3    H266443   1.661   1.512  13.300  0.4279  0.1509 -0.6292
15010TIP3   OH266444   6.744   2.978  12.983 -0.2410 -0.3564  0.2108
15010TIP3    H166445   6.831   3.014  13.001  0.1306  0.8154 -3.5982
15010TIP3    H266446   6.760   2.905  12.923 -1.9756  0.5991 -1.4433
15011TIP3   OH266447   0.468   0.311  12.271 -0.2249 -0.4569 -0.1661
15011TIP3    H166448   0.421   0.321  12.188 -0.4756  1.3769  0.1948
15011TIP3    H266449   0.560   0.315  12.248 -0.3038  1.5459 -0.1890
15012TIP3   OH266450   2.290   0.410   0.510  0.1392  0.1044  0.1594
15012TIP3    H166451   2.355   0.379   0.447 -0.3743  2.0073 -1.3429
15012TIP3    H266452   2.331   0.485   0.553 -0.1829 -0.1227  0.8839
15013TIP3   OH266453   4.631   5.959   4.674  0.0582 -0.2743  0.6240
15013TIP3    H166454   4.688   5.951   4.750  0.1007 -3.2990  0.3163
15013TIP3    H266455   4.667   5.896   4.611 -1.0069  0.9619 -1.2379
15014TIP3   OH266456   5.883   0.968  15.632  0.0478  0.4479 -0.0037
15014TIP3    H166457   5.944   0.895  15.629  0.1867  0.4751  1.5443
15014TIP3    H266458   5.938   1.045  15.648 -0.2027  0.7430 -0.5491
15015TIP3   OH266459   6.740   2.941  15.564 -0.8226  0.5019 -0.0174
15015TIP3    H166460   6.768   2.991  15.641 -1.3417  0.5714  0.1339
15015TIP3    H266461   6.714   2.856  15.599 -0.3237  0.2689 -0.2194
15016TIP3   OH266462   5.360   0.668  14.950  0.4620  0.0777  0.1208
15016TIP3    H166463   5.432   0.693  15.008  1.7843 -1.8920 -0.6712
15016TIP3    H266464   5.337   0.749  14.904 -0.0096  1.4665  2.6892
15017TIP3   OH266465   0.742   1.469  17.173 -0.8237  0.1485 -0.5474
15017TIP3    H166466   0.731   1.553  17.128 -1.0954 -0.0413 -0.8290
15017TIP3    H266467   0.680   1.410  17.131 -1.7876  0.2258  0.7167
15018TIP3   OH266468   4.352   4.325   2.896  0.4604 -0.5531 -0.0918
15018TIP3    H166469   4.433   4.375   2.882  0.1969  0.0672  0.5776
15018TIP3    H266470   4.327   4.294   2.809  2.1237 -1.8436 -0.1491
15019TIP3   OH266471   5.383   3.521  13.581  0.5284  0.0097  0.1672
15019TIP3    H166472   5.360   3.566  13.661 -0.8558 -0.8499  0.2658
15019TIP3    H266473   5.410   3.434  13.609  0.5441 -0.1238 -0.2500
15020TIP3   OH266474   5.397   2.936   2.215  0.7964 -0.2103 -0.2259
15020TIP3    H166475   5.321   2.990   2.237 -0.2624 -0.9447 -1.9550
15020TIP3    H266476   5.359   2.855   2.181  2.3206  0.2714 -3.2330
15021TIP3   OH266477   3.914   6.118  10.796 -0.2191  0.8555 -0.4980
15021TIP3    H166478   3.830   6.072  10.801 -0.5852  1.6223  0.8615
15021TIP3    H266479   3.890   6.211  10.797  0.6371  1.0784 -0.2106
15022TIP3   OH266480   6.781   6.163  12.448  0.1373  0.4435 -0.4459
15022TIP3    H166481   6.860   6.129  12.406 -0.5228 -0.2266 -1.1633
15022TIP3    H266482   6.730   6.201  12.376 -0.6548 -0.0328 -0.1425
15023TIP3   OH266483   4.139   5.614  14.541 -0.3273  0.2400 -1.0889
15023TIP3    H166484   4.087   5.653  14.611  2.3880  0.6095  0.7782
15023TIP3    H266485   4.184   5.689  14.501  0.9451 -0.3865 -0.8457
15024TIP3   OH266486   6.192   5.974   2.872  0.5137  0.1890 -0.6065
15024TIP3    H166487   6.210   5.881   2.855  0.1332 -0.1296  0.6594
15024TIP3    H266488   6.174   6.011   2.786  0.1158 -1.0350 -1.0660
15025TIP3   OH266489   4.190   4.251   0.751  0.0388  0.8241 -0.3201
15025TIP3    H166490   4.117   4.311   0.766  0.1727  1.0520 -0.5638
15025TIP3    H266491   4.151   4.177   0.705 -0.1626  0.6399  0.1459
15026TIP3   OH266492   5.355   0.451   5.009 -0.5902 -0.1604  0.0623
15026TIP3    H166493   5.305   0.495   4.939  2.5379  1.9499 -0.9525
15026TIP3    H266494   5.348   0.511   5.083 -0.0988 -0.1820  0.1226
15027TIP3   OH266495   5.729   4.834   5.219  0.2373 -0.3432 -0.0146
15027TIP3    H166496   5.705   4.852   5.310  0.3960 -3.5457  0.7281
15027TIP3    H266497   5.687   4.904   5.168 -1.8359  0.1413  2.2710
15028TIP3   OH266498   6.338   1.458   0.893 -0.4184  0.0519 -0.1119
15028TIP3    H166499   6.389   1.418   0.823 -0.5792  0.6205 -0.5632
15028TIP3    H266500   6.342   1.396   0.965  0.7931  0.0338 -0.1909
15029TIP3   OH266501   4.599   0.684   4.447 -0.1400  0.6715  0.0728
15029TIP3    H166502   4.551   0.668   4.528  1.2630  1.0687  0.9868
15029TIP3    H266503   4.540   0.739   4.395 -0.6246  1.2446  1.2182
15030TIP3   OH266504   6.754   5.018   3.497 -0.1823 -0.1205 -0.8347
15030TIP3    H166505   6.800   5.023   3.580 -0.6748  1.2259 -0.6158
15030TIP3    H266506   6.816   4.977   3.437 -0.0533 -1.6743  0.3326
15031TIP3   OH266507   4.282   1.881  16.578  0.2985  0.0013 -0.0972
15031TIP3    H166508   4.309   1.929  16.500  2.6009 -2.1958 -0.7082
15031TIP3    H266509   4.332   1.922  16.649  2.4956 -1.6345 -0.6631
15032TIP3   OH266510   0.172   5.682  13.062 -0.3729  0.2294  0.4230
15032TIP3    H166511   0.211   5.731  12.990 -0.5176 -0.8554 -0.4153
15032TIP3    H266512   0.193   5.732  13.141  1.3349  0.4868 -0.1897
15033TIP3   OH266513   4.445   6.611  14.624  0.2508  0.0638  0.6739
15033TIP3    H166514   4.506   6.553  14.668 -0.4910  0.3181  2.0571
15033TIP3    H266515   4.367   6.611  14.679 -0.9887 -0.2100 -1.0218
15034TIP3   OH266516   3.625   2.277   4.912  0.0599  0.1005 -0.3387
15034TIP3    H166517   3.670   2.347   4.959 -0.9292 -1.1722  2.6772
15034TIP3    H266518   3.692   2.209   4.901 -0.1079 -0.2958  0.8804
15035TIP3   OH266519   0.469   1.887   3.395  0.0631  0.7980 -0.2293
15035TIP3    H166520   0.529   1.945   3.444 -0.4422  0.0075  1.3688
15035TIP3    H266521   0.382   1.922   3.414 -0.1796  0.0733 -0.0145
15036TIP3   OH266522   0.044   4.375  12.080  0.1633 -0.0151  0.0861
15036TIP3    H166523   0.068   4.287  12.107  1.8260  0.7063  1.0376
15036TIP3    H266524  -0.023   4.403  12.142 -2.0564 -1.4309 -1.5944
15037TIP3   OH266525   1.288   1.642  14.193  0.2137 -0.0054 -0.3702
15037TIP3    H166526   1.226   1.569  14.191  0.3550 -0.1544  0.6979
15037TIP3    H266527   1.289   1.674  14.103  0.3247 -1.4618 -0.8961
15038TIP3   OH266528   6.316   5.757   4.620  0.4419  0.6835 -0.6521
15038TIP3    H166529   6.248   5.700   4.585 -0.1850  1.3422 -0.5260
15038TIP3    H266530   6.333   5.723   4.708  0.1808  0.5949 -0.6353
15039TIP3   OH266531   5.212   5.360   5.509  0.2956  0.0702  0.4339
15039TIP3    H166532   5.231   5.381   5.600  1.1283 -1.8968  0.7284
15039TIP3    H266533   5.199   5.265   5.508  0.9246 -0.0205 -1.5923
15040TIP3   OH266534   1.381   6.596   3.439 -0.5357 -0.9015 -0.0605
15040TIP3    H166535   1.447   6.648   3.486 -3.1519  0.1963  2.5727
15040TIP3    H266536   1.371   6.641   3.355  0.2625  0.4074  0.5227
15041TIP3   OH266537   2.647   6.482  15.024  0.2205 -0.0688 -0.7269
15041TIP3    H166538   2.616   6.409  14.971 -0.2871 -1.6883  1.7020
15041TIP3    H266539   2.709   6.442  15.085  2.6509  2.1377 -1.6447
15042TIP3   OH266540   3.054   2.971   0.743  0.2022  0.5906 -0.2341
15042TIP3    H166541   2.963   2.951   0.763  0.4160 -1.1646 -0.9244
15042TIP3    H266542   3.100   2.956   0.826  0.0903 -0.1116 -0.2934
15043TIP3   OH266543   1.267   6.738   5.284  0.0024 -0.4297 -0.0741
15043TIP3    H166544   1.253   6.743   5.190 -1.8017  1.4580  0.2465
15043TIP3    H266545   1.178   6.741   5.321  0.6653 -1.6200  1.6682
15044TIP3   OH266546   5.580   5.099  15.176 -0.4884  0.8280  0.0868
15044TIP3    H166547   5.534   5.181  15.194 -2.0145 -0.0041  0.0526
15044TIP3    H266548   5.568   5.046  15.255 -0.5638  0.1711 -0.3581
15045TIP3   OH266549   2.774   0.141   2.463  0.4466  0.6966  0.1595
15045TIP3    H166550   2.743   0.085   2.392  0.7520  2.8649 -1.7280
15045TIP3    H266551   2.865   0.159   2.441  0.9900  0.1530  1.9180
15046TIP3   OH266552   4.915   4.815   3.172  0.4673  0.4337  0.3627
15046TIP3    H166553   4.826   4.829   3.207  1.0417  2.6297  1.0216
15046TIP3    H266554   4.931   4.722   3.186 -1.2989  0.2374  1.3036
15047TIP3   OH266555   2.109   5.469   4.079 -0.3611 -0.1758 -0.1405
15047TIP3    H166556   2.194   5.487   4.120  0.5809  0.6008 -2.3270
15047TIP3    H266557   2.049   5.532   4.119  0.7358  1.1962 -0.5936
15048TIP3   OH266558   4.183   1.828  13.352  0.1744  0.0195 -0.3395
15048TIP3    H166559   4.240   1.827  13.276 -0.9605  1.3702 -1.2478
15048TIP3    H266560   4.169   1.921  13.371 -2.2360 -0.2430 -0.5783
15049TIP3   OH266561   5.501   3.414  15.912  0.0449  0.5094 -0.1024
15049TIP3    H166562   5.447   3.383  15.984  0.3299  0.4815  0.0989
15049TIP3    H266563   5.454   3.491  15.878 -0.4516  0.1012 -0.3442
15050TIP3   OH266564   2.947   3.400   2.790 -0.7698  0.1674 -0.4951
15050TIP3    H166565   2.952   3.316   2.835 -3.0508  0.2756 -0.0147
15050TIP3    H266566   2.897   3.382   2.710 -1.2345  1.0712 -0.4103
15051TIP3   OH266567   2.285   3.293  12.348 -0.0227  0.1445 -0.3490
15051TIP3    H166568   2.221   3.297  12.277 -2.0214  0.3790  1.3970
15051TIP3    H266569   2.349   3.228  12.320  0.4368  1.7725 -3.2835
15052TIP3   OH266570   3.770   5.899   3.661  0.3804  0.0509  0.2960
15052TIP3    H166571   3.749   5.906   3.568  1.0359  1.9825  0.2817
15052TIP3    H266572   3.693   5.859   3.701  0.0081 -0.5731 -1.0251
15053TIP3   OH266573   1.765   3.160  12.930 -0.2870 -0.0533 -0.2805
15053TIP3    H166574   1.711   3.111  12.868 -0.5714 -0.1700  0.0606
15053TIP3    H266575   1.774   3.247  12.889  0.3043 -0.4179 -0.9278
15054TIP3   OH266576   5.819   2.462  11.320  0.4657 -0.1830 -0.5138
15054TIP3    H166577   5.902   2.498  11.289  0.1013  2.6576  1.6011
15054TIP3    H266578   5.763   2.457  11.242  1.3519  1.5501 -1.2634
15055TIP3   OH266579   2.940   5.789   0.967 -0.3397  0.1911  0.1333
15055TIP3    H166580   2.935   5.731   1.042 -0.8325 -0.2094 -0.2095
15055TIP3    H266581   2.961   5.875   1.005  1.4689 -0.4094  0.5397
15056TIP3   OH266582   6.062   1.869   3.409  0.2814  0.0984  0.7872
15056TIP3    H166583   6.094   1.950   3.368 -0.2925  1.0540  2.1726
15056TIP3    H266584   5.977   1.893   3.445 -1.2740 -1.9501 -1.3516
15057TIP3   OH266585   0.120   1.520   5.224 -0.0559 -0.6998 -0.4059
15057TIP3    H166586   0.057   1.591   5.239  0.7440  0.3001 -1.6231
15057TIP3    H266587   0.205   1.565   5.218  0.5146 -1.8152 -0.8207
15058TIP3   OH266588   6.302   5.944  13.032  0.4018  0.0020  0.1457
15058TIP3    H166589   6.342   6.025  13.002 -0.0122  0.7351  1.5646
15058TIP3    H266590   6.237   5.923  12.965 -0.0468  1.2604  0.1911
15059TIP3   OH266591   2.555   1.872  11.250 -0.5196 -0.1476 -0.4866
15059TIP3    H166592   2.593   1.787  11.271  0.2860  0.2475 -0.3441
15059TIP3    H266593   2.624   1.919  11.204  0.2510  1.7236  2.4498
15060TIP3   OH266594   0.198   0.372   4.186  0.3744  0.0207  0.5175
15060TIP3    H166595   0.197   0.347   4.279  1.1402 -2.8840 -0.1824
15060TIP3    H266596   0.287   0.404   4.171  1.0145 -1.8221  0.2589
15061TIP3   OH266597   5.020   5.709  15.463 -0.4184  0.9560  0.5406
15061TIP3    H166598   5.050   5.637  15.518 -0.8383  0.3265 -0.0346
15061TIP3    H266599   5.083   5.712  15.391 -1.6827 -0.3464 -0.6544
15062TIP3   OH266600   3.336   0.661  12.894 -0.3454 -0.2381  0.3317
15062TIP3    H166601   3.352   0.572  12.925 -1.9950 -0.4490  0.6221
15062TIP3    H266602   3.241   0.670  12.895 -0.1551  2.0955  1.9000
15063TIP3   OH266603   5.437   5.023   3.736 -0.1971  0.6218 -0.2235
15063TIP3    H166604   5.392   4.944   3.765 -0.3780  0.5389 -0.7232
15063TIP3    H266605   5.390   5.095   3.779  2.5039  0.2770  3.5794
15064TIP3   OH266606   6.516   0.258  11.369  0.3379  0.5052  0.0354
15064TIP3    H166607   6.432   0.296  11.343  0.5843  1.3447  0.4575
15064TIP3    H266608   6.518   0.269  11.464 -0.5668 -2.5483  0.4664
15065TIP3   OH266609   2.773   0.514  13.012 -0.4111  0.9203 -0.1486
15065TIP3    H166610   2.721   0.436  12.989 -1.2001  1.5143 -0.4087
15065TIP3    H266611   2.858   0.479  13.038 -0.5366  0.0115 -0.9118
15066TIP3   OH266612   1.105   0.386   4.762  0.0079 -0.3955  0.2581
15066TIP3    H166613   1.094   0.472   4.722  1.3008 -0.9463 -1.3124
15066TIP3    H266614   1.197   0.366   4.751  0.1969 -1.0031  2.6672
15067TIP3   OH266615   0.570   1.876   1.037  0.3590  0.0678  0.4042
15067TIP3    H166616   0.545   1.868   1.129  0.5790  0.6478  0.5158
15067TIP3    H266617   0.507   1.939   1.001 -2.4942 -3.3808 -0.8890
15068TIP3   OH266618   4.231   1.429  15.500  0.0271  0.4285 -0.3375
15068TIP3    H166619   4.206   1.446  15.591 -1.7390 -2.1758 -0.2792
15068TIP3    H266620   4.255   1.515  15.466 -1.0059  1.7350  2.0659
15069TIP3   OH266621   5.916   0.939   1.408  0.0796  0.0003  0.1813
15069TIP3    H166622   5.852   0.988   1.460 -1.4228  0.0785 -1.6955
15069TIP3    H266623   5.864   0.886   1.349  1.7251  1.0559 -2.3307
15070TIP3   OH266624   6.387   6.651   5.493  0.7286  0.2724 -0.2097
15070TIP3    H166625   6.291   6.647   5.489  0.8269 -1.3191 -1.3494
15070TIP3    H266626   6.408   6.740   5.467 -0.3865  0.2828 -1.1033
15071TIP3   OH266627   4.185   4.805   5.147  0.2163  0.3008 -0.2205
15071TIP3    H166628   4.091   4.804   5.132  0.1649  1.2829  0.0506
15071TIP3    H266629   4.197   4.862   5.222  0.7374 -2.3229  1.7577
15072TIP3   OH266630   1.334   0.078   0.501 -0.1644 -0.6216 -0.0603
15072TIP3    H166631   1.415   0.084   0.451  0.5113 -1.9942  0.8308
15072TIP3    H266632   1.339   0.149   0.565  0.7568 -1.2438  0.5713
15073TIP3   OH266633   2.731   4.061   0.210 -0.2837 -0.2355 -0.1783
15073TIP3    H166634   2.714   3.983   0.262  0.4361 -0.2826 -0.0063
15073TIP3    H266635   2.746   4.029   0.122  1.3108 -0.4214  0.1458
15074TIP3   OH266636   0.507   5.648   4.236 -0.2946  0.1843 -0.1535
15074TIP3    H166637   0.561   5.612   4.166  1.2546 -0.3796  1.3133
15074TIP3    H266638   0.493   5.574   4.295 -0.9151  0.8581  0.5498
15075TIP3   OH266639   2.084   5.047   4.934  0.0411  0.5166 -0.7193
15075TIP3    H166640   2.115   5.094   4.857  0.0239  0.7221 -0.5986
15075TIP3    H266641   2.164   5.013   4.975  0.0764  0.7051 -0.6326
15076TIP3   OH266642   4.229   1.982  11.597  0.0010  0.0609 -0.1888
15076TIP3    H166643   4.283   2.059  11.578 -1.0980  1.4151  1.9730
15076TIP3    H266644   4.269   1.943  11.674 -0.0724 -0.9501 -0.6482
15077TIP3   OH266645   2.478   5.561   2.182  0.2907 -0.2332  0.4522
15077TIP3    H166646   2.445   5.651   2.176  0.1906 -0.2744  0.4005
15077TIP3    H266647   2.518   5.544   2.097  1.3509  0.1788  0.8600
15078TIP3   OH266648   4.158   2.924  12.767  0.3773 -0.2651 -0.5219
15078TIP3    H166649   4.101   2.924  12.843  1.7726 -1.7816  0.5543
15078TIP3    H266650   4.124   2.855  12.710 -1.3435  1.6061 -1.8448
15079TIP3   OH266651   4.904   0.744   0.651 -0.1270  0.0382  0.1855
15079TIP3    H166652   4.876   0.768   0.563 -0.1400  0.8683  0.4099
15079TIP3    H266653   4.947   0.659   0.641  0.6026  0.5133 -0.7465
15080TIP3   OH266654   0.686   2.057   0.426 -0.8546 -0.7154 -0.4947
15080TIP3    H166655   0.719   2.095   0.346 -1.0668 -0.5609 -0.5095
15080TIP3    H266656   0.630   2.125   0.464  0.2748 -0.2934  0.4489
15081TIP3   OH266657   4.170   2.296   2.792  0.1746 -0.5365  0.0477
15081TIP3    H166658   4.209   2.288   2.705  1.1478  0.7677  0.3587
15081TIP3    H266659   4.132   2.384   2.794  0.0913 -0.5839  0.9119
15082TIP3   OH266660   2.981   2.186  12.282 -0.6973 -0.4910 -0.2111
15082TIP3    H166661   2.984   2.230  12.197 -1.9643  0.5614  0.2798
15082TIP3    H266662   2.966   2.094  12.260  1.7905 -0.7079 -1.2297
15083TIP3   OH266663   5.541   2.782  16.053  0.5620  0.0882 -0.4822
15083TIP3    H166664   5.527   2.782  15.958  0.8930  2.5129 -0.5635
15083TIP3    H266665   5.629   2.744  16.063  0.5683 -0.0930 -1.1333
15084TIP3   OH266666   0.469   5.474   1.912 -0.7972 -0.0656 -0.1797
15084TIP3    H166667   0.533   5.514   1.854 -0.3187  0.4601  0.6990
15084TIP3    H266668   0.504   5.387   1.930  0.1032  0.5180  0.9539
15085TIP3   OH266669   1.030   4.690   0.618 -0.6343 -0.0656 -0.8266
15085TIP3    H166670   0.998   4.709   0.706  0.2808 -0.1517 -0.4728
15085TIP3    H266671   0.960   4.639   0.578 -0.0189 -2.1781  0.6986
15086TIP3   OH266672   2.580   2.996   3.449  0.3467 -0.1348 -0.1836
15086TIP3    H166673   2.656   2.979   3.393  0.2068 -1.2737 -0.0593
15086TIP3    H266674   2.539   2.910   3.459 -0.1116  0.2038  0.9603
15087TIP3   OH266675   6.087   1.468   5.150  0.1731  0.0362  0.4644
15087TIP3    H166676   6.011   1.419   5.121 -0.3063  1.0190  0.0587
15087TIP3    H266677   6.161   1.408   5.137 -0.2806 -0.2156 -0.9621
15088TIP3   OH266678   6.148   1.808  10.751 -0.6913  0.5182 -0.0295
15088TIP3    H166679   6.125   1.730  10.802 -0.4475  0.2367 -0.3423
15088TIP3    H266680   6.207   1.775  10.683 -0.2368  1.0505  0.1018
15089TIP3   OH266681   3.755   5.456  12.042  0.3850 -0.6447  0.4586
15089TIP3    H166682   3.742   5.465  12.136  0.2130  0.1873  0.3657
15089TIP3    H266683   3.848   5.471  12.029  0.1507  0.8445  0.3397
15090TIP3   OH266684   2.562   4.013   1.624  0.0903 -0.3748 -0.1222
15090TIP3    H166685   2.525   3.964   1.698  0.8132 -1.5400 -0.5085
15090TIP3    H266686   2.572   4.102   1.657 -0.4466 -0.6754  0.8922
15091TIP3   OH266687   1.089   4.250  14.622 -0.2676 -0.0331  0.0489
15091TIP3    H166688   1.106   4.313  14.691 -1.4015  0.5250 -0.1678
15091TIP3    H266689   0.994   4.236  14.625 -0.1353 -1.0947 -0.4449
15092TIP3   OH266690   4.936   5.767  12.448 -0.0130 -0.2842 -0.1429
15092TIP3    H166691   4.933   5.672  12.445  1.0370 -0.3526  0.7174
15092TIP3    H266692   4.950   5.788  12.541 -1.4254  0.7428 -0.1403
15093TIP3   OH266693   6.353   2.515  11.967 -0.1574  0.0304  0.4424
15093TIP3    H166694   6.289   2.472  11.910 -1.9692  2.4382  0.6063
15093TIP3    H266695   6.373   2.597  11.922  2.0047 -0.1900  0.9491
15094TIP3   OH266696   5.882   5.603  11.698  0.4493  0.5364  0.6516
15094TIP3    H166697   5.873   5.692  11.663  1.4231  1.1103  1.8331
15094TIP3    H266698   5.923   5.554  11.627 -0.2028  0.9937 -0.0479
15095TIP3   OH266699   4.520   2.628   4.854  0.3257 -0.0906  0.1461
15095TIP3    H166700   4.547   2.605   4.943  1.3037  1.2272  0.2123
15095TIP3    H266701   4.425   2.633   4.858  0.4016  0.6152  1.3036
15096TIP3   OH266702   1.837   3.231  17.140 -0.1119 -0.1011  0.4270
15096TIP3    H166703   1.823   3.282  17.220  1.0290 -1.4409  1.4985
15096TIP3    H266704   1.749   3.201  17.115 -0.7332  1.8858  0.0820
15097TIP3   OH266705   1.850   3.495  13.018  0.2978 -0.0459 -0.4597
15097TIP3    H166706   1.915   3.532  12.959 -0.1582  1.2039 -0.1936
15097TIP3    H266707   1.769   3.540  12.996  0.6009  2.1968  2.7248
15098TIP3   OH266708   5.107   5.062  14.680 -0.5563  0.1684 -0.0769
15098TIP3    H166709   5.118   5.067  14.585  1.3503  0.4125  0.1477
15098TIP3    H266710   5.196   5.060  14.715 -1.2029  2.1034  1.8185
15099TIP3   OH266711   4.484   3.145   5.307 -0.2593 -0.3504 -0.5111
15099TIP3    H166712   4.463   3.205   5.379 -0.3707 -0.4035 -0.5009
15099TIP3    H266713   4.459   3.058   5.340 -0.7707 -0.3133 -0.8067
15100TIP3   OH266714   2.779   2.758  12.098  0.2159 -0.1652 -0.0714
15100TIP3    H166715   2.684   2.771  12.102  0.0957 -0.2329 -2.0195
15100TIP3    H266716   2.810   2.826  12.038  1.6976  1.1819  2.1515
15101TIP3   OH266717   5.017   6.060  13.559  0.0755  0.0690 -0.2689
15101TIP3    H166718   4.943   6.109  13.524  1.3573  0.6366 -2.3252
15101TIP3    H266719   5.019   5.980  13.507 -0.7676 -1.2659  1.6927
15102TIP3   OH266720   3.936   0.335  15.608  0.2835 -0.1757  0.0169
15102TIP3    H166721   3.852   0.368  15.639  0.0951 -0.7688  0.1512
15102TIP3    H266722   3.997   0.406  15.624 -0.1009  0.0803  0.3669
15103TIP3   OH266723   3.708   3.931  10.897  0.5765 -0.7457 -0.0024
15103TIP3    H166724   3.672   3.872  10.831  0.7329  0.4454 -1.1644
15103TIP3    H266725   3.639   3.995  10.914  1.3241  0.2403 -0.6243
15104TIP3   OH266726   4.309   6.306  12.009 -0.3890 -0.6075 -0.0152
15104TIP3    H166727   4.307   6.231  12.068 -0.8918 -2.6030 -2.4824
15104TIP3    H266728   4.373   6.283  11.942  0.9604  2.0777  0.2824
15105TIP3   OH266729   5.986   1.628   1.347  0.3572 -0.2798 -0.4620
15105TIP3    H166730   6.060   1.597   1.399  1.9992 -0.1549 -2.6545
15105TIP3    H266731   5.990   1.577   1.266 -0.7774  1.1257 -1.4310
15106TIP3   OH266732   6.387   4.714  14.137 -0.0518  0.4278 -0.1045
15106TIP3    H166733   6.346   4.721  14.223  0.8486 -0.6472  0.4246
15106TIP3    H266734   6.334   4.649  14.090  2.6938 -3.2203  1.6117
15107TIP3   OH266735   2.967   2.481   0.588 -0.9486 -0.0302 -0.3714
15107TIP3    H166736   3.032   2.551   0.582 -2.2774  1.4635  2.0203
15107TIP3    H266737   2.951   2.454   0.497  2.0197  0.4627 -1.0758
15108TIP3   OH266738   3.489   2.261   0.358 -0.0346 -0.0378  0.0567
15108TIP3    H166739   3.424   2.255   0.288 -1.2676  1.5203  1.0097
15108TIP3    H266740   3.523   2.350   0.351  0.5959 -0.2176  0.7654
15109TIP3   OH266741   2.809   5.036  13.639 -0.1307 -0.7421  0.1615
15109TIP3    H166742   2.734   5.074  13.683 -0.9526 -1.9164 -0.2092
15109TIP3    H266743   2.860   4.995  13.710  1.2719  1.8003  0.7038
15110TIP3   OH266744   5.430   4.662   4.670  0.4263  0.2234 -0.5545
15110TIP3    H166745   5.430   4.566   4.669 -1.5717  0.1903  0.6483
15110TIP3    H266746   5.471   4.685   4.754 -0.8557  0.3911  0.0296
15111TIP3   OH266747   5.458   3.804  15.601  0.1026  0.6525 -0.0621
15111TIP3    H166748   5.466   3.782  15.508 -1.7382 -0.9219  0.1261
15111TIP3    H266749   5.391   3.872  15.604  0.4034  0.9464  0.0951
15112TIP3   OH266750   4.248   3.446   5.681 -1.0367 -0.4632  0.6391
15112TIP3    H166751   4.202   3.432   5.765 -1.4608 -1.4449  0.2480
15112TIP3    H266752   4.232   3.539   5.661 -0.0743  0.0512  2.1450
15113TIP3   OH266753   2.727   5.784  11.651  0.9236  0.1134 -0.1449
15113TIP3    H166754   2.725   5.774  11.746  1.0862 -0.1417 -0.1670
15113TIP3    H266755   2.806   5.837  11.635  0.7004  0.4540 -0.1112
15114TIP3   OH266756   4.534   1.541  12.402 -0.6347  0.5254 -0.1076
15114TIP3    H166757   4.473   1.511  12.334 -0.1703  1.9979 -1.2121
15114TIP3    H266758   4.533   1.636  12.395  4.3338  0.6026 -2.5553
15115TIP3   OH266759   2.781   5.631  13.816  0.2563 -0.0168  0.7165
15115TIP3    H166760   2.757   5.686  13.741  1.1023  0.0596  0.4953
15115TIP3    H266761   2.712   5.565  13.821 -0.6744  0.9467  0.8654
15116TIP3   OH266762   6.179   3.880   0.119  0.0375  0.4372 -0.3102
15116TIP3    H166763   6.214   3.822   0.051  0.2805  1.5617 -1.1613
15116TIP3    H266764   6.084   3.882   0.102  0.1105  0.7996 -0.6909
15117TIP3   OH266765   4.712   0.470   0.473  0.1544  0.5535 -0.1468
15117TIP3    H166766   4.726   0.439   0.562  2.2117 -1.0179 -0.9572
15117TIP3    H266767   4.687   0.562   0.482 -1.9622 -0.2185  2.1295
15118TIP3   OH266768   6.746   0.624   4.492 -0.0859 -0.0833  0.5733
15118TIP3    H166769   6.818   0.643   4.552 -1.6131 -0.5888  2.6011
15118TIP3    H266770   6.727   0.531   4.506 -1.2894  0.1026  0.2165
15119TIP3   OH266771   6.056   5.580  14.726 -0.0378 -0.1600  0.0099
15119TIP3    H166772   6.061   5.636  14.803  0.1374  0.8804 -0.7419
15119TIP3    H266773   5.966   5.592  14.694 -0.2321 -0.8974  0.2822
15120TIP3   OH266774   2.670   2.059  14.562  0.0804  0.5613  0.7486
15120TIP3    H166775   2.723   2.007  14.623  1.1261  2.2326  1.3198
15120TIP3    H266776   2.708   2.040  14.476 -0.8432 -1.1432  0.7008
15121TIP3   OH266777   4.447   5.003   0.420  0.0777  0.1128  0.3089
15121TIP3    H166778   4.411   5.081   0.379 -0.3511 -0.3703 -0.2324
15121TIP3    H266779   4.478   4.949   0.348  1.2080  0.1862  0.7282
15122TIP3   OH266780   3.672   5.078  16.515  0.2807 -0.7315 -0.0477
15122TIP3    H166781   3.746   5.099  16.458  0.0551  0.8891  0.2363
15122TIP3    H266782   3.597   5.071  16.456  0.7484 -2.9662 -0.4079
15123TIP3   OH266783   3.081   3.537   5.508 -0.2805 -0.2431 -0.1797
15123TIP3    H166784   3.150   3.597   5.535  0.5246 -2.3221  2.5799
15123TIP3    H266785   3.001   3.588   5.516  0.6301  1.2698 -0.4863
15124TIP3   OH266786   4.667   0.424  11.555 -0.0633 -0.2278 -0.1524
15124TIP3    H166787   4.689   0.341  11.512 -0.9043 -0.0615 -0.8937
15124TIP3    H266788   4.727   0.427  11.630 -0.5753 -1.8997  0.3655
15125TIP3   OH266789   2.687   6.056  13.554  0.0680 -0.0330 -0.0720
15125TIP3    H166790   2.739   6.000  13.611  0.2695  0.5560  0.3316
15125TIP3    H266791   2.746   6.079  13.482  0.2068  0.2292  0.1256
15126TIP3   OH266792   5.567   5.345   3.860 -0.4632 -0.1006  0.3193
15126TIP3    H166793   5.496   5.298   3.903  0.0624 -0.9139  0.2968
15126TIP3    H266794   5.572   5.308   3.772 -1.0198  1.0278 -0.2013
15127TIP3   OH266795   5.546   0.341   5.944 -0.7972 -0.8176 -0.6089
15127TIP3    H166796   5.558   0.312   5.854  1.6149 -0.0911 -0.5748
15127TIP3    H266797   5.588   0.427   5.947  0.1033 -1.3048  1.4504
15128TIP3   OH266798   0.364   4.145  15.813 -0.2146 -0.6750 -0.3151
15128TIP3    H166799   0.294   4.113  15.756  0.2677 -0.6936 -0.9038
15128TIP3    H266800   0.389   4.229  15.774 -0.8343 -0.0094  0.6769
15129TIP3   OH266801   1.674   4.950   1.276  0.2278 -0.0652  0.2622
15129TIP3    H166802   1.622   4.888   1.328 -0.5482 -0.4194 -0.9123
15129TIP3    H266803   1.697   5.020   1.337 -0.3188 -0.6772  1.1815
15130TIP3   OH266804   2.558   0.007  16.220 -0.0538 -0.0487  0.0118
15130TIP3    H166805   2.530   0.025  16.131  2.2456  0.2705 -0.6900
15130TIP3    H266806   2.554  -0.089  16.228  0.2428 -0.1133 -0.6079
15131TIP3   OH266807   0.277   1.051   3.807 -0.2340  0.2780 -0.0715
15131TIP3    H166808   0.219   1.021   3.737 -0.8585  2.4799 -0.5101
15131TIP3    H266809   0.226   1.116   3.855  1.0299  0.4978  0.9985
15132TIP3   OH266810   5.716   1.429   1.607  0.6710  0.0578  0.7128
15132TIP3    H166811   5.793   1.478   1.636  0.4376  1.4556 -0.9592
15132TIP3    H266812   5.685   1.385   1.686  2.0383  1.0320  1.8298
15133TIP3   OH266813   2.855   0.649   4.271 -0.5691  0.0938 -0.5123
15133TIP3    H166814   2.929   0.707   4.286  0.4209 -1.2336 -0.1297
15133TIP3    H266815   2.787   0.681   4.330  1.1476 -1.2584  2.3333
15134TIP3   OH266816   3.366   6.507   6.798  0.1843 -0.4139  0.1827
15134TIP3    H166817   3.300   6.513   6.729  1.3320  0.7921 -0.8575
15134TIP3    H266818   3.316   6.510   6.880 -1.0654  0.3124 -0.5854
15135TIP3   OH266819   1.190   4.788  14.913 -0.8476 -0.6465  0.6530
15135TIP3    H166820   1.114   4.759  14.964 -0.9548  1.8568  1.9823
15135TIP3    H266821   1.172   4.879  14.893  1.7304 -0.0555  0.8435
15136TIP3   OH266822   3.721   2.117   5.276 -0.3538 -0.0515  0.2793
15136TIP3    H166823   3.663   2.155   5.342 -0.4692 -0.7300  0.5733
15136TIP3    H266824   3.807   2.153   5.296 -0.4732  0.1022  0.5171
15137TIP3   OH266825   2.442   0.884   3.826  0.6113 -0.3087  0.7299
15137TIP3    H166826   2.357   0.929   3.833  0.4899 -0.0278 -2.0632
15137TIP3    H266827   2.499   0.932   3.887 -0.3206  1.7385  0.0650
15138TIP3   OH266828   4.858   2.370  15.810  0.0274 -0.0533 -0.0918
15138TIP3    H166829   4.904   2.286  15.817 -0.0168 -0.3005 -2.3141
15138TIP3    H266830   4.923   2.431  15.777 -1.0478 -0.2710 -2.6953
15139TIP3   OH266831   0.266   2.810  11.860 -0.3335 -0.1331  0.4863
15139TIP3    H166832   0.183   2.806  11.909 -0.4831 -0.7951  0.1892
15139TIP3    H266833   0.324   2.751  11.909 -0.1595  0.0251  0.4681
15140TIP3   OH266834   1.832   1.671  13.828 -0.7245 -1.1329 -0.0360
15140TIP3    H166835   1.817   1.737  13.761  0.0710  0.6542  1.4801
15140TIP3    H266836   1.748   1.626  13.837 -0.8542 -1.3747 -2.1622
15141TIP3   OH266837   4.318   4.355  16.870 -0.2290  0.3527 -0.1428
15141TIP3    H166838   4.230   4.390  16.863 -0.1678  1.4891  3.7312
15141TIP3    H266839   4.375   4.432  16.873  0.3661 -0.1392  3.0038
15142TIP3   OH266840   4.377   4.579  12.709 -0.1855  0.2257 -0.1542
15142TIP3    H166841   4.378   4.671  12.683 -1.6400  0.4729  0.6050
15142TIP3    H266842   4.469   4.552  12.705  0.1944  1.5793 -0.8279
15143TIP3   OH266843   3.445   5.539   4.656  0.3588  0.1123 -0.6847
15143TIP3    H166844   3.436   5.542   4.751  4.1901 -1.2454 -0.1775
15143TIP3    H266845   3.469   5.629   4.631  0.7938  0.1504 -0.1501
15144TIP3   OH266846   2.985   5.486  16.875  0.3839  0.7841  0.1693
15144TIP3    H166847   2.972   5.507  16.782  1.4134  0.0156 -0.1647
15144TIP3    H266848   2.997   5.391  16.876 -0.0271  0.7364  1.1473
15145TIP3   OH266849   0.059   1.578   3.568  0.2718  0.2579 -0.5780
15145TIP3    H166850   0.036   1.649   3.628  1.6080  0.2229 -0.0072
15145TIP3    H266851   0.100   1.512   3.624  0.6676 -0.1922 -1.3890
15146TIP3   OH266852   6.728   4.186   0.110  0.7569  0.5610 -0.5697
15146TIP3    H166853   6.708   4.184   0.204  0.5242  1.0766 -0.6054
15146TIP3    H266854   6.645   4.163   0.068  0.3021  2.4133 -0.7120
15147TIP3   OH266855   5.569   1.216   2.829  0.1430 -0.0525 -0.1652
15147TIP3    H166856   5.633   1.211   2.758  0.8324 -0.0066  0.4456
15147TIP3    H266857   5.593   1.145   2.888 -1.9098 -1.6287 -1.1771
15148TIP3   OH266858   6.612   1.126  11.576  0.8045  0.2839  0.0868
15148TIP3    H166859   6.633   1.080  11.657  0.3256 -0.7689 -0.3737
15148TIP3    H266860   6.517   1.139  11.580  0.6955 -0.2852 -0.5629
15149TIP3   OH266861   3.304   2.346  15.810 -0.5211  0.0903  0.0143
15149TIP3    H166862   3.259   2.293  15.876  1.3266 -0.5554  0.7785
15149TIP3    H266863   3.270   2.313  15.727  1.3688 -3.0970  0.4056
15150TIP3   OH266864   5.674   6.557  11.817 -0.2469 -0.2591  0.1300
15150TIP3    H166865   5.635   6.522  11.737 -2.8087 -0.3096  1.3437
15150TIP3    H266866   5.729   6.485  11.850 -0.0857 -0.6471 -0.9694
15151TIP3   OH266867   4.113   6.295   3.613  0.4063  0.0399  0.1357
15151TIP3    H166868   4.161   6.289   3.530 -1.2040  0.4045 -0.8342
15151TIP3    H266869   4.133   6.383   3.645 -0.1479  0.4451 -0.6093
15152TIP3   OH266870   5.995   6.626  15.886  0.0802  0.5816  0.3455
15152TIP3    H166871   6.055   6.552  15.874  1.5112  1.1523  3.4561
15152TIP3    H266872   5.930   6.616  15.817 -0.2218 -4.0334  1.1776
15153TIP3   OH266873   4.702   1.643   1.497 -0.0501 -0.2863 -0.2994
15153TIP3    H166874   4.701   1.566   1.440 -1.9891 -0.1538 -0.4888
15153TIP3    H266875   4.617   1.641   1.540  0.7134  0.6061  1.2635
15154TIP3   OH266876   6.747   6.347  17.057 -0.1166 -0.2072  0.3867
15154TIP3    H166877   6.806   6.285  17.013  0.6663  0.8489 -0.0682
15154TIP3    H266878   6.737   6.311  17.145  0.7598 -0.7026  0.2890
15155TIP3   OH266879   6.146   5.959  11.151 -0.3509 -0.6099 -0.7907
15155TIP3    H166880   6.064   5.974  11.198  0.5462 -1.2026  1.0273
15155TIP3    H266881   6.140   5.868  11.122 -0.0041 -0.9186  0.0731
15156TIP3   OH266882   0.432   6.267   4.045 -0.0863 -0.0534 -0.2513
15156TIP3    H166883   0.465   6.243   4.131  2.4713  1.5969 -0.7165
15156TIP3    H266884   0.434   6.186   3.994  2.7623 -0.1197 -0.0810
15157TIP3   OH266885   4.403   5.284   2.303  0.1670  0.0159 -0.2559
15157TIP3    H166886   4.423   5.327   2.220 -0.5322  3.3816  1.2254
15157TIP3    H266887   4.460   5.327   2.367 -1.7553 -0.0963  1.5854
15158TIP3   OH266888   1.431   1.718   3.188  0.2705 -0.0520 -0.2941
15158TIP3    H166889   1.449   1.624   3.191 -0.4711 -0.1704  0.8772
15158TIP3    H266890   1.433   1.746   3.279 -4.2683  0.1015 -0.1122
15159TIP3   OH266891   0.780   5.438  15.409 -0.6554  0.3010  0.3975
15159TIP3    H166892   0.708   5.467  15.352 -0.2381  0.0701 -0.2454
15159TIP3    H266893   0.859   5.452  15.356 -0.3961 -1.4230  0.3220
15160TIP3   OH266894   6.029   4.329  15.443  0.6325  0.2320 -0.0232
15160TIP3    H166895   6.013   4.370  15.528  1.0755 -1.2790  0.8017
15160TIP3    H266896   6.081   4.394  15.395 -1.8588  2.1990 -0.1484
15161TIP3   OH266897   4.034   2.052   2.748 -0.0557  0.6538  0.1229
15161TIP3    H166898   4.076   2.134   2.774  2.4158 -0.6677  0.4342
15161TIP3    H266899   3.993   2.019   2.828 -0.4422  1.2212  0.1604
15162TIP3   OH266900   2.671   2.951   4.933 -0.4978 -0.3395  0.0329
15162TIP3    H166901   2.679   3.034   4.980  0.6639 -0.4018 -0.0479
15162TIP3    H266902   2.740   2.953   4.867 -1.4790 -0.6823 -1.0386
15163TIP3   OH266903   0.695   1.963   4.892 -0.3538  0.1493  0.2860
15163TIP3    H166904   0.667   2.053   4.880 -2.9427 -0.8253 -1.3740
15163TIP3    H266905   0.614   1.914   4.907  1.0004 -1.9008  1.1160
15164TIP3   OH266906   6.492   3.001   4.352 -0.5629 -0.2257 -1.0796
15164TIP3    H166907   6.479   2.988   4.446 -0.3841 -2.2713 -1.3252
15164TIP3    H266908   6.411   3.043   4.323 -1.0095 -0.4594 -0.2021
15165TIP3   OH266909   4.617   4.301  13.901  0.6437 -0.1167 -0.2807
15165TIP3    H166910   4.624   4.387  13.860  0.7632  0.0719  0.1294
15165TIP3    H266911   4.617   4.319  13.995  1.1488 -0.5981 -0.1834
15166TIP3   OH266912   6.447   2.263  16.260 -0.2812 -0.3496 -0.2011
15166TIP3    H166913   6.464   2.343  16.310 -0.6173  0.1249 -0.8257
15166TIP3    H266914   6.352   2.257  16.257 -0.2499 -1.4184  0.8412
15167TIP3   OH266915   0.434   3.742  16.997 -0.1789 -0.0758 -0.3080
15167TIP3    H166916   0.365   3.781  16.943  0.3278  0.7413 -0.3698
15167TIP3    H266917   0.505   3.723  16.936 -0.0432 -0.1960 -0.1150
15168TIP3   OH266918   1.230   6.422   3.027 -0.1727  0.1067  0.5118
15168TIP3    H166919   1.185   6.449   2.947 -1.2506 -0.6882  0.8555
15168TIP3    H266920   1.161   6.409   3.091  0.7687  2.0192  1.9781
15169TIP3   OH266921   1.622   2.312   0.977  0.1506 -1.0425  0.0760
15169TIP3    H166922   1.691   2.261   0.934  1.1320 -0.9095  1.4519
15169TIP3    H266923   1.669   2.372   1.035 -1.0909 -0.1960  0.2201
15170TIP3   OH266924   3.829   3.021  15.565  0.7992  0.0143  0.4580
15170TIP3    H166925   3.756   3.076  15.535  0.6209 -0.9675 -0.9069
15170TIP3    H266926   3.903   3.047  15.510  0.7890 -0.9009  0.0095
15171TIP3   OH266927   5.354   6.059   4.674 -0.2003  0.2439  0.3381
15171TIP3    H166928   5.395   6.022   4.752 -0.2402  0.0155  0.2500
15171TIP3    H266929   5.280   6.001   4.655 -0.0189  0.1365 -0.0382
15172TIP3   OH266930   4.673   1.742  15.556 -0.3999 -0.7666 -0.4248
15172TIP3    H166931   4.654   1.830  15.522  2.5992 -0.1520 -0.6491
15172TIP3    H266932   4.732   1.704  15.491  1.1383 -1.5929  1.4236
15173TIP3   OH266933   4.201   2.146   3.059  0.5392 -0.5267 -0.0975
15173TIP3    H166934   4.200   2.143   2.963 -1.6585  0.4082 -0.1284
15173TIP3    H266935   4.190   2.238   3.081 -0.8940 -0.9464  1.0508
15174TIP3   OH266936   0.532   2.329   2.051 -0.0117 -0.2638  0.9244
15174TIP3    H166937   0.478   2.342   2.128  1.1914  0.9379  1.5860
15174TIP3    H266938   0.588   2.407   2.047 -0.0863 -0.2922 -1.1764
15175TIP3   OH266939   5.994   3.904   5.337 -0.5021 -0.6684 -0.6613
15175TIP3    H166940   5.996   3.992   5.300 -0.7737 -0.6339 -0.5952
15175TIP3    H266941   6.080   3.892   5.377 -0.2425 -0.6679 -1.2225
15176TIP3   OH266942   5.730   5.397   6.150  0.2162  0.3708  0.4216
15176TIP3    H166943   5.765   5.486   6.147  1.1050  0.1543  3.1737
15176TIP3    H266944   5.653   5.403   6.207 -1.1871 -0.1671 -1.3823
15177TIP3   OH266945   6.488   3.702   3.414  0.2728  0.0420  0.3033
15177TIP3    H166946   6.530   3.617   3.423 -0.8739 -0.6280 -0.4048
15177TIP3    H266947   6.535   3.745   3.342 -0.3595 -0.7743 -0.6104
15178TIP3   OH266948   3.094   5.890   0.409  0.1481  0.5433 -0.1341
15178TIP3    H166949   3.137   5.920   0.489 -0.5561 -0.7872  0.7569
15178TIP3    H266950   3.004   5.872   0.434  0.0354 -0.3347 -1.1066
15179TIP3   OH266951   3.726   4.657   5.081 -0.4957 -0.3268  0.0115
15179TIP3    H166952   3.758   4.570   5.060  0.4688  0.4075 -1.7007
15179TIP3    H266953   3.673   4.683   5.006  0.3567  1.0991 -0.1269
15180TIP3   OH266954   1.605   0.206  13.322  0.2549  0.3529 -0.1587
15180TIP3    H166955   1.616   0.206  13.227  1.4539  0.1681 -0.0375
15180TIP3    H266956   1.575   0.294  13.344  0.1212  0.4395 -0.6926
15181TIP3   OH266957   2.741   0.220  17.132 -0.6214  0.0379  0.3334
15181TIP3    H166958   2.759   0.172  17.051  0.3548 -0.5553  0.9075
15181TIP3    H266959   2.827   0.239  17.169 -1.0660  0.1912  1.3092
15182TIP3   OH266960   3.614   0.365   1.634  0.0417 -0.0301 -0.6297
15182TIP3    H166961   3.647   0.454   1.627  0.6383 -0.2292 -0.4188
15182TIP3    H266962   3.559   0.365   1.712  2.5923 -0.6116  1.2332
15183TIP3   OH266963   6.311   5.668   5.670  0.2363  0.6667 -0.3850
15183TIP3    H166964   6.350   5.668   5.583 -0.1877  1.5168 -0.5784
15183TIP3    H266965   6.287   5.577   5.686  0.9532  0.3955 -0.8680
15184TIP3   OH266966   0.095   6.644  15.985 -0.1770 -0.0112 -0.0256
15184TIP3    H166967   0.129   6.697  16.057  0.4393  0.6982 -0.8253
15184TIP3    H266968   0.137   6.558  15.996  0.4290  0.2976  0.0825
15185TIP3   OH266969   0.973   6.257  13.842  0.0205 -0.5850  0.2805
15185TIP3    H166970   0.949   6.215  13.924  0.7446  1.8822  1.8104
15185TIP3    H266971   1.055   6.303  13.861  0.6061 -0.6281 -2.0365
15186TIP3   OH266972   6.288   1.365   2.282  0.1127 -0.3008 -0.7105
15186TIP3    H166973   6.329   1.296   2.230 -1.5666 -3.0063  1.4304
15186TIP3    H266974   6.194   1.347   2.277 -0.4419  2.3171 -0.7327
15187TIP3   OH266975   5.293   2.185   1.336 -0.1090 -0.1991 -0.4844
15187TIP3    H166976   5.376   2.217   1.301  1.7096 -2.8416  1.1619
15187TIP3    H266977   5.236   2.175   1.260  0.9860  1.9100 -1.6105
15188TIP3   OH266978   4.360   5.720  13.679 -0.3552  0.3334 -0.7109
15188TIP3    H166979   4.320   5.637  13.653  1.0097 -0.0980 -1.4729
15188TIP3    H266980   4.394   5.758  13.597 -2.3129  2.3965 -0.6230
15189TIP3   OH266981   0.787   0.779   1.376 -0.1507  0.4174  0.0418
15189TIP3    H166982   0.709   0.726   1.359 -0.0613  0.3771 -0.2648
15189TIP3    H266983   0.843   0.723   1.429  0.1330  0.0306 -0.6563
15190TIP3   OH266984   3.155   3.332   4.513 -0.1216 -0.0844 -0.0791
15190TIP3    H166985   3.239   3.334   4.560  0.1191 -0.3186 -0.4968
15190TIP3    H266986   3.103   3.401   4.554 -0.3615 -1.1206  1.3742
15191TIP3   OH266987   6.652   5.605   0.631  0.2870 -0.6374  0.4612
15191TIP3    H166988   6.740   5.569   0.624  0.4458 -0.3161  0.7593
15191TIP3    H266989   6.636   5.612   0.725 -0.1170 -0.8352  0.4085
15192TIP3   OH266990   4.033   0.494   1.563 -0.0114 -0.3187  0.3857
15192TIP3    H166991   4.058   0.547   1.639  1.7570 -0.6039  0.0230
15192TIP3    H266992   4.028   0.405   1.597 -1.1847 -0.1731  0.5982
15193TIP3   OH266993   5.095   0.167   3.159 -0.3430  0.7593  0.4184
15193TIP3    H166994   5.133   0.213   3.084 -0.3223  1.6662  0.9876
15193TIP3    H266995   5.142   0.084   3.162 -0.1883  0.8040 -0.4380
15194TIP3   OH266996   3.606   0.491  14.964 -0.2616 -0.0463 -0.3666
15194TIP3    H166997   3.633   0.550  14.893  0.7038  1.0380  0.8537
15194TIP3    H266998   3.581   0.550  15.035 -0.9355 -1.1154  0.2933
15195TIP3   OH266999   2.484   5.579  12.328 -0.3080 -0.3545 -0.1186
15195TIP3    H167000   2.453   5.656  12.282 -1.0999 -0.7182 -0.1939
15195TIP3    H267001   2.414   5.557  12.389  0.7927  0.2155  1.3823
15196TIP3   OH267002   1.324   5.485  16.592  0.1940 -0.4304  0.2482
15196TIP3    H167003   1.416   5.487  16.564  0.1631  1.5577  0.2440
15196TIP3    H267004   1.278   5.444  16.518  1.0510 -1.2917  0.1826
15197TIP3   OH267005   2.830   6.229   2.717  0.0514 -0.6154 -0.1414
15197TIP3    H167006   2.812   6.306   2.663 -2.4885  0.7125  2.4257
15197TIP3    H267007   2.925   6.220   2.716  0.1975  0.7004 -2.9509
15198TIP3   OH267008   1.014   4.879  11.281 -0.0638 -0.2607  0.1684
15198TIP3    H167009   1.038   4.940  11.211  1.5233 -1.1582 -0.1015
15198TIP3    H267010   0.924   4.903  11.304 -0.1116  0.9615 -1.1992
15199TIP3   OH267011   5.583   5.175   3.316  0.2185  0.3655  0.4178
15199TIP3    H167012   5.517   5.230   3.273  1.0749  0.9933 -0.1144
15199TIP3    H267013   5.651   5.162   3.250  0.6242 -0.2928  0.9503
15200TIP3   OH267014   2.945   0.677  12.094 -0.4515 -0.4247 -0.6482
15200TIP3    H167015   2.972   0.604  12.038  3.1661  0.9061 -0.7923
15200TIP3    H267016   2.976   0.653  12.181  1.4833  1.2274 -0.8413
15201TIP3   OH267017   2.388   2.567  15.426  0.0852  0.0673  0.4007
15201TIP3    H167018   2.436   2.619  15.361  0.6360 -0.1357  0.6413
15201TIP3    H267019   2.376   2.628  15.500 -0.4371  0.2617  0.1582
15202TIP3   OH267020   5.147   6.214   2.199 -0.1475  0.1820  0.0875
15202TIP3    H167021   5.229   6.166   2.212  0.2672  0.6197 -0.8598
15202TIP3    H267022   5.093   6.190   2.274  0.4818 -0.8803  0.2164
15203TIP3   OH267023   6.250   3.158   4.795  0.4455 -0.4441 -0.3161
15203TIP3    H167024   6.264   3.150   4.700  1.1666 -0.8659 -0.1792
15203TIP3    H267025   6.163   3.198   4.803  1.5197  2.1612 -1.1955
15204TIP3   OH267026   5.774   3.395   0.464 -0.0871  0.5268  0.1618
15204TIP3    H167027   5.768   3.310   0.421  1.0367  0.1707  0.6872
15204TIP3    H267028   5.690   3.438   0.445 -0.3304 -0.3599 -0.7999
15205TIP3   OH267029   5.681   4.670  16.427 -0.3963  0.3310 -0.2476
15205TIP3    H167030   5.646   4.759  16.418 -0.3909  0.5738  1.8625
15205TIP3    H267031   5.606   4.618  16.455  0.6218  0.6622  3.3348
15206TIP3   OH267032   1.092   5.603  12.622  0.1423  0.3339  0.0780
15206TIP3    H167033   1.014   5.636  12.577 -0.5197 -1.8884 -0.4576
15206TIP3    H267034   1.059   5.577  12.708 -0.5604 -4.0808 -1.4072
15207TIP3   OH267035   4.486   4.722  17.153  0.2524  0.8421  0.7851
15207TIP3    H167036   4.523   4.637  17.127  1.8714  1.6148  0.5651
15207TIP3    H267037   4.392   4.705  17.159  0.6367 -1.1814  1.5622
15208TIP3   OH267038   1.307   5.878   5.039  0.7831 -0.2896  0.0864
15208TIP3    H167039   1.365   5.933   5.093  0.3413  0.9500 -0.6847
15208TIP3    H267040   1.320   5.789   5.073  0.5614  0.4532  2.2136
15209TIP3   OH267041   2.221   1.890  15.634  0.4294  0.1474 -0.3967
15209TIP3    H167042   2.151   1.826  15.637 -0.5689  1.2603  0.5816
15209TIP3    H267043   2.188   1.960  15.577  0.5112  0.9226  0.4864
15210TIP3   OH267044   3.233   3.750  11.635  0.0295  0.6514 -0.0316
15210TIP3    H167045   3.280   3.833  11.622  2.1235 -0.4890  0.0664
15210TIP3    H267046   3.297   3.693  11.678 -1.6053 -0.8128  0.5112
15211TIP3   OH267047   6.686   2.839   1.207  0.5979  0.0426  0.3643
15211TIP3    H167048   6.608   2.857   1.154 -0.3624 -2.2698  0.9374
15211TIP3    H267049   6.658   2.855   1.297  0.5633 -1.5126  0.6313
15212TIP3   OH267050   6.104   3.938  13.847 -0.1353  0.5430  0.1465
15212TIP3    H167051   6.093   3.859  13.900 -2.2345  1.0477  0.4843
15212TIP3    H267052   6.116   4.008  13.911  0.7675  0.6436 -0.1333
15213TIP3   OH267053   2.602   4.418   1.347 -0.4607  0.5782  0.1568
15213TIP3    H167054   2.520   4.421   1.396 -1.2560  0.6511 -1.1590
15213TIP3    H267055   2.588   4.350   1.281  0.7580  0.1735  0.3052
15214TIP3   OH267056   6.468   5.072  14.176  0.0865  0.3775 -0.5671
15214TIP3    H167057   6.376   5.080  14.153  0.5270 -0.1479 -2.5800
15214TIP3    H267058   6.504   5.011  14.111  1.3376 -1.2938  1.6270
15215TIP3   OH267059   2.376   3.835  14.112 -0.0303  0.1202  0.3007
15215TIP3    H167060   2.408   3.745  14.110 -0.7509 -0.1277 -2.2365
15215TIP3    H267061   2.407   3.870  14.195 -0.0232 -2.5633  1.4760
15216TIP3   OH267062   5.393   3.634  14.571  0.5589 -0.1179 -0.1803
15216TIP3    H167063   5.387   3.630  14.667 -0.2111  1.3017 -0.1605
15216TIP3    H267064   5.304   3.652  14.543  1.3696  2.8003 -0.9773
15217TIP3   OH267065   3.991   2.109   0.259 -0.1212  0.4394  0.0151
15217TIP3    H167066   3.932   2.103   0.184 -0.2172  1.8165 -0.0318
15217TIP3    H267067   4.073   2.071   0.228  0.2530  2.1981 -1.2362
15218TIP3   OH267068   1.765   3.499   5.326 -0.5356 -0.3677 -0.2929
15218TIP3    H167069   1.738   3.584   5.361  0.5035 -0.1747  0.0478
15218TIP3    H267070   1.701   3.480   5.258 -0.2480  1.1209 -1.0055
15219TIP3   OH267071   0.837   4.311  16.664  0.4266  0.1677  0.0133
15219TIP3    H167072   0.742   4.317  16.657  0.3950 -0.7504 -0.3339
15219TIP3    H267073   0.870   4.358  16.588  0.2060 -1.8386 -1.3540
15220TIP3   OH267074   6.609   2.149  17.029  0.1306 -0.1901  0.4504
15220TIP3    H167075   6.577   2.171  17.117 -0.5623 -0.2489  0.2119
15220TIP3    H267076   6.648   2.230  16.996  0.9361 -0.3265  1.0477
15221TIP3   OH267077   4.109   5.955  15.643 -0.2146  0.2619  0.6947
15221TIP3    H167078   4.047   5.895  15.601 -0.7893  0.2675  1.5313
15221TIP3    H267079   4.148   6.004  15.570  1.4895 -2.2714 -0.1590
15222TIP3   OH267080   5.561   2.634   5.683 -0.1506 -0.7943 -0.9889
15222TIP3    H167081   5.535   2.556   5.635 -0.8097  0.2346 -2.3513
15222TIP3    H267082   5.647   2.656   5.649  0.7817 -1.8440  0.5868
15223TIP3   OH267083   1.910   6.215   2.041 -0.6636  0.3834  0.3915
15223TIP3    H167084   1.839   6.276   2.025 -0.3675  0.9972  1.4473
15223TIP3    H267085   1.929   6.222   2.134 -1.6352 -2.4173  0.8601
15224TIP3   OH267086   0.271   4.938  12.125  0.5476  0.2935 -0.1249
15224TIP3    H167087   0.256   4.888  12.205  1.3646  0.5700  0.2068
15224TIP3    H267088   0.323   4.880  12.070 -0.4165 -0.0819 -0.6605
15225TIP3   OH267089   0.877   3.856  12.808 -0.0363  0.2966 -0.2367
15225TIP3    H167090   0.811   3.880  12.743  0.5750  2.2423 -0.1899
15225TIP3    H267091   0.834   3.871  12.892  0.2245  0.9063 -0.2074
15226TIP3   OH267092   4.353   1.930  12.087 -0.1636  0.1765  0.4288
15226TIP3    H167093   4.327   1.932  12.179 -1.3708 -0.6818  0.1325
15226TIP3    H267094   4.441   1.967  12.085 -0.8958  2.0220  1.6617
15227TIP3   OH267095   2.730   2.462   5.784  0.4772 -0.3681  0.0732
15227TIP3    H167096   2.717   2.452   5.690  1.0228 -2.7391  0.2191
15227TIP3    H267097   2.818   2.497   5.792 -0.1475  1.3439 -0.3387
15228TIP3   OH267098   5.149   2.263  15.267  0.5630  0.0026  0.1631
15228TIP3    H167099   5.065   2.278  15.224  2.0043  0.2950 -2.7228
15228TIP3    H267100   5.190   2.193  15.215  2.0276 -0.2898  1.6572
15229TIP3   OH267101   6.024   0.726  15.675 -0.9052 -0.0046 -0.1053
15229TIP3    H167102   6.062   0.759  15.756 -2.2846  1.2835  0.0315
15229TIP3    H267103   6.098   0.688  15.627  0.3218  1.3551  0.6934
15230TIP3   OH267104   2.238   3.404  13.967  0.1063  0.4819  0.3026
15230TIP3    H167105   2.307   3.378  13.906 -0.0614  0.3450  0.1718
15230TIP3    H267106   2.159   3.408  13.914 -0.3350 -1.1439  0.7940
15231TIP3   OH267107   5.027   0.245  15.977 -0.0907  0.2178 -0.4536
15231TIP3    H167108   5.051   0.270  16.066  2.2806 -0.7301 -0.7936
15231TIP3    H267109   5.069   0.311  15.922 -0.1031 -0.1948 -0.9549
15232TIP3   OH267110   5.297   0.446   0.213 -0.4501 -0.3315  0.0710
15232TIP3    H167111   5.351   0.441   0.134 -1.3516 -2.3934 -0.4381
15232TIP3    H267112   5.343   0.508   0.270 -0.3606  2.0734 -2.4981
15233TIP3   OH267113   3.715   6.403  14.627 -0.3215  0.2787 -0.0217
15233TIP3    H167114   3.649   6.349  14.583  0.0259  0.6357 -0.9879
15233TIP3    H267115   3.676   6.423  14.712 -1.6303  0.7959 -0.7230
15234TIP3   OH267116   4.047   3.758  17.177 -0.0597  0.0440  0.7866
15234TIP3    H167117   4.118   3.822  17.187  0.9475 -0.9106 -0.1135
15234TIP3    H267118   3.969   3.812  17.163  0.9193  1.0877 -0.9075
15235TIP3   OH267119   3.628   5.740  16.256 -0.3171 -0.3080  0.0666
15235TIP3    H167120   3.631   5.807  16.187  1.4116  0.5690  0.9511
15235TIP3    H267121   3.719   5.713  16.266 -0.7987 -1.6787  0.8150
15236TIP3   OH267122   1.823   5.607   0.056  0.7318  0.1102 -0.0136
15236TIP3    H167123   1.785   5.521   0.040  0.1806  0.1990  0.7629
15236TIP3    H267124   1.866   5.598   0.141 -0.5585  0.9996  0.7495
15237TIP3   OH267125   6.156   2.316   4.961 -0.5830  0.4701 -0.0240
15237TIP3    H167126   6.208   2.285   4.887  0.0164 -1.0029  0.9916
15237TIP3    H267127   6.153   2.411   4.950  1.8461  0.5367 -0.4278
15238TIP3   OH267128   3.653   2.008   0.802 -0.4567  0.2532  0.2117
15238TIP3    H167129   3.647   2.065   0.726 -1.3004 -0.0694  0.0409
15238TIP3    H267130   3.594   1.936   0.784  0.6981 -0.7568  0.3710
15239TIP3   OH267131   3.536   2.613  13.302  0.0810  0.5541 -0.5430
15239TIP3    H167132   3.551   2.624  13.396  0.5753 -0.6836 -0.4660
15239TIP3    H267133   3.533   2.519  13.289  0.9744  0.6991 -1.9225
15240TIP3   OH267134   1.541   2.549   0.090 -0.3839 -0.2511  0.2274
15240TIP3    H167135   1.579   2.471   0.048 -0.0377 -0.7766  1.4983
15240TIP3    H267136   1.598   2.565   0.166 -3.0751 -1.4784  2.5839
15241TIP3   OH267137   1.156   2.695  14.741  0.1623  0.1031  0.3608
15241TIP3    H167138   1.061   2.684  14.742  0.1083  0.5902  1.1184
15241TIP3    H267139   1.171   2.772  14.687  0.0248  0.8467  1.3608
15242TIP3   OH267140   0.167   4.887  12.780 -0.4672 -0.3182 -0.3563
15242TIP3    H167141   0.160   4.970  12.825  1.0769 -0.6262  0.5106
15242TIP3    H267142   0.197   4.910  12.692  1.6245 -0.0227  0.3879
15243TIP3   OH267143   5.827   5.749  14.259  0.3546 -0.0587 -0.2021
15243TIP3    H167144   5.756   5.779  14.315 -0.0137 -1.2223 -0.0467
15243TIP3    H267145   5.834   5.817  14.192 -1.5355 -0.4162 -0.7784
15244TIP3   OH267146   3.416   2.592   0.271 -0.2233  0.2347 -1.0337
15244TIP3    H167147   3.510   2.609   0.269 -0.0465 -0.5734 -0.2345
15244TIP3    H267148   3.394   2.570   0.181  0.3420  0.4974 -1.2386
15245TIP3   OH267149   4.064   4.858   6.644  0.0258  0.4196  0.9068
15245TIP3    H167150   4.159   4.852   6.636  0.0894  1.2783  1.0088
15245TIP3    H267151   4.035   4.898   6.563 -0.3323 -0.5648  0.5395
15246TIP3   OH267152   5.686   1.650  16.956  0.0547 -0.8950 -0.0810
15246TIP3    H167153   5.612   1.592  16.975  0.7500 -1.1773  1.8975
15246TIP3    H267154   5.763   1.595  16.967  0.6141 -0.3551 -1.1971
15247TIP3   OH267155   2.987   5.695   1.955  0.1157  0.1824 -0.6169
15247TIP3    H167156   2.904   5.705   2.000  0.6692  0.6122  0.3240
15247TIP3    H267157   2.978   5.614   1.906 -0.0563 -0.9407  1.2305
15248TIP3   OH267158   4.277   2.733  15.463 -0.5618  0.0680  0.4841
15248TIP3    H167159   4.305   2.703  15.550  1.1358 -0.1050 -0.1033
15248TIP3    H267160   4.317   2.672  15.402 -2.6563 -0.4832 -0.4018
15249TIP3   OH267161   6.557   2.313  11.861 -0.1832 -0.2034  0.5630
15249TIP3    H167162   6.554   2.399  11.904  2.2337  0.8631 -1.2541
15249TIP3    H267163   6.498   2.322  11.786  0.9229  0.3077 -0.2765
15250TIP3   OH267164   1.156   3.954  11.078  0.2770 -0.3893 -0.2929
15250TIP3    H167165   1.077   3.904  11.098 -1.4257  2.0547 -0.6758
15250TIP3    H267166   1.183   3.991  11.162  0.2424 -0.1448 -0.3895
15251TIP3   OH267167   0.897   5.617   0.457  0.2641 -0.1584  0.3994
15251TIP3    H167168   0.965   5.682   0.476  0.0598 -0.1476  1.1131
15251TIP3    H267169   0.896   5.611   0.362 -2.2328  3.6093  0.0898
15252TIP3   OH267170   4.819   0.103  17.151 -1.0514  0.3579  0.0095
15252TIP3    H167171   4.743   0.156  17.127 -1.3258  0.2489  0.6519
15252TIP3    H267172   4.836   0.123  17.242 -1.5223 -1.1019  0.4381
15253TIP3   OH267173   6.643   1.606  16.830  0.5273  0.2309  0.2977
15253TIP3    H167174   6.575   1.673  16.841 -1.2321 -1.0685 -2.1575
15253TIP3    H267175   6.683   1.627  16.746 -0.4443 -2.0683 -0.8001
15254TIP3   OH267176   5.941   3.785  16.307 -0.6186 -0.2524 -0.1463
15254TIP3    H167177   5.991   3.746  16.235 -0.3030  0.6822 -0.4348
15254TIP3    H267178   5.972   3.739  16.385 -1.7193 -2.0167 -0.7044
15255TIP3   OH267179   2.345   5.851   0.143  0.2956  0.4967  0.2079
15255TIP3    H167180   2.271   5.822   0.198  0.0878 -0.5607 -0.6040
15255TIP3    H267181   2.306   5.864   0.056  0.6955  1.8139  0.2249
15256TIP3   OH267182   5.535   5.796   0.797  0.1838 -0.6075 -0.0208
15256TIP3    H167183   5.629   5.787   0.778 -0.1977  0.4459 -2.5891
15256TIP3    H267184   5.493   5.801   0.711 -2.0524  0.7327  1.0997
15257TIP3   OH267185   5.700   3.557   2.055 -0.1365  0.2920 -0.4643
15257TIP3    H167186   5.688   3.624   2.122 -0.7646  1.1554 -1.4232
15257TIP3    H267187   5.615   3.515   2.048 -0.4638  1.1094 -1.6528
15258TIP3   OH267188   2.219   4.192  13.445  0.8461 -0.0585  0.1732
15258TIP3    H167189   2.148   4.255  13.434 -0.3209 -1.4221 -0.1991
15258TIP3    H267190   2.226   4.181  13.540 -0.9001 -1.5380  0.1492
15259TIP3   OH267191   1.023   2.214   3.117  0.1215 -0.3393  0.8368
15259TIP3    H167192   1.074   2.185   3.192  4.1684  2.1086 -0.8055
15259TIP3    H267193   1.056   2.164   3.043 -0.1004  0.9815 -0.1942
15260TIP3   OH267194   6.304   2.274  15.417  0.1239  0.0596  0.1856
15260TIP3    H167195   6.230   2.225  15.451  0.4118 -0.3103  0.2767
15260TIP3    H267196   6.279   2.366  15.428 -1.4605 -0.0415 -2.2376
15261TIP3   OH267197   0.728   3.943  13.036 -0.1994  0.0179 -0.4120
15261TIP3    H167198   0.639   3.915  13.013  0.3119 -1.9042 -0.1843
15261TIP3    H267199   0.719   3.981  13.123 -1.3968  3.2584 -1.9050
15262TIP3   OH267200   4.165   1.526  14.578  0.0164  0.1773 -0.3153
15262TIP3    H167201   4.241   1.530  14.520  0.1205 -2.1976 -0.4042
15262TIP3    H267202   4.200   1.546  14.665  0.2211  1.7759 -0.7470
15263TIP3   OH267203   4.194   2.490   0.255  0.0967 -0.0338 -0.4779
15263TIP3    H167204   4.222   2.530   0.172 -0.0791  0.5367 -0.2572
15263TIP3    H267205   4.195   2.561   0.318 -2.8311  0.2363 -0.6777
15264TIP3   OH267206   5.278   0.091  12.281  0.6224  0.2551  0.2025
15264TIP3    H167207   5.296   0.182  12.257 -0.6516  0.3235 -0.5689
15264TIP3    H267208   5.186   0.091  12.306  0.0093 -1.2056 -1.8640
15265TIP3   OH267209   3.277   0.934  10.843 -0.2237  0.0508  0.1138
15265TIP3    H167210   3.326   0.884  10.777 -0.5613  0.5854 -0.5505
15265TIP3    H267211   3.273   0.876  10.919  1.7332  0.1143  0.3084
15266TIP3   OH267212   0.033   4.120  14.827  0.5603 -0.8590 -0.6760
15266TIP3    H167213  -0.022   4.073  14.764 -1.2149  1.9078 -1.3065
15266TIP3    H267214   0.040   4.208  14.791  2.1691 -0.1017  1.4247
15267TIP3   OH267215   3.911   3.156   3.876  0.6624  0.3012  0.0475
15267TIP3    H167216   3.845   3.196   3.932  0.3511  0.7881 -0.6649
15267TIP3    H267217   3.862   3.097   3.819  0.8648  0.5206 -0.3551
15268TIP3   OH267218   1.383   3.652   3.093  1.0765 -0.4245  0.5070
15268TIP3    H167219   1.467   3.648   3.048  0.4996 -0.4150 -0.5777
15268TIP3    H267220   1.363   3.746   3.096  1.6616 -0.3304  1.8216
15269TIP3   OH267221   5.653   4.718   5.743  0.1477 -0.1098  0.1253
15269TIP3    H167222   5.702   4.662   5.803 -0.4913  1.4828  2.1961
15269TIP3    H267223   5.564   4.720   5.780 -0.6041 -0.1912 -1.6404
15270TIP3   OH267224   1.837   1.037   2.187 -0.1941 -0.3550 -0.0763
15270TIP3    H167225   1.858   1.079   2.270  0.8799 -0.9254 -0.0477
15270TIP3    H267226   1.909   0.975   2.172 -1.4162 -1.7359 -0.4230
15271TIP3   OH267227   6.197   3.199   4.513 -0.1949  0.3335 -0.0329
15271TIP3    H167228   6.227   3.288   4.532  1.5027 -0.3688  0.7506
15271TIP3    H267229   6.121   3.210   4.456  1.1279  2.2452 -1.4996
15272TIP3   OH267230   1.554   4.074  15.441 -0.1526 -0.3495  0.1286
15272TIP3    H167231   1.620   4.140  15.459 -0.3492  0.8703 -3.1924
15272TIP3    H267232   1.495   4.115  15.378 -2.5014 -2.3665  0.9326
15273TIP3   OH267233   5.677   4.243   4.837 -0.0130  0.2043 -0.1964
15273TIP3    H167234   5.602   4.189   4.812 -0.0677 -0.3304  1.0846
15273TIP3    H267235   5.639   4.328   4.861 -0.0374  0.4646 -1.1611
15274TIP3   OH267236   2.732   0.718   5.016  1.0997 -0.0071  0.2881
15274TIP3    H167237   2.730   0.804   4.973  0.3907 -0.7470 -1.1945
15274TIP3    H267238   2.727   0.655   4.945  0.7338 -1.2886  1.4180
15275TIP3   OH267239   0.787   5.275  14.372  0.3262 -0.2998  0.0789
15275TIP3    H167240   0.795   5.180  14.373 -0.5361 -0.4048 -1.4642
15275TIP3    H267241   0.792   5.301  14.464 -2.0556 -2.0565  0.7365
15276TIP3   OH267242   5.819   1.637   4.658  0.0008 -0.2998 -0.4863
15276TIP3    H167243   5.831   1.544   4.676 -0.9142 -0.1471  0.9530
15276TIP3    H267244   5.859   1.650   4.571  2.0348 -1.5890  0.2313
15277TIP3   OH267245   0.583   5.703  12.978  0.0307  0.1214  0.7899
15277TIP3    H167246   0.617   5.618  13.004  0.0410 -0.0456  0.2324
15277TIP3    H267247   0.661   5.755  12.957 -0.0931 -0.6570 -1.7122
15278TIP3   OH267248   5.532   5.924  15.196  0.2817  0.2093 -0.1039
15278TIP3    H167249   5.621   5.907  15.228 -0.3258 -1.0779  0.9091
15278TIP3    H267250   5.477   5.921  15.274 -0.8996 -0.6861 -0.9573
15279TIP3   OH267251   4.588   3.746   2.981  0.2384 -0.2072 -0.0718
15279TIP3    H167252   4.595   3.654   3.007 -0.4676 -0.1215  0.4503
15279TIP3    H267253   4.678   3.774   2.969  0.4580 -0.9792 -0.2636
15280TIP3   OH267254   6.720   1.472   5.991 -1.1412 -0.2680 -0.0773
15280TIP3    H167255   6.757   1.434   6.071  0.6300  0.8853 -0.3201
15280TIP3    H267256   6.655   1.535   6.022 -2.2589 -1.5904  0.3661
15281TIP3   OH267257   3.603   1.166  11.640  0.5460  0.3930 -0.5611
15281TIP3    H167258   3.537   1.098  11.626  1.2731 -0.8055  1.5278
15281TIP3    H267259   3.602   1.218  11.560 -2.9821  0.4583 -0.5519
15282TIP3   OH267260   4.008   4.031  16.386  0.4959 -0.0118 -0.0900
15282TIP3    H167261   3.914   4.013  16.387  0.6474 -0.7911 -0.2551
15282TIP3    H267262   4.013   4.127  16.388 -0.2911  0.0257  0.8821
15283TIP3   OH267263   2.386   1.014   0.016  0.2398 -0.0613 -0.3251
15283TIP3    H167264   2.378   0.925   0.048 -1.1184  0.1399 -0.0936
15283TIP3    H267265   2.478   1.037   0.032  0.3597 -1.0706  0.4904
15284TIP3   OH267266   3.620   3.408   6.367 -0.4801 -0.6313 -0.1048
15284TIP3    H167267   3.608   3.503   6.375  0.4455 -0.5090 -0.0612
15284TIP3    H267268   3.709   3.393   6.400  0.1273 -1.2573 -1.9709
15285TIP3   OH267269   1.611   6.325   4.517  0.1665  0.2465  0.2333
15285TIP3    H167270   1.637   6.243   4.474 -1.2152  0.2654 -0.6770
15285TIP3    H267271   1.646   6.318   4.606  0.5586 -1.0749 -0.0159
15286TIP3   OH267272   3.751   0.360  13.955 -0.1379  0.6912  0.1426
15286TIP3    H167273   3.709   0.349  13.870  2.0050 -1.2666 -0.7097
15286TIP3    H267274   3.758   0.454  13.967  0.2713  0.9733 -2.2054
15287TIP3   OH267275   5.751   4.394   0.916 -0.2620 -0.1346 -0.1791
15287TIP3    H167276   5.693   4.318   0.914  0.6340 -0.8043 -1.2080
15287TIP3    H267277   5.750   4.422   1.008 -0.3309 -1.5982  0.2880
15288TIP3   OH267278   2.557   2.914   0.162  0.2285 -0.1462  0.2233
15288TIP3    H167279   2.620   2.842   0.169 -0.1664 -0.3984  1.2709
15288TIP3    H267280   2.492   2.884   0.099 -0.4417 -1.1015  1.3536
15289TIP3   OH267281   1.971   2.235   6.077  0.1292 -0.2333 -0.3344
15289TIP3    H167282   1.997   2.210   6.166 -1.3198  2.0125  0.7623
15289TIP3    H267283   1.882   2.201   6.068 -0.2235  0.7000 -0.4225
15290TIP3   OH267284   3.226   6.384   5.108  0.2387  0.7081  0.0045
15290TIP3    H167285   3.205   6.291   5.102  0.2237  0.7790 -1.0667
15290TIP3    H267286   3.160   6.427   5.053 -1.0798  1.5506  2.1725
15291TIP3   OH267287   3.666   0.254   2.302  0.0675  0.1520 -0.0590
15291TIP3    H167288   3.744   0.244   2.356  0.5035  3.1219 -0.0613
15291TIP3    H267289   3.601   0.291   2.362 -0.9638 -1.1187 -0.3730
15292TIP3   OH267290   6.530   6.726  12.020  0.3230 -0.3727 -0.2064
15292TIP3    H167291   6.484   6.758  12.097 -0.4628 -2.0177  0.0204
15292TIP3    H267292   6.610   6.778  12.017  0.0741  0.1266  1.3701
15293TIP3   OH267293   6.211   5.999   4.653 -0.2159  0.2435  0.1486
15293TIP3    H167294   6.164   5.970   4.574  0.3238  0.1229 -0.1343
15293TIP3    H267295   6.276   5.930   4.668 -0.8649 -0.1464  1.1805
15294TIP3   OH267296   1.528   1.029   0.231  0.5385  0.4780 -0.1208
15294TIP3    H167297   1.519   0.934   0.243  0.0824  0.4588 -0.5899
15294TIP3    H267298   1.448   1.055   0.185 -0.5515  1.4980  2.2438
15295TIP3   OH267299   5.401   1.990  17.210 -0.9305 -0.4783 -0.5752
15295TIP3    H167300   5.457   1.978  17.133  0.0579 -0.0146  0.0582
15295TIP3    H267301   5.462   1.997  17.283 -1.8194  0.1527  0.1198
15296TIP3   OH267302   0.362   5.544  13.711 -0.6075  0.0250 -0.1180
15296TIP3    H167303   0.294   5.567  13.774 -1.3605  1.4483 -1.4061
15296TIP3    H267304   0.380   5.627  13.665  1.2327 -0.5786 -0.4991
15297TIP3   OH267305   3.009   1.127   3.821  0.6620 -0.5530 -0.1938
15297TIP3    H167306   2.988   1.219   3.804 -0.4076 -0.7884 -0.1485
15297TIP3    H267307   2.970   1.109   3.907  0.3469 -1.2215 -0.4734
15298TIP3   OH267308   1.201   6.147   4.705 -0.2909  0.8135 -0.1012
15298TIP3    H167309   1.152   6.067   4.685  0.6724 -0.0622  1.0185
15298TIP3    H267310   1.246   6.168   4.624  0.6212 -0.6142  0.0258
15299TIP3   OH267311   1.699   5.891   1.236  0.2426 -0.5177 -0.8601
15299TIP3    H167312   1.653   5.845   1.166 -1.1804 -0.8157  0.2624
15299TIP3    H267313   1.774   5.835   1.256  0.0749 -0.9489 -1.4075
15300TIP3   OH267314   2.168   6.756   3.291 -0.2000 -0.4129  0.3389
15300TIP3    H167315   2.082   6.786   3.320 -1.2182 -1.4624 -1.4715
15300TIP3    H267316   2.203   6.707   3.365 -2.0014 -1.6034  0.4357
15301TIP3   OH267317   6.093   4.923  13.279 -0.1645 -0.0651  0.3211
15301TIP3    H167318   6.088   4.929  13.375  1.5635  0.6560  0.3953
15301TIP3    H267319   6.151   4.995  13.254 -0.0113 -0.7067 -1.2087
15302TIP3   OH267320   5.210   1.152  16.324 -0.3782 -0.2984  0.2021
15302TIP3    H167321   5.295   1.117  16.351 -0.7228 -0.5252  1.0086
15302TIP3    H267322   5.199   1.232  16.376  0.8327  1.5608 -2.3146
15303TIP3   OH267323   3.540   0.285  12.347 -0.0476 -0.1839 -0.1773
15303TIP3    H167324   3.603   0.218  12.371  0.6549 -0.0247 -1.5402
15303TIP3    H267325   3.455   0.240  12.348  0.5415 -1.4063 -2.1940
15304TIP3   OH267326   3.880   6.268  16.984  0.0343  0.3582  0.3714
15304TIP3    H167327   3.967   6.242  16.954 -0.2120  0.2257 -0.2296
15304TIP3    H267328   3.823   6.195  16.962 -0.0175 -0.0699  1.8605
15305TIP3   OH267329   2.481   5.733   3.941 -0.6646  0.0036  0.1389
15305TIP3    H167330   2.499   5.639   3.941 -0.7799 -0.0335  1.4985
15305TIP3    H267331   2.412   5.745   3.876  0.8096 -0.5425 -1.5937
15306TIP3   OH267332   0.279   0.696  16.883  0.1678 -0.7174  0.1467
15306TIP3    H167333   0.321   0.778  16.908  0.6945 -0.3269 -1.9177
15306TIP3    H267334   0.322   0.630  16.936  1.5495  0.0200 -0.0454
15307TIP3   OH267335   5.846   2.614  12.245 -0.2087 -0.5684  0.2230
15307TIP3    H167336   5.886   2.560  12.177 -0.8493 -0.8326  0.0451
15307TIP3    H267337   5.887   2.699  12.237 -0.0206 -0.7051 -0.2584
15308TIP3   OH267338   0.871   3.952   3.557 -0.0690 -0.9145  0.1816
15308TIP3    H167339   0.959   3.973   3.524 -0.4387 -1.5678 -1.2508
15308TIP3    H267340   0.829   3.906   3.485 -0.9481 -2.2938  1.5476
15309TIP3   OH267341   3.900   4.073  15.933 -0.4210  0.3836  0.1503
15309TIP3    H167342   3.917   4.150  15.880  0.2071  0.9936  1.2268
15309TIP3    H267343   3.870   4.007  15.870  1.5383  0.6914 -1.1457
15310TIP3   OH267344   2.321   4.414  11.698  0.4574 -0.0453 -0.0534
15310TIP3    H167345   2.255   4.371  11.752  0.2271  0.9912  0.5110
15310TIP3    H267346   2.388   4.347  11.684 -0.0324 -0.6736  0.5603
15311TIP3   OH267347   1.301   6.594  12.199  0.2025 -0.6632  0.5565
15311TIP3    H167348   1.208   6.588  12.217  0.6008 -1.3040  2.5413
15311TIP3    H267349   1.335   6.652  12.268  1.4552 -1.4660  0.6365
15312TIP3   OH267350   3.276   4.947   4.186 -0.5296  0.4209  0.4287
15312TIP3    H167351   3.245   4.887   4.118  2.0944  1.0838 -1.4535
15312TIP3    H267352   3.232   4.919   4.266 -1.5011 -2.1836 -0.9732
15313TIP3   OH267353   4.897   1.441  14.796 -0.7106 -0.0316  0.5645
15313TIP3    H167354   4.866   1.427  14.706  0.9078  0.8663 -0.1496
15313TIP3    H267355   4.928   1.531  14.798  1.9649 -0.9110  1.1867
15314TIP3   OH267356   3.853   0.518  13.093 -0.1837 -0.3617 -0.3379
15314TIP3    H167357   3.801   0.597  13.080  1.5023  1.4970  3.6074
15314TIP3    H267358   3.904   0.509  13.012 -0.9386  2.1168 -1.1322
15315TIP3   OH267359   5.373   4.998  10.965 -0.8120  0.1940  0.0016
15315TIP3    H167360   5.402   5.066  11.026  1.5359 -0.3808 -0.4066
15315TIP3    H267361   5.376   4.917  11.016  0.6875 -0.2156 -0.6807
15316TIP3   OH267362   6.004   1.200  16.997  0.2551 -0.0227 -0.1461
15316TIP3    H167363   5.956   1.129  17.039  0.7365 -0.8376 -0.9492
15316TIP3    H267364   6.070   1.225  17.061  1.1550 -1.4349 -0.4898
15317TIP3   OH267365   2.958   2.042  15.987 -0.0446 -0.7016  0.3016
15317TIP3    H167366   2.956   2.053  16.082  1.2026 -0.6851  0.3402
15317TIP3    H267367   2.955   2.131  15.952  2.5338 -0.5295  0.4202
15318TIP3   OH267368   2.114   1.147   3.250  0.7380  0.1438 -0.1982
15318TIP3    H167369   2.076   1.063   3.276  0.7015 -0.6570 -2.7177
15318TIP3    H267370   2.208   1.136   3.263  1.0170 -1.3004 -3.1462
15319TIP3   OH267371   5.476   2.427  13.222 -0.5976 -0.2869  0.1073
15319TIP3    H167372   5.419   2.486  13.173 -0.0496 -1.0079 -1.4174
15319TIP3    H267373   5.416   2.366  13.266 -1.0278 -0.7498 -1.1053
15320TIP3   OH267374   2.575   0.730   5.801 -0.4283  0.3083  0.4338
15320TIP3    H167375   2.504   0.681   5.761  0.0546  1.2797 -1.6734
15320TIP3    H267376   2.565   0.715   5.895 -2.7961 -0.3755  0.0973
15321TIP3   OH267377   1.808   0.448   4.778  0.0862 -0.5458  1.2982
15321TIP3    H167378   1.841   0.423   4.692 -1.0803  0.6862  0.4798
15321TIP3    H267379   1.745   0.379   4.800 -0.6601 -0.1079  0.5370
15322TIP3   OH267380   1.720   5.046   3.100  0.4478 -0.2122  0.1762
15322TIP3    H167381   1.683   5.133   3.084  0.1504 -0.3803 -0.0583
15322TIP3    H267382   1.653   5.000   3.149  0.4549 -0.4325 -0.0207
15323TIP3   OH267383   4.691   6.585  11.732 -0.0858  0.3553 -0.2701
15323TIP3    H167384   4.677   6.610  11.823 -0.6605 -0.1180 -0.2304
15323TIP3    H267385   4.623   6.520  11.713  0.2593  0.1729 -0.9233
15324TIP3   OH267386   3.275   2.276  11.147  0.2117  0.2366 -0.1845
15324TIP3    H167387   3.288   2.299  11.239  1.5552 -2.4477  0.3320
15324TIP3    H267388   3.363   2.277  11.110 -0.3717  1.7389 -1.5698
15325TIP3   OH267389   2.293   3.498  14.252  0.1717 -0.1602  0.0657
15325TIP3    H167390   2.364   3.548  14.293  0.3567  0.0638 -0.5241
15325TIP3    H267391   2.306   3.511  14.158 -0.8388  0.1417 -0.0389
15326TIP3   OH267392   2.457   2.794  11.572 -0.0132 -0.8016  0.5046
15326TIP3    H167393   2.369   2.822  11.547 -0.1129 -1.7267 -0.2184
15326TIP3    H267394   2.449   2.699  11.585  0.5172 -0.6604  2.0227
15327TIP3   OH267395   0.947   4.432  11.442 -0.8097  0.5584 -0.5987
15327TIP3    H167396   0.930   4.503  11.504 -2.1547  0.0921 -0.4079
15327TIP3    H267397   0.899   4.357  11.478 -0.6540 -0.0230 -1.5918
15328TIP3   OH267398   3.196   3.946   4.956  0.0030 -0.3545  0.6537
15328TIP3    H167399   3.241   4.027   4.979 -1.5010  2.1580 -4.5469
15328TIP3    H267400   3.266   3.881   4.947  1.7987  1.6111  0.0452
15329TIP3   OH267401   0.093   4.157  11.781  0.9954 -0.2490  0.0937
15329TIP3    H167402   0.026   4.206  11.732  1.7304 -0.7355 -1.4384
15329TIP3    H267403   0.043   4.100  11.839  0.0949  0.2517 -0.1772
15330TIP3   OH267404   3.459   6.013   0.189  0.4977  0.1952  0.1955
15330TIP3    H167405   3.545   6.047   0.165  0.1436 -0.0137 -1.4099
15330TIP3    H267406   3.427   5.969   0.111 -0.3651 -1.1868  1.3010
15331TIP3   OH267407   6.011   1.616  16.296  0.2265 -0.5617  0.0208
15331TIP3    H167408   6.059   1.622  16.379 -0.0157 -1.8750  0.2812
15331TIP3    H267409   6.074   1.642  16.229  0.4833  0.3237  0.6049
15332TIP3   OH267410   1.581   3.370  14.033  0.1550 -0.5253  0.0368
15332TIP3    H167411   1.589   3.321  13.952 -0.7082 -0.4535 -0.0929
15332TIP3    H267412   1.630   3.318  14.097 -0.0695 -1.1345 -0.2826
15333TIP3   OH267413   3.300   4.357  10.309 -0.2086 -0.2411  0.0379
15333TIP3    H167414   3.296   4.296  10.236  0.8792 -1.0731  0.6528
15333TIP3    H267415   3.233   4.423  10.289 -1.2849 -1.5386 -0.7026
15334TIP3   OH267416   6.317   5.628   3.044 -0.2403 -0.2441 -0.3531
15334TIP3    H167417   6.241   5.654   3.095 -0.2849  0.3398 -0.7089
15334TIP3    H267418   6.371   5.577   3.104 -1.6945 -2.0537 -0.5705
15335TIP3   OH267419   5.481   2.196  10.463 -0.0948 -0.3472  0.0844
15335TIP3    H167420   5.546   2.206  10.394 -0.1882  1.2603  0.2278
15335TIP3    H267421   5.400   2.172  10.418  0.4250 -1.7308 -0.1446
15336TIP3   OH267422   1.780   4.246  15.476  0.4284 -0.0427  0.1273
15336TIP3    H167423   1.824   4.247  15.561  1.1785  0.6796 -0.2632
15336TIP3    H267424   1.849   4.229  15.413  0.2286  1.4855 -0.5237
15337TIP3   OH267425   1.607   5.921   1.829  0.3487  0.9241 -0.6966
15337TIP3    H167426   1.647   5.928   1.742 -0.4963  1.3420 -1.0623
15337TIP3    H267427   1.523   5.965   1.820 -1.1592 -1.7955 -0.5529
15338TIP3   OH267428   0.761   6.350  11.911  0.1621  0.4589 -0.1007
15338TIP3    H167429   0.794   6.438  11.896  0.3415  0.4358  0.1497
15338TIP3    H267430   0.825   6.310  11.969  0.0068  0.2124 -0.0987
15339TIP3   OH267431   3.411   2.153  13.824  0.3043  0.5440  0.0759
15339TIP3    H167432   3.361   2.131  13.903  0.8067  0.2195  0.3112
15339TIP3    H267433   3.503   2.148  13.852  0.4995 -0.0363 -0.6431
15340TIP3   OH267434   2.303   5.206  13.399 -0.4689 -0.2118 -0.1986
15340TIP3    H167435   2.247   5.163  13.335  0.6500 -3.0740  0.6801
15340TIP3    H267436   2.243   5.236  13.467 -1.4489  1.2238 -1.6569
15341TIP3   OH267437   1.979   0.111   1.130 -0.4053 -0.5473 -0.1638
15341TIP3    H167438   1.912   0.179   1.137  0.4797  0.2626  0.4764
15341TIP3    H267439   1.962   0.069   1.046 -1.5154 -0.1385 -0.1488
15342TIP3   OH267440   6.264   6.195   1.285  0.2624  0.7658  0.0539
15342TIP3    H167441   6.254   6.110   1.327  2.1996  0.4039 -0.1829
15342TIP3    H267442   6.177   6.234   1.290  0.2613  0.4556  3.7192
15343TIP3   OH267443   5.077   1.863  14.078 -0.4157 -0.2909 -0.1251
15343TIP3    H167444   5.160   1.911  14.078  0.5745 -1.9592  0.1586
15343TIP3    H267445   5.064   1.837  13.987 -1.0035  0.5816 -0.2968
15344TIP3   OH267446   2.909   5.807   4.975  0.6499 -0.1594 -0.6700
15344TIP3    H167447   2.847   5.769   5.038  0.7871 -1.2233 -1.1696
15344TIP3    H267448   2.885   5.899   4.971  0.8707  0.0002  1.2271
15345TIP3   OH267449   5.016   4.568   4.810  0.2038 -0.1444  0.1638
15345TIP3    H167450   4.971   4.581   4.726  2.4865 -0.0373 -1.0785
15345TIP3    H267451   5.048   4.478   4.806 -1.9541 -1.0252  2.0707
15346TIP3   OH267452   1.883   3.848  11.953 -0.7364 -0.5099 -0.7561
15346TIP3    H167453   1.884   3.787  11.879  0.0002  0.1571 -1.2993
15346TIP3    H267454   1.975   3.872  11.965 -0.8255 -0.7689  0.5092
15347TIP3   OH267455   1.083   0.559   2.136  0.3415  0.6047  0.0852
15347TIP3    H167456   1.059   0.466   2.137  0.1532  0.6582  0.6048
15347TIP3    H267457   1.152   0.565   2.070 -0.5478  0.3197 -0.8884
15348TIP3   OH267458   2.721   5.268   1.268 -0.6238 -0.4775  0.1853
15348TIP3    H167459   2.662   5.322   1.215  0.0690  0.3797  0.2719
15348TIP3    H267460   2.809   5.301   1.247 -0.1326 -1.9768 -0.2330
15349TIP3   OH267461   1.358   0.554   3.411  0.0146  0.1595 -0.1486
15349TIP3    H167462   1.322   0.584   3.495  0.0158 -0.5147  0.0962
15349TIP3    H267463   1.288   0.502   3.372 -0.3642  1.3209 -1.0434
15350TIP3   OH267464   0.760   5.375   4.534 -0.5954 -0.2673  0.3445
15350TIP3    H167465   0.800   5.361   4.619  2.5463  2.3687 -0.5715
15350TIP3    H267466   0.799   5.308   4.478  1.4566  1.3159 -0.1825
15351TIP3   OH267467   3.474   5.844  11.767  0.0146 -0.3518 -0.2644
15351TIP3    H167468   3.566   5.821  11.752  0.2105 -0.4517  1.0576
15351TIP3    H267469   3.426   5.798  11.698  0.7675 -1.8297  0.1917
15352TIP3   OH267470   3.891   6.391  16.498 -0.0532  0.7532 -1.1428
15352TIP3    H167471   3.829   6.450  16.456  0.0327  1.3160 -0.4905
15352TIP3    H267472   3.964   6.447  16.523 -0.8491  0.7691  1.2899
15353TIP3   OH267473   2.107   0.936   1.542 -0.1114  0.1933  0.0378
15353TIP3    H167474   2.088   0.965   1.631 -1.1348  0.7125 -0.3490
15353TIP3    H267475   2.150   1.011   1.501  1.5102 -0.4817  0.4708
15354TIP3   OH267476   6.752   0.890   1.561  0.3664  0.2230 -0.3889
15354TIP3    H167477   6.833   0.940   1.569 -0.0784  0.6275  1.9411
15354TIP3    H267478   6.727   0.870   1.652 -1.4843 -0.9451 -1.1282
15355TIP3   OH267479   2.754   3.510  13.252  0.5705 -0.6079 -0.5777
15355TIP3    H167480   2.778   3.437  13.309  0.6764  0.2683  0.5202
15355TIP3    H267481   2.771   3.477  13.163 -0.2790 -2.2305 -0.1570
15356TIP3   OH267482   6.054   1.186  15.577  0.2399 -0.5280 -0.1847
15356TIP3    H167483   5.990   1.227  15.518  0.6997  0.4837  0.0125
15356TIP3    H267484   6.137   1.192  15.529  0.6006  0.2226  0.5274
15357TIP3   OH267485   3.127   1.808  12.061  0.2248  0.4751 -0.0566
15357TIP3    H167486   3.085   1.722  12.059  1.2685 -0.0289 -0.3141
15357TIP3    H267487   3.107   1.846  11.975  0.9599 -0.0873 -0.4811
15358TIP3   OH267488   3.763   1.120   0.481  0.7776  0.6089  0.2034
15358TIP3    H167489   3.819   1.132   0.557  0.3222 -0.0310  0.6458
15358TIP3    H267490   3.701   1.052   0.507  1.4228 -0.5608 -1.1746
15359TIP3   OH267491   5.975   4.793  16.399  0.0812 -0.3368 -0.5230
15359TIP3    H167492   5.975   4.757  16.487  0.6815 -0.4799 -0.5799
15359TIP3    H267493   5.903   4.747  16.355 -0.6381  0.2013  0.0721
15360TIP3   OH267494   1.708   6.453   0.386  0.1683  0.0093  0.3167
15360TIP3    H167495   1.650   6.480   0.315 -0.7522 -0.2617  0.9648
15360TIP3    H267496   1.666   6.377   0.424  2.6333 -2.2767 -1.3474
15361TIP3   OH267497   5.460   2.733  15.785  0.4842 -0.5236  0.8666
15361TIP3    H167498   5.475   2.690  15.701  1.5407 -2.7130  2.1513
15361TIP3    H267499   5.376   2.698  15.815 -0.4568  1.1208  0.2275
15362TIP3   OH267500   1.019   4.090  16.582 -0.5956 -0.3266  0.0262
15362TIP3    H167501   1.053   4.051  16.663 -0.8302  0.4497  0.5101
15362TIP3    H267502   0.950   4.150  16.612  0.3280  1.1033 -0.6238
15363TIP3   OH267503   2.093   1.914   1.939  0.0541  0.4241 -0.3700
15363TIP3    H167504   2.044   1.970   1.879  0.4417  0.5348 -0.5839
15363TIP3    H267505   2.105   1.832   1.892 -0.1439  0.3068 -0.2194
15364TIP3   OH267506   2.736   1.596  14.642  0.1853  0.4123 -0.8011
15364TIP3    H167507   2.728   1.515  14.592  2.3599 -1.3368  1.5651
15364TIP3    H267508   2.818   1.635  14.611 -0.7002  1.5659 -1.7120
15365TIP3   OH267509   4.668   5.104   3.104  0.1278  0.3671 -0.4842
15365TIP3    H167510   4.651   5.024   3.154  0.6120  1.8593  2.2281
15365TIP3    H267511   4.760   5.099   3.079 -0.3725 -0.8462 -2.0860
15366TIP3   OH267512   4.685   0.781  14.124 -0.4351 -0.4050  0.1754
15366TIP3    H167513   4.618   0.799  14.058 -0.3253 -0.2946  0.0939
15366TIP3    H267514   4.637   0.740  14.196 -1.0742  2.1879  1.2987
15367TIP3   OH267515   2.821   3.707  11.299 -0.3357 -0.9476 -0.1981
15367TIP3    H167516   2.896   3.713  11.358 -0.1942 -1.5263 -0.3153
15367TIP3    H267517   2.859   3.688  11.213 -0.4569  1.0363 -0.7104
15368TIP3   OH267518   6.491   0.050  13.752  0.0021  0.1165 -0.1815
15368TIP3    H167519   6.451  -0.034  13.772 -2.0020  0.6431 -1.8055
15368TIP3    H267520   6.557   0.062  13.820 -0.7778 -2.0173  1.0014
15369TIP3   OH267521   2.178   2.165  13.069 -0.6586  0.1194  0.8476
15369TIP3    H167522   2.267   2.154  13.035 -0.8213  3.0039 -0.6555
15369TIP3    H267523   2.165   2.090  13.127  2.6559 -0.4963  0.8853
15370TIP3   OH267524   3.854   6.515   5.806 -0.4573 -0.1661 -0.4967
15370TIP3    H167525   3.767   6.477   5.806  0.3344 -2.0472  1.0142
15370TIP3    H267526   3.882   6.511   5.714 -0.9607 -1.9013 -0.5797
15371TIP3   OH267527   1.569   2.309  14.791  0.3484 -0.0804  0.0768
15371TIP3    H167528   1.602   2.225  14.824  1.2667  0.3877  0.3614
15371TIP3    H267529   1.518   2.345  14.864 -0.4646 -0.6141 -0.2190
15372TIP3   OH267530   3.088   6.408  17.142  0.3227 -0.2017 -0.6405
15372TIP3    H167531   3.009   6.356  17.129  0.2072 -0.2082  0.0880
15372TIP3    H267532   3.066   6.494  17.107 -0.1830 -0.0560  0.0221
15373TIP3   OH267533   6.206   3.435  13.143 -0.3281  0.0931  0.4189
15373TIP3    H167534   6.230   3.494  13.214 -0.4979  0.5293  0.1206
15373TIP3    H267535   6.209   3.490  13.065  3.3247 -1.2207 -0.4363
15374TIP3   OH267536   4.620   6.622  12.405  0.5863 -0.4629  0.2390
15374TIP3    H167537   4.600   6.667  12.487  0.6718 -0.4680  0.2636
15374TIP3    H267538   4.690   6.675  12.366  1.6517 -1.3598  0.9293
15375TIP3   OH267539   5.745   6.699  11.058 -0.4726 -0.3045  0.0520
15375TIP3    H167540   5.802   6.637  11.013 -0.3465 -1.0415  1.2073
15375TIP3    H267541   5.656   6.672  11.034 -0.3853 -0.2266 -0.3549
15376TIP3   OH267542   6.514   5.203   1.779 -0.5771 -0.0227  0.5101
15376TIP3    H167543   6.479   5.253   1.852  0.5163  1.0710  0.2979
15376TIP3    H267544   6.599   5.242   1.761 -0.6274 -0.5782 -1.0442
15377TIP3   OH267545   4.981   5.295  13.192  0.0118 -0.0049 -0.5639
15377TIP3    H167546   4.996   5.208  13.156 -0.8442  0.0544 -1.0715
15377TIP3    H267547   4.948   5.346  13.118 -1.6933  0.1403  0.2711
15378TIP3   OH267548   4.716   0.514  14.692 -0.5130  0.4983  0.7560
15378TIP3    H167549   4.769   0.578  14.741 -0.3936  0.0241  1.2501
15378TIP3    H267550   4.676   0.566  14.622 -0.6618  1.1796  1.3348
15379TIP3   OH267551   1.585   3.601   0.706 -0.0139  0.7653  0.9328
15379TIP3    H167552   1.535   3.571   0.781  1.2149  0.6316  1.7096
15379TIP3    H267553   1.521   3.648   0.652 -0.8332  1.1545  2.2139
15380TIP3   OH267554   1.537   2.200   5.588 -0.3176 -0.3303  0.1280
15380TIP3    H167555   1.585   2.159   5.516 -0.7319 -1.0555  0.2606
15380TIP3    H267556   1.599   2.262   5.626  1.1886 -2.6950  1.5546
15381TIP3   OH267557   6.371   0.287  16.187 -0.0366 -0.2017 -0.6386
15381TIP3    H167558   6.444   0.344  16.166 -0.0289 -0.5401 -1.5629
15381TIP3    H267559   6.401   0.199  16.161 -0.0750 -0.6191  0.6857
15382TIP3   OH267560   6.739   4.023  15.062  0.0313  0.5334 -0.3277
15382TIP3    H167561   6.816   4.000  15.114  0.5807  1.2708 -0.8122
15382TIP3    H267562   6.772   4.079  14.992 -1.1074  1.8086  0.1248
15383TIP3   OH267563   6.031   5.676  15.981  0.1878 -0.2041  0.0001
15383TIP3    H167564   5.942   5.711  15.986 -0.3119 -1.2465 -1.4144
15383TIP3    H267565   6.086   5.753  15.969 -0.6064  0.3742  0.0466
15384TIP3   OH267566   1.893   4.799  12.061  0.3294  0.5802 -0.5498
15384TIP3    H167567   1.911   4.777  12.153 -2.5666 -0.6458 -0.2267
15384TIP3    H267568   1.837   4.877  12.066  0.9744  1.1056 -1.3343
15385TIP3   OH267569   3.259   0.009  15.518  0.0726  0.1073 -0.1944
15385TIP3    H167570   3.204   0.075  15.477  0.9305  0.4802 -0.7468
15385TIP3    H267571   3.347   0.024  15.482  0.5046 -0.5942  0.5400
15386TIP3   OH267572   6.429   2.039  16.847  0.1397 -0.5930 -0.1811
15386TIP3    H167573   6.481   2.073  16.920 -0.4709 -0.3421  0.1494
15386TIP3    H267574   6.370   2.111  16.825  0.7541 -0.4398 -1.3495
15387TIP3   OH267575   4.162   1.378   5.582 -0.0565 -0.0481 -0.7515
15387TIP3    H167576   4.221   1.445   5.547  0.2458  0.1617  0.1437
15387TIP3    H267577   4.127   1.334   5.504  0.4076  0.5742 -1.3226
15388TIP3   OH267578   3.547   0.681  14.326  0.2817  0.1794  0.5513
15388TIP3    H167579   3.534   0.597  14.282 -0.9015  0.3495  0.5467
15388TIP3    H267580   3.524   0.747  14.261 -0.1788  0.4634  0.9929
15389TIP3   OH267581   4.857   4.391  14.390 -0.2075 -1.1953  0.2473
15389TIP3    H167582   4.893   4.304  14.403  1.2132 -0.6107  0.3439
15389TIP3    H267583   4.826   4.418  14.476  2.6260 -0.1976  1.0022
15390TIP3   OH267584   2.184   6.190  10.633 -0.5871  0.3364 -0.2162
15390TIP3    H167585   2.092   6.203  10.607 -0.4784  0.2251 -0.6500
15390TIP3    H267586   2.234   6.226  10.561 -0.2687 -1.7517 -1.0710
15391TIP3   OH267587   1.565   2.337  16.556 -0.3086 -0.0680  0.4082
15391TIP3    H167588   1.492   2.278  16.575 -2.3819  2.0698 -0.5886
15391TIP3    H267589   1.589   2.316  16.465 -1.6379  1.1496 -0.2562
15392TIP3   OH267590   2.039   4.108   0.043  0.4950 -0.0624  0.1216
15392TIP3    H167591   2.054   4.107  -0.052  1.6710  0.0922  0.3008
15392TIP3    H267592   1.988   4.029   0.059 -1.3706  0.9171 -0.8987
15393TIP3   OH267593   2.136   3.127   5.330  0.6747 -0.0347  0.1711
15393TIP3    H167594   2.149   3.211   5.374  1.8474 -0.0062 -0.2078
15393TIP3    H267595   2.212   3.075   5.357  1.3244 -0.0768 -1.6792
15394TIP3   OH267596   5.560   6.558   3.187  0.9057  0.0216  0.1040
15394TIP3    H167597   5.630   6.568   3.252  1.0946  2.3572 -0.4262
15394TIP3    H267598   5.480   6.567   3.238  1.0239  0.1717  0.2658
15395TIP3   OH267599   4.065   1.438  11.861  0.2019  0.4828  0.2542
15395TIP3    H167600   4.096   1.470  11.946  2.4756 -0.3706 -0.2311
15395TIP3    H267601   4.010   1.509  11.828 -0.3754  1.0089  2.2306
15396TIP3   OH267602   0.606   1.060   2.799  0.0274  0.3725 -0.4297
15396TIP3    H167603   0.698   1.037   2.784 -0.3963 -0.5876 -1.6820
15396TIP3    H267604   0.605   1.156   2.797  1.1256  0.4154  0.3892
15397TIP3   OH267605   3.541   5.221  15.409  0.7293  0.1066  0.5722
15397TIP3    H167606   3.617   5.172  15.377 -1.2983 -1.4107 -2.2258
15397TIP3    H267607   3.532   5.294  15.348 -0.0504  0.2737  0.8735
15398TIP3   OH267608   1.257   3.398  16.156 -0.0815 -0.1147 -0.3576
15398TIP3    H167609   1.161   3.398  16.150 -0.0824  0.9017 -0.5962
15398TIP3    H267610   1.286   3.370  16.069 -0.1697  0.7207 -0.6697
15399TIP3   OH267611   0.565   3.798  15.152  0.0273 -0.5718  0.1695
15399TIP3    H167612   0.583   3.851  15.075  1.5499 -0.1064  0.8174
15399TIP3    H267613   0.546   3.711  15.119 -0.5241 -0.0861 -0.7933
15400TIP3   OH267614   4.591   2.334  12.480  0.7160 -0.0594 -0.0903
15400TIP3    H167615   4.498   2.313  12.466  0.7216  0.5646 -1.1047
15400TIP3    H267616   4.622   2.265  12.539 -0.3155 -0.4493  0.0145
15401TIP3   OH267617   1.970   4.408   1.557 -0.0539 -0.0553 -0.2844
15401TIP3    H167618   1.888   4.429   1.513 -1.0055 -0.2479  1.3803
15401TIP3    H267619   2.010   4.493   1.576 -0.8064  0.0984  0.6433
15402TIP3   OH267620   6.466   1.265  11.887 -0.6703 -0.1741  0.3916
15402TIP3    H167621   6.407   1.209  11.837 -0.5012  0.8233 -0.9466
15402TIP3    H267622   6.412   1.296  11.960 -1.9128  0.9004 -0.9307
15403TIP3   OH267623   1.989   1.363  15.931 -0.1763  0.2363 -0.3708
15403TIP3    H167624   1.941   1.338  15.853 -0.5756  2.1175 -0.7578
15403TIP3    H267625   1.928   1.418  15.981  0.7045  0.5954  0.3383
15404TIP3   OH267626   0.450   1.587  16.898  0.6695 -0.2470 -0.7061
15404TIP3    H167627   0.377   1.641  16.868  2.1808  2.3610  0.1296
15404TIP3    H267628   0.515   1.592  16.827  0.7897 -1.0517 -0.6624
15405TIP3   OH267629   1.176   4.143  11.333  0.1562  0.3249  0.0463
15405TIP3    H167630   1.202   4.218  11.279  2.2269  0.7511  1.5699
15405TIP3    H267631   1.083   4.157  11.351  0.7409  3.0681  1.1299
15406TIP3   OH267632   3.834   0.190   4.435  0.2395 -0.4008  0.5411
15406TIP3    H167633   3.757   0.242   4.459 -0.0167 -1.1542  1.3388
15406TIP3    H267634   3.815   0.160   4.346  1.0626  2.1368 -0.5665
15407TIP3   OH267635   1.101   2.430   2.862 -0.2724  0.2411 -0.5349
15407TIP3    H167636   1.167   2.450   2.795 -1.4356 -1.4061 -2.1940
15407TIP3    H267637   1.115   2.338   2.883 -0.5879  0.4792  0.7637
15408TIP3   OH267638   2.057   2.688   5.013 -0.3919  0.5293  0.2374
15408TIP3    H167639   2.036   2.621   5.078 -0.0850  0.2425  0.0399
15408TIP3    H267640   2.047   2.771   5.060  0.5995  0.2978  0.8803
15409TIP3   OH267641   2.749   5.178  13.235 -0.1235 -0.6067 -0.3001
15409TIP3    H167642   2.705   5.163  13.318  0.6528  0.6374  0.3588
15409TIP3    H267643   2.835   5.138  13.246  0.4275  0.6108 -0.0397
15410TIP3   OH267644   6.223   2.804   2.749  0.7162 -0.0915  0.5478
15410TIP3    H167645   6.250   2.825   2.838  0.6731  0.2086  0.4904
15410TIP3    H267646   6.302   2.816   2.696 -0.0022  2.8087  0.0542
15411TIP3   OH267647   3.480   4.242   1.069 -0.1512 -0.1561  0.1720
15411TIP3    H167648   3.417   4.223   1.139 -0.6829  0.6517 -0.0825
15411TIP3    H267649   3.559   4.270   1.116 -0.7767  1.1825  0.4368
15412TIP3   OH267650   3.630   3.376  13.858  0.3808  0.1403 -0.0057
15412TIP3    H167651   3.705   3.433  13.868 -0.5289  1.4169 -0.3338
15412TIP3    H267652   3.580   3.413  13.786  0.1700 -1.5181 -0.7440
15413TIP3   OH267653   2.269   5.104  11.395  0.4768  0.4288  0.7768
15413TIP3    H167654   2.252   5.162  11.469  0.2093  1.6662 -0.2327
15413TIP3    H267655   2.297   5.163  11.325  1.1490 -0.7787  0.0233
15414TIP3   OH267656   2.382   2.473   4.485 -0.5509  0.0775 -0.6196
15414TIP3    H167657   2.365   2.527   4.408 -0.5009 -0.8132 -1.2646
15414TIP3    H267658   2.396   2.535   4.556  0.4626  0.9371 -1.5551
15415TIP3   OH267659   3.502   3.934  13.500 -0.4553  0.0817 -0.2248
15415TIP3    H167660   3.541   3.986  13.429  0.5599  1.1328  1.0812
15415TIP3    H267661   3.575   3.880  13.532 -1.1963 -1.2355 -0.7236
15416TIP3   OH267662   4.846   1.942   5.698  0.3749 -0.5560  0.2753
15416TIP3    H167663   4.833   1.892   5.617 -1.6763  0.3798  0.0031
15416TIP3    H267664   4.835   2.033   5.671  0.8511 -0.1654  1.3975
15417TIP3   OH267665   0.714   0.515   1.812  0.0495  0.0383 -0.0485
15417TIP3    H167666   0.656   0.506   1.736 -0.0390 -2.8649  0.2843
15417TIP3    H267667   0.793   0.468   1.787  0.3474 -0.2167  1.3197
15418TIP3   OH267668   0.830   6.442   0.561  0.3545  0.1620  0.3695
15418TIP3    H167669   0.900   6.404   0.509  0.7649 -0.4488  1.3550
15418TIP3    H267670   0.802   6.371   0.619  0.1860  0.9594  1.2716
15419TIP3   OH267671   1.020   2.972  13.192 -0.1117  0.1450 -0.3904
15419TIP3    H167672   1.050   2.910  13.125  0.8695  0.8910 -0.6387
15419TIP3    H267673   0.977   3.042  13.142  0.1957  0.4653 -0.2042
15420TIP3   OH267674   3.800   4.404   6.051 -0.2497  0.5135  0.0567
15420TIP3    H167675   3.762   4.442   6.130 -2.4827 -0.9108 -0.2911
15420TIP3    H267676   3.782   4.467   5.982 -0.4903  0.6090  0.2097
15421TIP3   OH267677   6.301   0.426  11.321 -0.1540  0.2606 -0.2986
15421TIP3    H167678   6.230   0.440  11.259 -0.6816 -0.7481  0.0776
15421TIP3    H267679   6.343   0.512  11.328  0.1440  0.2929 -2.3193
15422TIP3   OH267680   6.033   5.975   4.879 -0.0288 -0.3364  0.3402
15422TIP3    H167681   6.109   5.982   4.821 -0.3443 -2.1760 -0.3546
15422TIP3    H267682   5.968   6.034   4.842  0.7754  0.6376  0.4727
15423TIP3   OH267683   0.873   0.952  14.692 -0.1142  0.1455  0.1469
15423TIP3    H167684   0.969   0.952  14.689 -0.1325 -0.4362 -0.5266
15423TIP3    H267685   0.852   0.989  14.778  0.7268 -0.4143  0.6032
15424TIP3   OH267686   4.598   5.079  15.534  0.0553  0.2670 -0.0688
15424TIP3    H167687   4.580   5.149  15.597 -0.7095  0.9023 -0.9669
15424TIP3    H267688   4.676   5.035  15.568 -0.1438  0.8151  1.1283
15425TIP3   OH267689   4.529   2.310  11.994 -0.2015 -0.5668 -0.7109
15425TIP3    H167690   4.539   2.302  11.899 -0.1135 -0.6010 -0.6993
15425TIP3    H267691   4.619   2.307  12.027 -0.1766  0.2432 -0.6892
15426TIP3   OH267692   0.987   2.152   1.182 -0.1827  0.4678  0.6420
15426TIP3    H167693   1.008   2.237   1.142  3.3107  0.2000  1.7025
15426TIP3    H267694   1.057   2.094   1.153 -2.7957 -2.2351 -0.4302
15427TIP3   OH267695   2.392   2.664  13.407 -0.0802  0.0167 -0.0371
15427TIP3    H167696   2.469   2.639  13.356  0.1477  1.7837 -0.5765
15427TIP3    H267697   2.427   2.704  13.487 -0.4401 -2.1782  1.2838
15428TIP3   OH267698   2.000   4.252   3.245 -0.2747 -0.4461  0.1633
15428TIP3    H167699   2.025   4.160   3.251 -0.8990 -0.6792 -0.7580
15428TIP3    H267700   1.976   4.276   3.335  0.4071 -1.0237  0.5049
15429TIP3   OH267701   4.965   4.086  12.640 -0.4999  0.5272  0.1668
15429TIP3    H167702   4.869   4.084  12.643 -0.5217 -0.5978 -0.8125
15429TIP3    H267703   4.986   4.171  12.601 -1.1784 -0.1630 -1.7773
15430TIP3   OH267704   4.575   1.815  14.392 -0.6909 -0.0701  0.1181
15430TIP3    H167705   4.519   1.744  14.361 -0.6356 -0.2000  0.3189
15430TIP3    H267706   4.524   1.894  14.376 -1.6508 -0.3007  1.8593
15431TIP3   OH267707   3.376   3.393   6.626  0.6407 -0.0862  0.5730
15431TIP3    H167708   3.342   3.305   6.641  1.4604 -0.6664 -0.9203
15431TIP3    H267709   3.424   3.387   6.544  0.3300  1.8673  0.2246
15432TIP3   OH267710   4.602   5.713   5.752 -0.2619 -0.0731 -0.3951
15432TIP3    H167711   4.636   5.802   5.764  0.8919 -0.5246 -0.3064
15432TIP3    H267712   4.625   5.690   5.662 -0.0037 -0.5131 -0.2205
15433TIP3   OH267713   3.481   0.286  11.653  0.0092 -0.3015  0.1293
15433TIP3    H167714   3.434   0.257  11.575  0.2059  0.1697 -0.1655
15433TIP3    H267715   3.507   0.205  11.697  0.7987 -0.5902 -0.8325
15434TIP3   OH267716   4.660   4.614  16.323 -0.2761 -0.4857  0.5776
15434TIP3    H167717   4.604   4.540  16.345 -0.6015 -0.2416  0.5754
15434TIP3    H267718   4.604   4.691  16.334  0.1176 -0.2242  0.7831
15435TIP3   OH267719   2.986   6.615   5.813  0.0409  0.5014  0.4076
15435TIP3    H167720   2.988   6.669   5.734 -2.0858  1.3532  0.9000
15435TIP3    H267721   2.995   6.678   5.885  1.2099 -0.1935  0.8926
15436TIP3   OH267722   1.619   5.829   0.062 -0.0089  0.4831 -0.1454
15436TIP3    H167723   1.628   5.735   0.081 -0.5542  0.0065 -2.1466
15436TIP3    H267724   1.666   5.872   0.133  1.0869 -1.3403  0.2645
15437TIP3   OH267725   0.370   0.978  11.488 -0.5392 -0.6467  0.4578
15437TIP3    H167726   0.437   1.024  11.538  0.7338 -2.2412  0.2244
15437TIP3    H267727   0.326   0.922  11.551  0.3379 -1.8386  0.0155
15438TIP3   OH267728   5.623   4.262  14.583  0.0871 -0.3801 -0.0690
15438TIP3    H167729   5.531   4.250  14.558  0.7185 -1.3635 -2.1055
15438TIP3    H267730   5.663   4.176  14.570  1.2698  0.0061  0.8891
15439TIP3   OH267731   6.092   0.315  16.125 -0.0221  0.6228 -0.2638
15439TIP3    H167732   6.104   0.374  16.051 -0.5703  2.4345  1.0671
15439TIP3    H267733   6.175   0.318  16.172  0.3847 -0.6586 -0.8779
15440TIP3   OH267734   0.753   5.149   3.576  0.0424 -0.5282 -0.6769
15440TIP3    H167735   0.671   5.107   3.551 -0.0393 -1.1456  0.5996
15440TIP3    H267736   0.732   5.194   3.658  0.8800 -0.3727 -0.5493
15441TIP3   OH267737   1.146   0.815  14.979 -0.0262  0.1856  0.2647
15441TIP3    H167738   1.226   0.857  15.009 -0.2054  0.6079  0.1457
15441TIP3    H267739   1.110   0.874  14.913  0.1956 -0.5812 -0.5505
15442TIP3   OH267740   1.022   3.949  11.913  0.1018  0.6317  0.7388
15442TIP3    H167741   0.936   3.929  11.877 -0.6425  3.7215  0.6645
15442TIP3    H267742   1.016   3.925  12.005 -0.0058 -1.4857  0.1984
15443TIP3   OH267743   4.034   4.918  16.253  0.2441  0.0995 -0.0292
15443TIP3    H167744   4.005   4.876  16.172  0.0724 -1.0667  0.6258
15443TIP3    H267745   4.129   4.912  16.250  0.2048 -0.6183  0.2168
15444TIP3   OH267746   5.970   2.855  12.234  0.5092  0.3589  0.4034
15444TIP3    H167747   5.959   2.949  12.220  0.2700  0.6002  2.1077
15444TIP3    H267748   6.023   2.826  12.160  0.1446  1.7293 -0.4268
15445TIP3   OH267749   2.548   0.990   4.920  0.2195 -0.3604  0.3787
15445TIP3    H167750   2.641   1.001   4.900 -0.0378 -0.5829 -0.9709
15445TIP3    H267751   2.510   0.954   4.840 -1.2118  0.6416  0.5876
15446TIP3   OH267752   1.408   0.133   1.032 -0.1811  0.2599  0.2071
15446TIP3    H167753   1.473   0.201   1.019  1.5993 -1.5608 -0.6633
15446TIP3    H267754   1.338   0.154   0.971  0.2820  1.3603  0.0415
15447TIP3   OH267755   5.183   5.790  15.225  0.3890 -0.2710 -0.2992
15447TIP3    H167756   5.226   5.799  15.140 -2.4393 -0.0685 -1.7916
15447TIP3    H267757   5.158   5.879  15.249  0.5368 -0.4131  0.3839
15448TIP3   OH267758   0.299   3.178   4.273  0.5533  0.0773  0.1772
15448TIP3    H167759   0.263   3.132   4.350  4.0305 -0.7102  1.4150
15448TIP3    H267760   0.301   3.111   4.204 -0.6619  0.2332 -0.0243
15449TIP3   OH267761   1.558   3.829  11.985 -1.0284 -0.7263 -0.1834
15449TIP3    H167762   1.645   3.812  12.019 -0.4131  1.0164 -0.8335
15449TIP3    H267763   1.573   3.865  11.898 -2.3556  0.0754 -0.0980
15450TIP3   OH267764   3.178   4.625   3.601  0.1892 -0.2652 -0.0067
15450TIP3    H167765   3.220   4.633   3.516  0.3851  0.7059  0.1690
15450TIP3    H267766   3.208   4.542   3.636  1.8155  0.3237  0.0277
15451TIP3   OH267767   2.230   6.250  15.869  0.2214  0.4916  0.3477
15451TIP3    H167768   2.159   6.313  15.861 -1.3084 -1.1451  0.5182
15451TIP3    H267769   2.256   6.231  15.778 -2.0965 -1.6097  0.0473
15452TIP3   OH267770   2.217   2.890  15.339  0.1979 -0.0475 -0.8421
15452TIP3    H167771   2.274   2.966  15.349  0.1483 -0.1048 -0.1424
15452TIP3    H267772   2.163   2.890  15.417 -1.2711  0.4285 -1.8277
15453TIP3   OH267773   1.522   1.723  15.170  0.3826  0.3801  0.0066
15453TIP3    H167774   1.579   1.757  15.100  0.3782 -1.0593 -0.6983
15453TIP3    H267775   1.582   1.700  15.241  0.7317 -1.6122 -0.9304
15454TIP3   OH267776   6.466   5.485  13.207  0.2091  0.0858 -0.5401
15454TIP3    H167777   6.446   5.576  13.185 -0.4691  0.0374 -0.1212
15454TIP3    H267778   6.562   5.481  13.204  0.2242  0.6877 -1.0528
15455TIP3   OH267779   5.033   1.203   2.689 -0.0692  0.4388 -0.5063
15455TIP3    H167780   5.093   1.170   2.755 -0.3732 -0.1997 -0.5403
15455TIP3    H267781   5.058   1.157   2.608  0.1763  1.0700 -0.7868
15456TIP3   OH267782   2.461   5.310   4.068 -0.1670 -0.7258  0.1621
15456TIP3    H167783   2.501   5.359   3.996  0.3245 -1.5231 -0.1081
15456TIP3    H267784   2.487   5.358   4.147 -0.9106  0.2928 -0.1886
15457TIP3   OH267785   1.953   1.382  14.546  0.3370  0.4695 -0.2635
15457TIP3    H167786   1.969   1.473  14.524 -1.6963  0.6891 -0.9339
15457TIP3    H267787   1.858   1.376  14.558  0.5507 -1.3409  0.7369
15458TIP3   OH267788   2.095   3.249   2.362 -0.1822 -0.1217 -0.4483
15458TIP3    H167789   2.096   3.173   2.303  1.1180 -1.9057  1.7699
15458TIP3    H267790   2.186   3.257   2.391 -0.9812 -0.0254  2.1733
15459TIP3   OH267791   5.632   0.187   1.567 -0.1601  0.6042 -0.2509
15459TIP3    H167792   5.605   0.176   1.658  1.3306 -1.2639 -0.0055
15459TIP3    H267793   5.672   0.274   1.564 -0.5409  0.8242  0.7889
15460TIP3   OH267794   4.716   0.023  16.287  0.5842  0.2285  0.1283
15460TIP3    H167795   4.658   0.098  16.305  0.5784  0.4552 -0.7993
15460TIP3    H267796   4.729  -0.018  16.372 -0.4294  0.5569  0.4535
15461TIP3   OH267797   1.022   2.179  17.070 -0.4253 -0.5401  0.4391
15461TIP3    H167798   1.098   2.229  17.041 -1.0274 -0.1729 -0.5384
15461TIP3    H267799   1.035   2.167  17.164  1.0100 -0.7874  0.2201
15462TIP3   OH267800   0.130   6.126   5.408  0.0368 -0.9711 -0.9531
15462TIP3    H167801   0.134   6.219   5.388  0.1680 -0.8513 -0.3762
15462TIP3    H267802   0.057   6.118   5.469  0.8794 -1.0525  0.0586
15463TIP3   OH267803   1.405   4.327  12.070 -0.4828 -0.0995  0.7461
15463TIP3    H167804   1.343   4.300  12.003  0.1506  0.3718 -0.0379
15463TIP3    H267805   1.365   4.300  12.153 -1.0906 -1.0278  0.1559
15464TIP3   OH267806   5.205   6.318   1.390  0.2276  0.8230 -0.3082
15464TIP3    H167807   5.211   6.385   1.322 -0.9389  2.6446  1.3398
15464TIP3    H267808   5.295   6.306   1.420  0.4314  1.7009 -0.5591
15465TIP3   OH267809   5.156   0.979   3.351 -0.0591  0.1033 -0.1313
15465TIP3    H167810   5.176   0.918   3.422  0.8229  0.6319  0.0894
15465TIP3    H267811   5.060   0.981   3.347 -0.1039 -0.7295  0.3411
15466TIP3   OH267812   3.803   4.906   4.165  0.0535 -0.4674  0.7292
15466TIP3    H167813   3.717   4.927   4.200 -0.3410 -0.2790 -0.3513
15466TIP3    H267814   3.834   4.987   4.125  0.1626 -0.8951 -0.0559
15467TIP3   OH267815   0.410   5.140   4.571 -0.2949  0.2083  0.0099
15467TIP3    H167816   0.401   5.053   4.609  1.7585  0.3624  0.9658
15467TIP3    H267817   0.329   5.185   4.594  0.0200 -0.3974  2.4277
15468TIP3   OH267818   3.136   1.900   2.976  0.1581  0.2886  0.3810
15468TIP3    H167819   3.124   1.873   3.068 -0.8231 -0.2280  0.1065
15468TIP3    H267820   3.231   1.895   2.962  0.2806  0.0022  1.2603
15469TIP3   OH267821   5.770   1.796   1.080 -0.2158  0.6296  0.4438
15469TIP3    H167822   5.680   1.825   1.065 -0.3643  0.0376  0.1782
15469TIP3    H267823   5.817   1.823   1.001  0.0579  1.7953  0.9893
15470TIP3   OH267824   3.624   4.797   6.349 -0.6855  0.0229  0.0577
15470TIP3    H167825   3.683   4.799   6.424  0.6685  0.2304 -0.9891
15470TIP3    H267826   3.585   4.884   6.346 -0.0085  0.3309 -0.0292
15471TIP3   OH267827   0.340   0.063  12.285  0.6115  0.1886 -0.5240
15471TIP3    H167828   0.374   0.025  12.366 -2.8588 -0.7285  0.5914
15471TIP3    H267829   0.396   0.138  12.268  1.7871  0.0193  2.4168
15472TIP3   OH267830   4.305   3.071   0.328 -0.1657 -0.0485  0.1462
15472TIP3    H167831   4.293   3.164   0.311  0.9762  0.8830  3.8002
15472TIP3    H267832   4.394   3.065   0.364 -0.3456 -2.4941  0.2510
15473TIP3   OH267833   6.503   0.394  13.754  0.3396 -0.0496 -0.6580
15473TIP3    H167834   6.481   0.452  13.681 -0.2057 -1.6194 -1.7790
15473TIP3    H267835   6.419   0.373  13.794  0.6493  0.8773  0.4836
15474TIP3   OH267836   0.995   1.116   2.549  0.8228  0.0950 -0.7960
15474TIP3    H167837   0.920   1.105   2.490  0.2284  0.1569 -0.0776
15474TIP3    H267838   1.007   1.028   2.587  0.1123  0.4281  0.2408
15475TIP3   OH267839   4.407   6.719  12.206 -0.0892 -0.1795  0.1491
15475TIP3    H167840   4.458   6.685  12.279  0.5894 -0.1656 -0.3227
15475TIP3    H267841   4.428   6.813  12.203  1.7155 -0.6214 -1.5577
15476TIP3   OH267842   1.991   6.521  14.812  0.6319  0.2725  0.0339
15476TIP3    H167843   2.064   6.476  14.854  0.3330 -0.2302  0.0126
15476TIP3    H267844   1.971   6.595  14.870  0.7347  0.0404  0.3649
15477TIP3   OH267845   5.930   2.566   0.315  0.1261  0.2017 -0.3202
15477TIP3    H167846   6.004   2.601   0.363 -1.4339  0.5834  1.8549
15477TIP3    H267847   5.857   2.623   0.337 -0.7681  0.0690 -2.7274
15478TIP3   OH267848   6.384   2.705  13.807 -0.2427 -0.2830 -0.0981
15478TIP3    H167849   6.303   2.673  13.769 -0.3609 -0.2923  0.1572
15478TIP3    H267850   6.380   2.800  13.796 -0.1647 -0.3070 -0.3256
15479TIP3   OH267851   1.730   0.853   6.127  0.5106  0.1058 -0.0052
15479TIP3    H167852   1.783   0.776   6.149 -1.5012 -0.8160  1.7796
15479TIP3    H267853   1.746   0.914   6.198  0.0125  0.2508 -0.0191
15480TIP3   OH267854   1.969   4.657  14.545  0.1075  0.4770 -0.1562
15480TIP3    H167855   1.909   4.682  14.475 -1.3013 -0.0506  0.8356
15480TIP3    H267856   1.921   4.677  14.625  1.6514  0.9636  0.6650
15481TIP3   OH267857   6.557   5.116  11.278 -0.3711 -0.3934  0.0551
15481TIP3    H167858   6.608   5.194  11.302 -1.0007  0.4033 -1.1998
15481TIP3    H267859   6.623   5.047  11.267  0.5886  0.8964 -2.6597
15482TIP3   OH267860   0.945   0.003   2.532 -0.2736  0.2599 -0.2971
15482TIP3    H167861   0.892  -0.046   2.469 -0.3509  0.3970 -0.3383
15482TIP3    H267862   1.012  -0.060   2.561 -0.9012 -0.1363  0.3122
15483TIP3   OH267863   4.587   6.030  16.800 -0.1483 -0.1958 -0.3925
15483TIP3    H167864   4.540   6.020  16.883  0.3698  0.4939 -0.0092
15483TIP3    H267865   4.644   6.106  16.814  0.4174 -0.4736 -1.1600
15484TIP3   OH267866   4.758   3.699   4.339  0.5853 -0.1496 -0.0353
15484TIP3    H167867   4.853   3.698   4.350  0.5849 -0.3525 -0.0520
15484TIP3    H267868   4.729   3.616   4.377  0.7282 -1.5693 -2.9292
15485TIP3   OH267869   3.033   3.888   6.587 -0.2376  0.5501  0.2490
15485TIP3    H167870   3.055   3.803   6.626 -0.3866  0.3673 -0.0658
15485TIP3    H267871   2.941   3.900   6.608 -0.3193  0.4490 -0.0516
15486TIP3   OH267872   4.496   4.844   3.595 -0.1799 -0.1146  0.5246
15486TIP3    H167873   4.556   4.919   3.601 -0.1243 -0.2221  1.2899
15486TIP3    H267874   4.463   4.832   3.684 -1.5132  0.0741  0.0671
15487TIP3   OH267875   0.385   5.441  13.129  0.1611  0.9573  0.0408
15487TIP3    H167876   0.335   5.419  13.050 -0.6330 -1.3225  1.1083
15487TIP3    H267877   0.318   5.460  13.195  0.6777 -0.9819  1.1717
15488TIP3   OH267878   4.007   2.700  15.652  0.3269 -0.0988 -0.3009
15488TIP3    H167879   4.002   2.738  15.740  0.8104  0.0478 -0.3300
15488TIP3    H267880   4.100   2.708  15.629 -0.0880  1.4712 -1.5302
15489TIP3   OH267881   5.207   5.088   5.468 -0.0574 -0.0012  0.2210
15489TIP3    H167882   5.285   5.034   5.471  0.0292  0.1787  1.3569
15489TIP3    H267883   5.142   5.034   5.423 -0.0940 -1.2049  1.6976
15490TIP3   OH267884   0.588   6.477   4.476 -0.3357  0.2418 -0.4730
15490TIP3    H167885   0.586   6.480   4.572  0.7394  2.3832 -0.5057
15490TIP3    H267886   0.519   6.537   4.449 -0.7406 -0.4828 -1.0536
15491TIP3   OH267887   5.132   4.041  17.134  0.1514  0.3803  0.7783
15491TIP3    H167888   5.144   4.128  17.097 -0.4873  0.5215  0.9080
15491TIP3    H267889   5.091   3.990  17.065  1.9260 -0.2536  0.1493
15492TIP3   OH267890   0.292   3.262   5.326 -0.1974 -0.3710 -0.5881
15492TIP3    H167891   0.330   3.251   5.413 -0.9584  0.5623 -0.1233
15492TIP3    H267892   0.368   3.269   5.268  0.3341 -0.0463  0.1268
15493TIP3   OH267893   0.457   6.546   0.945  0.2608  0.2709  0.2249
15493TIP3    H167894   0.461   6.482   0.873 -0.8844  0.7111 -0.2512
15493TIP3    H267895   0.398   6.506   1.009  0.3645  0.3892  0.3931
15494TIP3   OH267896   3.801   5.497  17.225 -0.2803 -0.2192 -0.0273
15494TIP3    H167897   3.748   5.424  17.192  0.6270 -0.0837 -1.8429
15494TIP3    H267898   3.891   5.464  17.220  0.1425  1.0424 -0.9382
15495TIP3   OH267899   4.142   6.399   0.620 -0.3676  0.1808  0.1429
15495TIP3    H167900   4.172   6.371   0.533 -0.3008  1.0522 -0.1226
15495TIP3    H267901   4.079   6.469   0.602  0.7873  1.4353  0.8244
15496TIP3   OH267902   5.284   2.947   4.081 -0.0052  0.1084  0.3266
15496TIP3    H167903   5.376   2.924   4.093 -0.4512 -2.0365 -0.1439
15496TIP3    H267904   5.270   2.943   3.986 -1.0987 -1.7879  0.5355
15497TIP3   OH267905   5.334   6.530  13.605  0.0946 -0.3203  0.0431
15497TIP3    H167906   5.365   6.448  13.566 -0.1656 -0.7214  0.6779
15497TIP3    H267907   5.240   6.529  13.588  0.0136 -0.3948  0.4884
15498TIP3   OH267908   3.363   4.679  14.224 -0.3795  0.0673 -0.7062
15498TIP3    H167909   3.386   4.672  14.317  2.1786  1.4154 -1.1988
15498TIP3    H267910   3.428   4.625  14.179  0.4310  2.0080 -1.9512
15499TIP3   OH267911   1.153   4.171   0.392  0.0897  0.3201  0.6749
15499TIP3    H167912   1.175   4.236   0.458  1.1222  1.2661 -0.5704
15499TIP3    H267913   1.207   4.096   0.412 -0.0470  0.3816  1.2668
15500TIP3   OH267914   5.647   4.661  15.627 -0.0919 -0.1335 -0.4502
15500TIP3    H167915   5.737   4.696  15.625  0.1947 -0.8659 -0.4843
15500TIP3    H267916   5.647   4.591  15.562 -0.1848 -1.3332  0.8280
15501TIP3   OH267917   1.923   0.618  11.946  0.4110 -0.3826 -0.2093
15501TIP3    H167918   1.843   0.611  11.894 -0.5744  0.6785  1.0976
15501TIP3    H267919   1.907   0.563  12.023  0.3003  0.9677  0.7775
15502TIP3   OH267920   6.517   3.972  15.205 -0.3603  0.0960 -0.0498
15502TIP3    H167921   6.579   4.004  15.140 -0.7366 -1.2394 -1.0896
15502TIP3    H267922   6.567   3.971  15.287  0.7816 -0.2674 -0.7365
15503TIP3   OH267923   3.984   3.846   3.118  0.0822 -0.5922  0.6333
15503TIP3    H167924   3.978   3.821   3.026  0.8911 -1.6722  0.8578
15503TIP3    H267925   4.043   3.921   3.120 -0.1282 -0.4188  0.2461
15504TIP3   OH267926   2.098   2.157  16.732 -0.3749  0.3428  0.1775
15504TIP3    H167927   2.023   2.112  16.772  1.1002 -0.9894  1.5035
15504TIP3    H267928   2.125   2.222  16.797 -0.6823  1.1737 -0.5125
15505TIP3   OH267929   2.353   4.761  14.910  0.2796  0.0045  0.2244
15505TIP3    H167930   2.311   4.811  14.840  1.1251  1.6575  0.8757
15505TIP3    H267931   2.407   4.825  14.956  0.0665 -1.1576  2.1308
15506TIP3   OH267932   2.305   2.325  15.535 -0.6192 -0.3745  0.1279
15506TIP3    H167933   2.334   2.404  15.490 -0.4933 -0.5151 -0.0368
15506TIP3    H267934   2.290   2.354  15.625 -0.2959 -0.2220  0.1377
15507TIP3   OH267935   0.160   6.225  15.000 -0.0790 -0.2211  0.3507
15507TIP3    H167936   0.207   6.219  15.083 -0.0583  1.4476  0.4838
15507TIP3    H267937   0.220   6.186  14.935 -0.0635 -1.4502  1.1062
15508TIP3   OH267938   3.355   3.657   5.875 -0.1215 -0.1417  0.2546
15508TIP3    H167939   3.413   3.596   5.921  2.0784  0.4520 -1.6314
15508TIP3    H267940   3.361   3.738   5.924 -0.9165 -0.6494  1.2019
15509TIP3   OH267941   0.032   3.056   3.160  0.3062  0.3978 -0.1892
15509TIP3    H167942   0.009   3.129   3.218 -1.1276  0.9195 -1.3911
15509TIP3    H267943   0.127   3.046   3.171  0.2391  1.2879  1.3163
15510TIP3   OH267944   3.738   6.298  11.716  0.1924  0.0146 -0.2276
15510TIP3    H167945   3.827   6.333  11.715  0.0815  0.3796  1.3188
15510TIP3    H267946   3.688   6.358  11.661  0.7723  0.1977 -0.5544
15511TIP3   OH267947   1.137   3.568  12.190 -0.7441  0.4928  0.0566
15511TIP3    H167948   1.221   3.531  12.216 -1.7072  0.2425  2.9643
15511TIP3    H267949   1.117   3.633  12.257 -3.4266 -0.3047  0.0812
15512TIP3   OH267950   2.226   3.332   5.517 -0.2995  0.2421  0.6490
15512TIP3    H167951   2.277   3.393   5.570 -1.8103  0.8458  1.4182
15512TIP3    H267952   2.172   3.388   5.461 -0.5848 -0.3909  0.2870
15513TIP3   OH267953   4.711   2.192  14.738  0.3309 -0.7073  0.8623
15513TIP3    H167954   4.623   2.183  14.703  0.3599  1.7982  0.0914
15513TIP3    H267955   4.757   2.114  14.705 -0.8099 -0.5767 -1.1539
15514TIP3   OH267956   2.008   6.561  14.328 -0.2073 -0.2708  0.8631
15514TIP3    H167957   1.934   6.593  14.277 -0.7734 -1.4199  0.9642
15514TIP3    H267958   1.983   6.576  14.419  1.0802  2.3955  0.8222
15515TIP3   OH267959   6.376   4.778  11.737  0.3696 -0.1037  0.0413
15515TIP3    H167960   6.426   4.859  11.748 -0.2751  0.0183  2.1391
15515TIP3    H267961   6.437   4.719  11.693  2.0863  0.3269  1.7557
15516TIP3   OH267962   4.822   3.378   2.323 -0.2032  0.1404  0.1523
15516TIP3    H167963   4.850   3.457   2.277 -1.7959  1.4347  1.3513
15516TIP3    H267964   4.744   3.405   2.372 -0.9087 -2.2353  0.3999
15517TIP3   OH267965   3.895   4.407  14.189 -0.2172  0.6256 -0.0497
15517TIP3    H167966   3.937   4.339  14.136 -0.3170  1.3754 -1.0982
15517TIP3    H267967   3.806   4.413  14.154  0.0847  1.9677 -0.6050
15518TIP3   OH267968   3.200   3.482  15.325  0.1053 -0.3862 -0.3312
15518TIP3    H167969   3.236   3.567  15.298  1.1695 -0.7343 -0.0454
15518TIP3    H267970   3.227   3.473  15.417 -0.2789 -0.8959 -0.2658
15519TIP3   OH267971   0.249   2.657  13.376 -0.3745 -0.3662 -0.3046
15519TIP3    H167972   0.156   2.631  13.375 -0.5882  0.3277  0.7837
15519TIP3    H267973   0.295   2.576  13.400 -0.9142 -0.1329  1.5828
15520TIP3   OH267974   3.925   3.810  15.778 -0.4302  0.3936  0.0248
15520TIP3    H167975   3.937   3.716  15.786 -1.0385  0.0745 -2.4729
15520TIP3    H267976   4.012   3.844  15.756 -0.8759 -0.0246 -2.4940
15521TIP3   OH267977   6.452   5.621   5.397  0.0433  0.4280 -0.8799
15521TIP3    H167978   6.509   5.639   5.322  1.5286  1.0145  0.3516
15521TIP3    H267979   6.512   5.594   5.467 -1.3471 -0.4793 -0.0009
15522TIP3   OH267980   2.337   0.716  16.443 -0.3245 -0.0125  0.4742
15522TIP3    H167981   2.400   0.694  16.375 -0.6074  0.4434  0.0659
15522TIP3    H267982   2.391   0.744  16.517  0.1013 -3.0070  1.3620
15523TIP3   OH267983   2.553   2.230  13.488 -0.1051  0.0206  0.0542
15523TIP3    H167984   2.479   2.252  13.544 -1.0691 -3.2362  0.1400
15523TIP3    H267985   2.533   2.271  13.404 -1.2174  0.4835  0.5408
15524TIP3   OH267986   3.065   2.229   3.656  0.4660 -0.1708  0.5177
15524TIP3    H167987   3.061   2.279   3.737  2.0508  0.9567 -0.0939
15524TIP3    H267988   3.088   2.140   3.684  1.2647  0.2684  1.2879
15525TIP3   OH267989   6.756   4.863   6.228  0.0484  0.0271  0.6831
15525TIP3    H167990   6.673   4.851   6.183  0.1109 -1.5204  0.9186
15525TIP3    H267991   6.757   4.795   6.295  0.1685  1.9914  2.7233
15526TIP3   OH267992   6.179   3.650   4.775 -0.4427 -0.0572 -0.4001
15526TIP3    H167993   6.244   3.693   4.721  0.1430  0.0951  0.4113
15526TIP3    H267994   6.203   3.674   4.865 -0.3624 -1.6958  0.0337
15527TIP3   OH267995   1.555   4.997  13.975  0.2376  0.5664  0.1038
15527TIP3    H167996   1.585   4.933  13.910  0.2175  0.6357  0.0252
15527TIP3    H267997   1.586   5.081  13.941  1.2889  0.4748  0.8086
15528TIP3   OH267998   3.975   0.441   6.286  0.0379 -0.4802 -0.5158
15528TIP3    H167999   3.930   0.386   6.351  0.0718 -2.1761 -1.8951
15528TIP3    H268000   4.021   0.506   6.338 -0.5954 -1.3160  1.1357
15529TIP3   OH268001   4.058   3.132   3.144 -0.3265 -0.0053  0.1359
15529TIP3    H168002   4.104   3.102   3.222 -1.0693  0.6822  0.8389
15529TIP3    H268003   3.970   3.096   3.153 -0.8039  1.1820  0.2764
15530TIP3   OH268004   0.336   5.482   5.862  0.0823  0.5528 -0.3999
15530TIP3    H168005   0.361   5.511   5.950 -1.8288  0.6915  0.1057
15530TIP3    H268006   0.297   5.395   5.876  3.7856 -1.4530 -1.6443
15531TIP3   OH268007   0.960   2.714   4.146  0.7065  0.6276 -0.3125
15531TIP3    H168008   0.886   2.751   4.098  1.6084 -0.0299 -2.2621
15531TIP3    H268009   0.996   2.648   4.087  1.4845 -0.6370  1.5240
15532TIP3   OH268010   2.023   3.829  15.381  0.2289  0.0303  0.0321
15532TIP3    H168011   2.105   3.832  15.332  0.0692  2.6855 -0.1530
15532TIP3    H268012   2.048   3.849  15.471 -0.4394  3.5243 -0.4568
15533TIP3   OH268013   4.437   1.351   3.019 -0.0184 -0.5471  0.3012
15533TIP3    H168014   4.365   1.299   3.055  0.4857 -0.8200  0.9265
15533TIP3    H268015   4.491   1.373   3.095  0.7150 -0.5897 -0.1999
15534TIP3   OH268016   5.358   3.961   1.441 -0.2674  0.0721 -0.6365
15534TIP3    H168017   5.421   3.907   1.489 -0.6581 -0.0316 -0.2352
15534TIP3    H268018   5.407   4.039   1.417 -0.3145  0.5303  0.7195
15535TIP3   OH268019   3.020   2.419  10.443 -0.2014 -0.4760  0.2724
15535TIP3    H168020   3.110   2.424  10.411  0.1836  0.3860  1.4763
15535TIP3    H268021   3.015   2.333  10.486 -0.2226 -0.8962 -0.5485
15536TIP3   OH268022   2.203   2.551  14.348  0.5515  0.3499  0.1214
15536TIP3    H168023   2.237   2.639  14.364  1.9769 -0.1383 -0.2157
15536TIP3    H268024   2.266   2.511  14.288 -0.5288 -0.6145 -0.3930
15537TIP3   OH268025   5.933   1.267  14.494 -0.9754 -0.0825  0.0216
15537TIP3    H168026   5.913   1.217  14.574 -0.2260  0.7499  0.7460
15537TIP3    H268027   5.984   1.342  14.525 -0.5062  0.1436 -1.2770
15538TIP3   OH268028   3.660   3.291   4.811 -0.9579 -0.0700 -0.3617
15538TIP3    H168029   3.614   3.376   4.811 -0.9002 -0.0352  1.7455
15538TIP3    H268030   3.746   3.311   4.773 -0.8854  0.8398  0.2678
15539TIP3   OH268031   2.645   4.671  11.899  0.6234 -0.6893 -0.3980
15539TIP3    H168032   2.726   4.659  11.849  1.2821 -0.1425  0.5216
15539TIP3    H268033   2.592   4.730  11.846  1.2032 -0.3294 -0.5807
15540TIP3   OH268034   0.206   3.834  11.641  0.1537  0.0039 -0.1952
15540TIP3    H168035   0.172   3.749  11.612  1.1560  0.1057 -1.7709
15540TIP3    H268036   0.157   3.854  11.721  0.4992 -2.4367  0.6646
15541TIP3   OH268037   5.959   4.222  12.273  0.1802  0.4485  0.0888
15541TIP3    H168038   6.029   4.282  12.248  0.8268  0.2310  1.3233
15541TIP3    H268039   5.883   4.278  12.286  0.3081  0.7771 -0.5691
15542TIP3   OH268040   2.720   6.308  12.596  0.4075  0.4723  0.3086
15542TIP3    H168041   2.778   6.248  12.550  0.7556  1.6346 -0.8157
15542TIP3    H268042   2.644   6.316  12.538  0.6694  1.6401  0.1095
15543TIP3   OH268043   3.780   3.633   2.345  0.3374  0.0919  0.3630
15543TIP3    H168044   3.738   3.575   2.282  0.0392  1.9231 -1.1532
15543TIP3    H268045   3.709   3.665   2.400  0.3713 -0.1942  0.5778
15544TIP3   OH268046   0.396   6.708  16.695 -0.2181  0.1591 -0.5311
15544TIP3    H168047   0.459   6.637  16.682 -0.3012  0.1466 -0.8645
15544TIP3    H268048   0.355   6.720  16.609  1.1617  1.9156 -0.9600
15545TIP3   OH268049   3.215   1.131  12.869  0.4372  0.1696 -0.2221
15545TIP3    H168050   3.290   1.180  12.836 -0.0657  0.9049 -0.2801
15545TIP3    H268051   3.198   1.065  12.802  1.9756 -0.9947  0.5007
15546TIP3   OH268052   5.317   6.041  16.276  0.2755 -0.3603 -0.4991
15546TIP3    H168053   5.402   6.021  16.316  0.1794 -0.9139 -0.5627
15546TIP3    H268054   5.333   6.036  16.182  0.4550  0.7449 -0.5308
15547TIP3   OH268055   6.348   5.601  12.143 -0.1213  0.3661  0.7040
15547TIP3    H168056   6.334   5.616  12.049 -0.2198 -0.3097  0.6117
15547TIP3    H268057   6.405   5.524  12.147  1.4960  1.5538  1.1486
15548TIP3   OH268058   5.588   1.714   3.531  0.9581 -0.4123 -0.4925
15548TIP3    H168059   5.588   1.648   3.462  1.3171 -0.0881 -0.8035
15548TIP3    H268060   5.585   1.663   3.612  1.9328 -0.8259 -0.7132
15549TIP3   OH268061   0.221   3.111  15.605  0.0140 -0.2565  0.2195
15549TIP3    H168062   0.201   3.065  15.524 -1.7543 -0.9421  1.0158
15549TIP3    H268063   0.176   3.061  15.673  1.4258  0.3363  1.6285
15550TIP3   OH268064   1.654   1.056  13.811  0.0664 -0.1340  0.0799
15550TIP3    H168065   1.599   1.124  13.849 -0.1522  0.4610 -1.2711
15550TIP3    H268066   1.606   0.975  13.826 -0.7223  0.2714 -0.2492
15551TIP3   OH268067   2.995   3.321   1.514  0.7390 -0.1998  0.1485
15551TIP3    H168068   3.033   3.409   1.508  2.2719 -0.7624  1.3170
15551TIP3    H268069   2.911   3.335   1.557 -0.0217  0.9634 -1.6761
15552TIP3   OH268070   1.461   0.789  10.926 -0.4723  0.1273  0.1145
15552TIP3    H168071   1.512   0.796  10.845 -2.9773  1.5191 -1.4083
15552TIP3    H268072   1.372   0.814  10.900 -1.1625  1.3464  3.4580
15553TIP3   OH268073   5.851   1.205  15.976 -0.3083  0.1885  0.4756
15553TIP3    H168074   5.838   1.281  16.033 -3.1488  1.2715 -1.5012
15553TIP3    H268075   5.773   1.151  15.989  0.7661 -1.4093  0.3864
15554TIP3   OH268076   6.328   5.296  13.041 -0.3731 -0.7440 -0.4960
15554TIP3    H168077   6.388   5.291  12.966  1.2800 -2.9125  0.9347
15554TIP3    H268078   6.361   5.370  13.093  0.3696 -1.1810 -0.3320
15555TIP3   OH268079   3.212   4.212   4.427 -0.1068 -0.2572 -0.0016
15555TIP3    H168080   3.149   4.204   4.355  0.0282  3.3029 -0.5738
15555TIP3    H268081   3.158   4.212   4.506 -0.5895  0.0839 -0.3298
15556TIP3   OH268082   0.333   1.547   0.107 -0.1078 -0.2107 -0.2639
15556TIP3    H168083   0.365   1.517   0.022 -0.1800  2.4616 -1.2801
15556TIP3    H268084   0.410   1.585   0.149 -0.6591  1.0495 -0.3504
15557TIP3   OH268085   5.469   1.017   4.320  0.0837  0.5936  0.2420
15557TIP3    H168086   5.435   1.003   4.232 -0.7325 -0.0658  0.6449
15557TIP3    H268087   5.564   1.017   4.310  0.0449 -1.1427 -0.4153
15558TIP3   OH268088   3.091   5.359  16.107  0.1206 -0.4999  0.1109
15558TIP3    H168089   3.042   5.440  16.092 -1.0104 -0.8701  1.6763
15558TIP3    H268090   3.165   5.387  16.162 -0.2871 -0.5165  0.6802
15559TIP3   OH268091   4.343   4.370   3.921  0.0742  0.2478 -0.6010
15559TIP3    H168092   4.324   4.456   3.884 -2.6612  0.6880  1.6274
15559TIP3    H268093   4.407   4.387   3.990  0.6980  0.2672 -1.1817
15560TIP3   OH268094   5.688   2.869  12.427 -0.1566 -0.1706 -0.0621
15560TIP3    H168095   5.773   2.840  12.460 -0.1653  0.7159  0.7763
15560TIP3    H268096   5.628   2.798  12.447 -0.3310  0.6777  2.6137
15561TIP3   OH268097   1.529   1.116   3.367  0.4049  0.1489 -0.6776
15561TIP3    H168098   1.565   1.074   3.289  1.4948 -0.8724  0.3456
15561TIP3    H268099   1.511   1.206   3.341  2.2488  0.2410 -1.6654
15562TIP3   OH268100   2.835   3.657   5.575 -0.1196 -0.1595  0.3566
15562TIP3    H168101   2.782   3.681   5.499  0.5591 -0.7431 -0.3185
15562TIP3    H268102   2.777   3.603   5.629 -1.7727  3.2199  2.0783
15563TIP3   OH268103   3.876   1.821  12.220  0.3699 -0.6055  0.1208
15563TIP3    H168104   3.876   1.916  12.206  1.9647 -0.5319  0.5787
15563TIP3    H268105   3.876   1.784  12.132 -0.0429 -0.1874 -0.0591
15564TIP3   OH268106   0.153   3.674   3.481 -0.4416 -0.0584  0.4189
15564TIP3    H168107   0.120   3.760   3.456  2.9203  0.5435 -2.2704
15564TIP3    H268108   0.104   3.613   3.425  0.1139  0.4719 -0.6559
15565TIP3   OH268109   3.629   5.392   1.000  0.3218 -0.6429 -0.4303
15565TIP3    H168110   3.698   5.415   1.062 -1.2379 -0.6369  1.3571
15565TIP3    H268111   3.668   5.327   0.943  1.6476 -1.0518  0.9027
15566TIP3   OH268112   1.361   1.910  14.551 -1.1451  0.3153  0.3571
15566TIP3    H168113   1.400   1.878  14.469 -1.8734  0.3211 -0.0002
15566TIP3    H268114   1.418   1.981  14.579 -0.5560 -0.0828  0.1662
15567TIP3   OH268115   1.458   6.207   4.864  0.1215 -0.5581 -0.1367
15567TIP3    H168116   1.507   6.275   4.817 -0.0357 -0.1540  0.2763
15567TIP3    H268117   1.422   6.152   4.794 -1.5415  1.0444 -0.5851
15568TIP3   OH268118   5.026   2.938   4.995 -0.6038 -0.1912 -0.0808
15568TIP3    H168119   4.948   2.898   4.956 -0.1639 -1.0781 -0.0572
15568TIP3    H268120   5.088   2.945   4.922  0.8581 -3.4403  0.7507
15569TIP3   OH268121   5.040   1.210   3.463  0.2351  0.4970  0.4261
15569TIP3    H168122   5.028   1.292   3.415 -2.3843 -0.3848 -0.5196
15569TIP3    H268123   5.084   1.152   3.401 -3.3858 -0.7286 -1.1303
15570TIP3   OH268124   2.014   4.924  13.785 -0.0183 -0.1096  0.0284
15570TIP3    H168125   2.048   4.908  13.873  1.5462 -3.6898 -1.1475
15570TIP3    H268126   2.081   4.978  13.743 -0.5800  1.2669  0.8886
15571TIP3   OH268127   1.392   0.325   4.328 -0.3108  0.5633 -0.2294
15571TIP3    H168128   1.310   0.352   4.287 -1.0212 -0.8722  0.2274
15571TIP3    H268129   1.402   0.233   4.304  2.2091  1.2302 -1.9614
15572TIP3   OH268130   4.839   1.292  11.010 -0.2869  0.9424 -0.2700
15572TIP3    H168131   4.815   1.216  11.064 -1.5047 -0.1078 -2.2297
15572TIP3    H268132   4.925   1.319  11.042 -1.9804  1.8590  3.8322
15573TIP3   OH268133   6.074   3.548   4.170 -0.3109 -0.2103 -0.0507
15573TIP3    H168134   6.144   3.534   4.106  0.1187  0.0940  0.3515
15573TIP3    H268135   6.053   3.641   4.162 -2.0703 -0.6962 -1.6024
15574TIP3   OH268136   3.191   4.743   1.413  0.4833  0.9888  0.0789
15574TIP3    H168137   3.273   4.726   1.367 -0.2468  1.9810 -1.6180
15574TIP3    H268138   3.163   4.829   1.382 -1.0198  0.8296  0.9298
15575TIP3   OH268139   6.612   6.401   2.642 -0.3726 -0.5557 -0.1987
15575TIP3    H168140   6.675   6.330   2.633 -1.3078 -1.1235 -2.7853
15575TIP3    H268141   6.664   6.477   2.667  1.2952 -1.1413 -1.7987
15576TIP3   OH268142   5.819   4.509   6.670 -0.4396 -0.0162 -0.1163
15576TIP3    H168143   5.892   4.552   6.625  1.3900 -1.6054  1.2829
15576TIP3    H268144   5.789   4.441   6.610  1.1858 -1.3145  0.5243
15577TIP3   OH268145   1.614   4.960  17.072  0.1132 -0.2067  0.4797
15577TIP3    H168146   1.532   4.923  17.042  0.1467 -0.2186  0.4018
15577TIP3    H268147   1.654   4.999  16.994  0.4258 -0.6575  0.4114
15578TIP3   OH268148   3.224   4.915   3.587 -0.2393  0.4047  0.1672
15578TIP3    H168149   3.181   4.831   3.573 -0.1602  0.3415  0.3085
15578TIP3    H268150   3.260   4.938   3.501  1.1161 -0.4639  0.4790
15579TIP3   OH268151   6.416   0.596  12.462  0.6617 -0.2852  0.3278
15579TIP3    H168152   6.336   0.581  12.513 -0.7770 -1.3641 -2.1293
15579TIP3    H268153   6.414   0.689  12.442 -1.9238 -0.8861 -2.6670
15580TIP3   OH268154   0.411   4.257   5.647 -0.3357 -0.2004 -0.4629
15580TIP3    H168155   0.409   4.353   5.648 -0.0728 -0.1877 -0.8400
15580TIP3    H268156   0.497   4.234   5.683 -0.3027 -0.2856 -0.5926
15581TIP3   OH268157   0.311   5.063  11.303 -0.7029  0.2309  0.2454
15581TIP3    H168158   0.378   4.996  11.317 -1.2240 -0.2635  0.3547
15581TIP3    H268159   0.228   5.019  11.321 -0.9979  1.1417  1.1696
15582TIP3   OH268160   5.326   2.729  15.152  0.0699 -0.0285  0.0903
15582TIP3    H168161   5.255   2.729  15.088 -0.1348  1.9454  0.2821
15582TIP3    H268162   5.338   2.637  15.175 -0.4424 -0.6786 -2.1177
15583TIP3   OH268163   6.424   3.034   2.117 -0.3939 -0.1340  0.5295
15583TIP3    H168164   6.333   3.063   2.127  0.2878  2.0435  0.7213
15583TIP3    H268165   6.448   3.001   2.203  0.2989  3.2600  1.6967
15584TIP3   OH268166   4.222   4.633   2.802 -0.2933 -0.3364 -0.0548
15584TIP3    H168167   4.216   4.537   2.795  1.5825 -0.4298 -0.6122
15584TIP3    H268168   4.270   4.648   2.883  0.0843  0.1080 -0.3601
15585TIP3   OH268169   5.131   2.018  16.218 -0.3269 -0.0346  0.1889
15585TIP3    H168170   5.196   2.028  16.288  0.4872 -3.4236 -0.0246
15585TIP3    H268171   5.176   1.971  16.149 -2.2725 -0.1289 -1.0663
15586TIP3   OH268172   5.706   2.127   2.154 -0.2257 -0.7640 -0.2183
15586TIP3    H168173   5.786   2.086   2.118  0.4120  0.9904 -0.8262
15586TIP3    H268174   5.703   2.213   2.113 -2.0444 -0.5273  0.3948
15587TIP3   OH268175   0.811   1.932   2.568  0.4774 -0.5017 -0.2498
15587TIP3    H168176   0.783   1.847   2.601  0.5368 -0.5017 -0.1990
15587TIP3    H268177   0.783   1.995   2.635 -1.1441 -0.2817 -1.1206
15588TIP3   OH268178   3.757   1.306  14.568 -0.3485 -0.0279  0.3119
15588TIP3    H168179   3.706   1.352  14.635 -1.5744 -0.4926 -0.2907
15588TIP3    H268180   3.818   1.372  14.535  0.4368  0.1445  2.0332
15589TIP3   OH268181   3.160   2.379   1.889  0.1962 -0.1685  0.3541
15589TIP3    H168182   3.086   2.356   1.946  0.9157 -1.4625  0.7722
15589TIP3    H268183   3.195   2.460   1.927  0.3203 -0.7142  1.4206
15590TIP3   OH268184   0.318   2.387  12.534 -0.5202 -0.2631  0.4862
15590TIP3    H168185   0.360   2.351  12.456 -0.4712  0.9874 -0.0758
15590TIP3    H268186   0.224   2.378  12.517 -0.5094 -0.6851  0.6258
15591TIP3   OH268187   2.603   4.220   2.017  0.2177  0.3681 -0.3052
15591TIP3    H168188   2.695   4.233   1.998  0.2679 -0.5734 -0.6944
15591TIP3    H268189   2.559   4.296   1.978  0.7653  0.5329 -0.5964
15592TIP3   OH268190   4.633   2.627  16.739  0.3862  0.1314 -0.4585
15592TIP3    H168191   4.616   2.680  16.816  0.2616 -2.1246  1.1232
15592TIP3    H268192   4.713   2.578  16.761  0.1157 -0.8436 -1.5856
15593TIP3   OH268193   0.782   4.103  12.613 -0.4605  0.1149 -0.2563
15593TIP3    H168194   0.717   4.126  12.679 -0.7844 -2.9965  0.5896
15593TIP3    H268195   0.742   4.127  12.530 -1.0167  1.8919  0.5100
15594TIP3   OH268196   2.926   2.894  15.235 -0.4231  0.1554 -0.0604
15594TIP3    H168197   2.897   2.948  15.162  0.6587  0.6877 -0.1171
15594TIP3    H268198   2.902   2.804  15.210  0.0658  0.3123 -1.1370
15595TIP3   OH268199   4.707   2.558  11.104 -0.3929  0.0251  0.1857
15595TIP3    H168200   4.794   2.535  11.136  1.0596  2.8208 -1.5688
15595TIP3    H268201   4.680   2.483  11.051  0.4551 -1.3180  1.6142
15596TIP3   OH268202   2.600   1.801   2.972  0.2887  0.0465 -0.3942
15596TIP3    H168203   2.571   1.748   2.898  1.4455 -0.5065 -0.4605
15596TIP3    H268204   2.578   1.891   2.947 -0.9838 -0.3180 -0.6099
15597TIP3   OH268205   3.836   5.106  11.991 -0.0427  0.5656  0.5126
15597TIP3    H168206   3.774   5.034  12.004 -1.4249  1.5393 -0.6268
15597TIP3    H268207   3.912   5.082  12.045  0.0191 -2.3463 -0.7811
15598TIP3   OH268208   0.284   5.250  14.426  0.6928  0.3082  0.5700
15598TIP3    H168209   0.304   5.326  14.480  0.9582  0.7734 -0.1828
15598TIP3    H268210   0.290   5.281  14.336 -1.3485 -0.0487  0.2776
15599TIP3   OH268211   1.691   2.701   5.334 -0.3460 -0.2610 -0.0061
15599TIP3    H168212   1.627   2.772   5.331 -0.1168 -0.0844 -0.9646
15599TIP3    H268213   1.683   2.658   5.249  0.1265 -0.8413  0.2387
15600TIP3   OH268214   6.329   6.502   1.327  0.2795  0.3811 -0.0529
15600TIP3    H168215   6.288   6.462   1.404 -0.5656 -1.7458 -1.5564
15600TIP3    H268216   6.361   6.586   1.358 -0.0879 -0.4159  2.6196
15601TIP3   OH268217   1.461   0.486   3.815  0.0587  0.7152  0.4194
15601TIP3    H168218   1.518   0.413   3.794  1.7649  2.3755 -0.9293
15601TIP3    H268219   1.386   0.447   3.860  1.0254 -1.8062 -0.1134
15602TIP3   OH268220   2.138   6.773  12.655 -0.4316  0.0299  0.0719
15602TIP3    H168221   2.150   6.857  12.611  1.2557 -0.0280  0.3531
15602TIP3    H268222   2.178   6.786  12.741 -1.3018 -0.6718  0.5853
15603TIP3   OH268223   1.291   5.546  13.193  0.3880  0.1555 -0.6474
15603TIP3    H168224   1.203   5.569  13.162  0.2565 -1.3164 -1.4023
15603TIP3    H268225   1.338   5.521  13.113  0.5307 -2.1458  0.1210
15604TIP3   OH268226   0.027   6.440  16.323  0.5879 -0.2293  0.4233
15604TIP3    H168227   0.084   6.369  16.354 -0.8417 -1.5159  0.1242
15604TIP3    H268228   0.034   6.437  16.228  0.8015  0.2809  0.4170
15605TIP3   OH268229   1.009   4.763   5.227  0.3509 -0.0437 -0.3064
15605TIP3    H168230   1.030   4.677   5.191  1.6336 -0.3315  1.0568
15605TIP3    H268231   0.944   4.746   5.295  0.0782  0.1394 -0.5233
15606TIP3   OH268232   3.406   6.169   0.807 -0.1232  0.5507 -0.1709
15606TIP3    H168233   3.450   6.084   0.811 -1.3942 -0.1563 -0.8887
15606TIP3    H268234   3.458   6.219   0.744 -0.5629 -0.4248 -1.3383
15607TIP3   OH268235   5.295   0.624  12.342  0.6921 -0.0782 -0.0810
15607TIP3    H168236   5.347   0.626  12.422  1.7117 -1.1268 -0.7027
15607TIP3    H268237   5.339   0.560  12.286  0.0700  0.7321 -1.5272
15608TIP3   OH268238   3.539   2.619  14.851  0.4278  0.1934  0.4436
15608TIP3    H168239   3.477   2.584  14.787  1.7535  0.1930 -0.8661
15608TIP3    H268240   3.493   2.693  14.891  0.0847  1.0246 -1.4689
15609TIP3   OH268241   0.409   3.354   0.440 -0.2685 -0.6057 -0.5395
15609TIP3    H168242   0.314   3.361   0.449 -0.1214 -0.6645  1.1173
15609TIP3    H268243   0.425   3.365   0.346 -1.7760  1.0161 -0.6280
15610TIP3   OH268244   3.030   2.579   1.396  0.2040  0.4306 -0.0496
15610TIP3    H168245   3.113   2.552   1.357 -0.4349  0.9497 -1.8417
15610TIP3    H268246   3.040   2.673   1.412  0.7791  0.0563  1.9092
15611TIP3   OH268247   6.642   5.491  12.745 -0.0952 -0.4376  0.0669
15611TIP3    H168248   6.704   5.564  12.739 -0.7998  0.0848 -1.1268
15611TIP3    H268249   6.665   5.447  12.826  0.6940  0.8025  0.5405
15612TIP3   OH268250   3.937   5.491   4.939 -0.0691  0.4561 -0.4489
15612TIP3    H168251   3.875   5.504   5.011  1.7255  0.6491  1.0792
15612TIP3    H268252   3.947   5.577   4.899 -1.8207  0.1587 -1.5834
15613TIP3   OH268253   4.445   3.135   2.410  0.2308  0.0516 -0.9264
15613TIP3    H168254   4.494   3.101   2.335  4.2213  1.3706  0.9285
15613TIP3    H268255   4.436   3.229   2.392  1.6431  0.4630  0.4353
15614TIP3   OH268256   5.055   2.317  11.607 -0.5023  0.3517 -0.1045
15614TIP3    H168257   5.061   2.228  11.573  0.9184  1.3715 -2.6606
15614TIP3    H268258   5.146   2.348  11.611 -0.9063  1.4173  1.5643
15615TIP3   OH268259   3.330   0.171   1.654 -0.2892  0.0012  0.3202
15615TIP3    H168260   3.260   0.109   1.632 -0.0385 -0.0194 -0.4452
15615TIP3    H268261   3.358   0.146   1.742 -2.2028  0.9058  1.2228
15616TIP3   OH268262   2.645   3.461  12.677 -0.3182  0.1811 -0.3032
15616TIP3    H168263   2.606   3.545  12.651  0.5549  0.7811  0.3037
15616TIP3    H268264   2.600   3.396  12.623 -2.7556  0.7588  0.9501
15617TIP3   OH268265   3.629   6.484   4.806  0.3707 -0.3298 -0.2763
15617TIP3    H168266   3.636   6.520   4.894  0.8178 -0.8019 -0.1161
15617TIP3    H268267   3.700   6.526   4.757  1.9596 -2.2140  0.3418
15618TIP3   OH268268   0.384   0.317   1.771 -0.2770 -0.4137 -0.3121
15618TIP3    H168269   0.450   0.349   1.710  0.6460 -1.3131  0.1836
15618TIP3    H268270   0.435   0.278   1.842 -1.3165  1.4673  1.5163
15619TIP3   OH268271   1.605   0.282   0.889  0.0337  0.3013  0.1677
15619TIP3    H168272   1.568   0.304   0.803 -0.5282  0.7219  0.5135
15619TIP3    H268273   1.645   0.196   0.877  0.1436  0.4541 -0.5728
15620TIP3   OH268274   3.432   5.179   1.340 -0.4000  0.9178 -0.5094
15620TIP3    H168275   3.352   5.216   1.377  1.2808  2.6371  1.5688
15620TIP3    H268276   3.502   5.215   1.395  1.7106 -1.4176 -1.5904
15621TIP3   OH268277   3.051   0.469  13.030  0.6391  0.2731 -0.2186
15621TIP3    H168278   3.093   0.405  13.089  0.4555 -0.0890 -0.4794
15621TIP3    H268279   3.098   0.551  13.047  0.5229  0.1978  0.5094
15622TIP3   OH268280   0.298   6.733  14.452 -0.1694 -0.1019 -0.2281
15622TIP3    H168281   0.293   6.637  14.453 -1.2114 -0.0446  0.2671
15622TIP3    H268282   0.209   6.762  14.471  0.0319  0.9690 -0.8721
15623TIP3   OH268283   2.045   6.613   2.241 -0.0237 -0.2052  0.5370
15623TIP3    H168284   2.063   6.633   2.333  0.6364 -0.5870  0.4960
15623TIP3    H268285   1.971   6.669   2.218 -1.0635 -1.0752  1.6781
15624TIP3   OH268286   0.083   5.803   2.420 -0.3505 -0.1633  0.1036
15624TIP3    H168287   0.080   5.713   2.386 -0.0938 -0.0181 -0.3018
15624TIP3    H268288   0.058   5.794   2.512  0.1169 -0.7083  0.1804
15625TIP3   OH268289   1.973   1.200   0.534  0.4190 -0.2166 -0.0471
15625TIP3    H168290   1.929   1.128   0.489  0.1475 -1.2210  1.7909
15625TIP3    H268291   1.936   1.200   0.622  2.3425  0.4574  0.7965
15626TIP3   OH268292   2.766   3.784  13.224  0.0982  0.1343 -0.0313
15626TIP3    H168293   2.858   3.809  13.229  0.0785  0.1156  0.4812
15626TIP3    H268294   2.768   3.689  13.212  0.1421  0.0895  0.3218
15627TIP3   OH268295   4.082   1.357   4.800 -0.2789 -0.0045 -0.1473
15627TIP3    H168296   4.086   1.309   4.717 -0.1012 -1.8673  0.9108
15627TIP3    H268297   4.006   1.321   4.845 -0.8833  1.6105  0.1445
15628TIP3   OH268298   5.999   6.766  16.845  0.5100 -0.1229  0.0493
15628TIP3    H168299   5.909   6.767  16.811  0.7738  0.9709 -0.6461
15628TIP3    H268300   6.025   6.858  16.845  1.1512 -0.2937  1.5533
15629TIP3   OH268301   3.570   4.725  12.458 -0.0738 -0.3904 -0.2563
15629TIP3    H168302   3.591   4.743  12.366 -1.4921  1.3494 -0.2553
15629TIP3    H268303   3.568   4.629  12.463  0.3102 -0.5076 -1.9830
15630TIP3   OH268304   3.289   5.731   1.950 -0.3131  0.3897  0.0337
15630TIP3    H168305   3.199   5.761   1.966 -0.4809  0.8756 -1.7016
15630TIP3    H268306   3.280   5.636   1.939 -0.6627  0.4829 -0.4858
15631TIP3   OH268307   5.400   1.135   5.182  0.5382 -0.2638  0.3144
15631TIP3    H168308   5.398   1.056   5.235 -0.0853 -1.1464 -1.0064
15631TIP3    H268309   5.485   1.133   5.138  0.2685 -0.5461 -0.2078
15632TIP3   OH268310   3.191   0.809   0.642  0.5107 -1.0272 -0.4697
15632TIP3    H168311   3.108   0.856   0.628  1.2757  0.5610  0.1762
15632TIP3    H268312   3.257   0.868   0.606  1.5261 -1.4804  0.6446
15633TIP3   OH268313   4.204   1.779   4.071 -0.8090 -0.2751 -0.0989
15633TIP3    H168314   4.207   1.875   4.073  1.0087 -0.2938 -0.7767
15633TIP3    H268315   4.278   1.754   4.015 -2.0861 -2.0295 -1.0627
15634TIP3   OH268316   5.120   5.191   1.144  0.3173  0.0644  0.7032
15634TIP3    H168317   5.044   5.139   1.168 -0.3696  1.3838  1.4505
15634TIP3    H268318   5.087   5.254   1.080  0.7733  0.6489  1.0355
15635TIP3   OH268319   2.122   2.278  17.015 -0.2594 -0.1960  0.5227
15635TIP3    H168320   2.042   2.330  17.020  0.9738  1.7756  0.3253
15635TIP3    H268321   2.099   2.195  17.056 -2.2369  0.5512  0.9929
15636TIP3   OH268322   1.815   4.093  10.549 -0.1633  0.6509  0.0682
15636TIP3    H168323   1.848   4.175  10.586 -2.2630  1.3081  0.5802
15636TIP3    H268324   1.801   4.037  10.625 -0.1615  0.3673 -0.1421
15637TIP3   OH268325   2.172   3.501   3.701 -0.2326 -0.0356 -0.4612
15637TIP3    H168326   2.128   3.449   3.768 -1.6914  3.5382  1.5040
15637TIP3    H268327   2.102   3.528   3.642  0.5483 -0.5056 -1.6113
15638TIP3   OH268328   3.947   5.758  16.847 -0.2302  0.5689  0.2341
15638TIP3    H168329   3.876   5.798  16.798  0.6237  0.7081 -0.8881
15638TIP3    H268330   3.922   5.769  16.939 -0.7196  2.3363 -0.1071
15639TIP3   OH268331   4.867   2.588  13.767  0.2986  0.1419  0.2656
15639TIP3    H168332   4.825   2.511  13.729  1.1075  0.5393 -1.5131
15639TIP3    H268333   4.948   2.554  13.806  0.1183 -0.0760  0.4524
15640TIP3   OH268334   2.970   0.735  15.354  0.7575 -0.1519  0.3029
15640TIP3    H168335   3.005   0.662  15.303 -1.4294 -0.7365 -0.4176
15640TIP3    H268336   2.878   0.711  15.370  0.4190  1.7605  1.3155
15641TIP3   OH268337   3.915   4.279   0.484  0.3442 -0.0179 -0.0051
15641TIP3    H168338   3.907   4.307   0.575  1.5824  1.5165 -0.3263
15641TIP3    H268339   4.009   4.287   0.465  0.2294 -1.1924 -1.1456
15642TIP3   OH268340   2.585   2.720   3.586 -0.2230  0.6222 -0.2579
15642TIP3    H168341   2.607   2.703   3.678 -1.9268 -0.3626 -0.0065
15642TIP3    H268342   2.491   2.701   3.580 -0.2832  1.3827 -2.0475
15643TIP3   OH268343   2.763   6.427   5.172 -0.6563  0.3516 -0.2810
15643TIP3    H168344   2.841   6.390   5.131 -0.0054  1.0799  0.2755
15643TIP3    H268345   2.760   6.388   5.259 -0.6175  0.7167 -0.1136
15644TIP3   OH268346   0.576   0.595  11.528  0.7396  0.1281  0.1666
15644TIP3    H168347   0.635   0.632  11.463  0.5696  0.1217  0.0102
15644TIP3    H268348   0.531   0.670  11.566 -1.2982 -0.0834 -1.7684
15645TIP3   OH268349   3.772   4.654  12.695 -0.1503  0.3492  0.9513
15645TIP3    H168350   3.717   4.728  12.722  0.3681  1.6781 -1.4845
15645TIP3    H268351   3.861   4.683  12.715 -0.0393 -0.1816  1.2297
15646TIP3   OH268352   3.928   0.139   5.664 -0.0546  0.1983  0.4396
15646TIP3    H168353   4.011   0.094   5.647 -0.9382 -1.8452  1.3383
15646TIP3    H268354   3.955   0.223   5.702  1.6237 -0.1011 -0.0176
15647TIP3   OH268355   2.681   0.799  14.213 -0.2565 -0.0271  0.8168
15647TIP3    H168356   2.767   0.783  14.251  0.1165 -1.0614 -0.4311
15647TIP3    H268357   2.659   0.717  14.169 -0.5583  1.2153 -1.4353
15648TIP3   OH268358   5.022   1.134  17.181  0.3669  0.3048  0.1920
15648TIP3    H168359   5.023   1.048  17.222 -1.4302  0.8263  1.3673
15648TIP3    H268360   4.973   1.122  17.100 -0.3930  0.3356  0.6428
15649TIP3   OH268361   5.395   1.769   3.242  0.2689  0.1581 -0.0798
15649TIP3    H168362   5.329   1.831   3.213 -1.9241 -1.5249  1.1899
15649TIP3    H268363   5.427   1.804   3.326  0.7689  0.7965 -0.5327
15650TIP3   OH268364   1.477   6.566  13.638 -0.2021  0.6964  0.3104
15650TIP3    H168365   1.448   6.552  13.728  1.9448 -0.1805  0.8686
15650TIP3    H268366   1.529   6.646  13.642 -0.4808  0.9091 -0.2515
15651TIP3   OH268367   2.146   2.128   6.287  0.0028 -0.1310 -0.7195
15651TIP3    H168368   2.126   2.217   6.314  1.2931 -0.0883  0.1539
15651TIP3    H268369   2.236   2.114   6.316 -0.2527 -1.7791 -0.6818
15652TIP3   OH268370   3.151   1.559   4.726 -0.1384  0.2941 -0.0698
15652TIP3    H168371   3.078   1.520   4.772  0.6181  0.1150  0.9916
15652TIP3    H268372   3.214   1.581   4.794  0.6945  0.6684 -0.9424
15653TIP3   OH268373   3.052   4.955  11.888  0.1199  0.2184  0.7277
15653TIP3    H168374   3.132   4.971  11.837 -0.1792 -2.7933 -0.7916
15653TIP3    H268375   3.062   5.010  11.966  2.2280  2.2560 -0.9004
15654TIP3   OH268376   1.987   5.164   2.005 -0.5133 -0.1665  0.3453
15654TIP3    H168377   2.021   5.207   1.927  0.4604  0.0033  0.8489
15654TIP3    H268378   1.986   5.071   1.983 -0.9148 -0.0555 -0.1154
15655TIP3   OH268379   2.349   5.981  13.054 -0.3928  0.0085  0.3588
15655TIP3    H168380   2.256   5.960  13.048 -0.1015 -1.2754  0.0712
15655TIP3    H268381   2.379   5.985  12.964 -0.9174  4.1433  0.2725
15656TIP3   OH268382   6.260   3.358   3.527 -0.5320 -0.2814 -0.2766
15656TIP3    H168383   6.298   3.372   3.614  0.6164 -1.0594 -0.6346
15656TIP3    H268384   6.167   3.349   3.543 -0.1909 -1.7055  1.0460
15657TIP3   OH268385   2.797   2.827  13.585  0.1286 -0.4577  0.1384
15657TIP3    H168386   2.708   2.791  13.587 -0.5211  1.0838  0.0004
15657TIP3    H268387   2.811   2.860  13.673 -0.1008  0.8150 -0.2836
15658TIP3   OH268388   1.905   4.276  13.219  0.0730 -0.1242 -0.1255
15658TIP3    H168389   1.932   4.339  13.286  0.4147  0.9957 -1.3139
15658TIP3    H268390   1.821   4.310  13.187 -0.5343 -1.1461  0.3592
15659TIP3   OH268391   4.830   0.084   4.838  0.1678 -0.4685  0.2198
15659TIP3    H168392   4.847   0.021   4.767  0.4966 -0.4801  0.3037
15659TIP3    H268393   4.843   0.033   4.918 -1.0914 -0.6826  0.2880
15660TIP3   OH268394   6.373   4.482  13.071  0.3967  0.4687 -0.3399
15660TIP3    H168395   6.295   4.450  13.117  1.3408 -1.6784 -0.1818
15660TIP3    H268396   6.338   4.541  13.004 -1.3126  0.1330  0.2231
15661TIP3   OH268397   1.074   0.770   3.553 -0.1726  1.0479  0.0105
15661TIP3    H168398   1.151   0.781   3.609  1.2652  1.0210 -1.9261
15661TIP3    H268399   1.098   0.812   3.470 -1.9235  0.2940 -0.9034
15662TIP3   OH268400   4.473   5.756   3.319 -0.3043  0.4148 -1.4489
15662TIP3    H168401   4.407   5.773   3.252 -1.5058 -1.0744 -0.6943
15662TIP3    H268402   4.421   5.735   3.397  1.0660  1.5602 -0.2074
15663TIP3   OH268403   6.427   4.922  17.025  0.5626  0.3496  0.3735
15663TIP3    H168404   6.421   4.879  16.940  0.4539  0.0176  0.5469
15663TIP3    H268405   6.376   4.867  17.084 -0.3742  1.2354  0.4002
15664TIP3   OH268406   1.620   4.283   0.607  0.1814 -0.0693  0.3406
15664TIP3    H168407   1.565   4.205   0.601 -1.5900  0.9766  2.1962
15664TIP3    H268408   1.710   4.250   0.611 -0.6018 -2.0960  2.1515
15665TIP3   OH268409   4.294   5.093  14.528 -0.6087  0.2591 -0.7355
15665TIP3    H168410   4.347   5.173  14.538  0.4152 -0.3634 -1.1495
15665TIP3    H268411   4.209   5.125  14.496 -1.3504  1.5111  2.2894
15666TIP3   OH268412   3.327   4.752   4.937 -0.0604 -0.3335 -0.5971
15666TIP3    H168413   3.313   4.736   4.844 -0.3127 -0.5958 -0.5141
15666TIP3    H268414   3.396   4.691   4.962 -1.0254 -1.3200 -0.2800
15667TIP3   OH268415   0.150   1.041  13.302 -0.1736  0.0280 -0.8275
15667TIP3    H168416   0.193   0.977  13.358 -1.1782  1.0937  1.1910
15667TIP3    H268417   0.205   1.119  13.306 -0.4669  0.2500 -0.9983
15668TIP3   OH268418   6.561   0.362  11.652  0.3108 -0.0577 -0.0230
15668TIP3    H168419   6.640   0.387  11.605  0.6968 -2.0569 -0.4972
15668TIP3    H268420   6.575   0.270  11.676 -1.0987  0.0771  1.4715
15669TIP3   OH268421   6.354   4.426  15.094  1.2085 -0.3912  0.0220
15669TIP3    H168422   6.318   4.340  15.117  0.8069 -0.3742 -0.5347
15669TIP3    H268423   6.434   4.406  15.044  0.1000 -0.4816 -1.7763
15670TIP3   OH268424   5.166   6.257  15.555  0.2338 -0.2377  0.2418
15670TIP3    H168425   5.084   6.307  15.548  1.2707  1.3252 -1.0015
15670TIP3    H268426   5.161   6.218  15.643 -1.8371 -0.1788  0.1968
15671TIP3   OH268427   2.537   6.601  11.150  0.5735  0.3591 -0.2482
15671TIP3    H168428   2.629   6.583  11.128  0.4802  0.7190 -0.9501
15671TIP3    H268429   2.492   6.602  11.065 -0.1566 -0.2288  0.1224
15672TIP3   OH268430   3.448   2.933   5.831  0.1576 -0.2754 -0.0525
15672TIP3    H168431   3.365   2.976   5.850 -0.4308 -1.3603 -0.1428
15672TIP3    H268432   3.481   2.979   5.753 -0.6945 -0.3044 -0.4328
15673TIP3   OH268433   2.177   0.362  13.351  0.1033 -0.3078  0.1851
15673TIP3    H168434   2.181   0.267  13.362 -1.7136 -0.3549  0.5537
15673TIP3    H268435   2.084   0.380  13.335  0.3377  1.4800  0.8169
15674TIP3   OH268436   4.333   2.702  11.524 -0.1315  0.2631  0.6707
15674TIP3    H168437   4.339   2.607  11.536 -1.1155  0.1796  0.5056
15674TIP3    H268438   4.408   2.724  11.469 -0.0902 -0.4665  0.4350
15675TIP3   OH268439   2.303   0.760   4.463 -0.1395  0.1410  0.1415
15675TIP3    H168440   2.298   0.855   4.455 -0.9791 -0.0181 -1.2734
15675TIP3    H268441   2.216   0.729   4.438  0.2204 -1.0200  0.3020
15676TIP3   OH268442   3.595   5.967   2.332 -0.4156  0.1156  0.0269
15676TIP3    H168443   3.593   5.912   2.254  0.9094  0.9940 -0.6639
15676TIP3    H268444   3.664   5.928   2.387  1.1618  1.5642 -0.8683
15677TIP3   OH268445   3.086   4.838  12.863  0.0665 -0.3473  0.5761
15677TIP3    H168446   3.065   4.771  12.928 -0.3751  0.4330  1.2477
15677TIP3    H268447   3.176   4.820  12.837  0.6127 -0.0268  2.1897
15678TIP3   OH268448   0.930   2.972   2.720  0.1393 -0.3880 -0.1830
15678TIP3    H168449   0.995   3.032   2.684 -0.2425 -0.1312 -0.4512
15678TIP3    H268450   0.958   2.957   2.810  0.2162  0.2245 -0.1044
15679TIP3   OH268451   3.375   5.366   1.091  0.2159 -0.1210 -0.2376
15679TIP3    H168452   3.454   5.391   1.043 -0.6027 -0.0605 -1.5741
15679TIP3    H268453   3.394   5.278   1.125  1.4798  0.5556  0.8678
15680TIP3   OH268454   2.321   2.613  13.764  0.2801  0.4078  0.4287
15680TIP3    H168455   2.299   2.702  13.735 -0.8467 -0.3350 -1.0283
15680TIP3    H268456   2.304   2.614  13.858 -0.2040  1.5869  0.3419
15681TIP3   OH268457   0.531   3.121  16.835 -0.2394 -0.3878 -0.2166
15681TIP3    H168458   0.613   3.077  16.857 -0.0519  0.7279  1.3824
15681TIP3    H268459   0.507   3.169  16.914 -0.8243  1.7764 -1.6521
15682TIP3   OH268460   0.714   3.487   1.293  0.2530  0.2163  0.1173
15682TIP3    H168461   0.792   3.447   1.331  0.2778 -0.9564 -1.1396
15682TIP3    H268462   0.643   3.427   1.317  0.0088  0.3687 -0.2199
15683TIP3   OH268463   6.174   1.944   4.394  0.0882 -0.5275 -0.2866
15683TIP3    H168464   6.242   1.980   4.451 -0.7764 -1.6266  1.4883
15683TIP3    H268465   6.136   2.021   4.352 -0.9305  0.5957  2.5396
15684TIP3   OH268466   6.196   4.824  16.654  0.1959  0.0197 -0.5132
15684TIP3    H168467   6.183   4.902  16.600 -1.2696 -0.9455 -1.6143
15684TIP3    H268468   6.116   4.818  16.707 -0.3566 -1.5000 -1.4716
15685TIP3   OH268469   2.393   5.291  11.805 -0.8483 -0.4438 -0.3096
15685TIP3    H168470   2.370   5.285  11.897 -1.9494  0.6564 -0.5105
15685TIP3    H268471   2.489   5.282  11.804 -0.6515  1.2804  1.0884
15686TIP3   OH268472   0.995   2.092  13.683  0.5021  0.6152 -0.2275
15686TIP3    H168473   0.989   2.166  13.622  0.4314  0.6816 -0.1410
15686TIP3    H268474   0.925   2.033  13.656  1.0879  0.1806 -0.8219
15687TIP3   OH268475   1.403   0.702   1.031  0.0040 -0.2341  0.2668
15687TIP3    H168476   1.341   0.768   1.061  0.7823  0.3467  0.6034
15687TIP3    H268477   1.429   0.733   0.944 -1.0128 -1.0610 -0.3454
15688TIP3   OH268478   5.451   1.071   2.474 -0.1694 -0.0690 -0.1486
15688TIP3    H168479   5.394   1.090   2.548 -0.9289 -0.8459 -0.5281
15688TIP3    H268480   5.408   1.112   2.399 -0.9552 -1.8051 -0.6744
15689TIP3   OH268481   2.893   0.472   2.280 -0.1300 -0.0426  0.1546
15689TIP3    H168482   2.916   0.446   2.191  0.0411  1.5191 -0.2700
15689TIP3    H268483   2.977   0.489   2.323 -0.1441 -2.0642  1.0285
15690TIP3   OH268484   1.699   5.296   2.734  0.5767 -0.1954  0.4128
15690TIP3    H168485   1.696   5.200   2.736 -1.0628 -0.1376  1.7355
15690TIP3    H268486   1.641   5.320   2.661  2.3035 -0.2397 -0.9991
15691TIP3   OH268487   6.299   4.558   0.501  0.0436  0.3429  0.2708
15691TIP3    H168488   6.292   4.573   0.407  1.7639  1.1211  0.2517
15691TIP3    H268489   6.237   4.487   0.519 -1.2934  1.1120 -1.2066
15692TIP3   OH268490   3.327   3.439  11.944  0.2146  0.0674 -0.3906
15692TIP3    H168491   3.239   3.471  11.963  1.0507  1.9340  0.4754
15692TIP3    H268492   3.337   3.452  11.849 -1.1448 -2.0241 -0.8433
15693TIP3   OH268493   1.486   3.379   1.234  0.0696  0.2303  0.3609
15693TIP3    H168494   1.406   3.332   1.211  2.8134 -4.2105 -0.5621
15693TIP3    H268495   1.482   3.388   1.329 -0.6409 -1.6192  0.5114
15694TIP3   OH268496   4.230   2.361  13.871 -0.2535  0.7499 -0.2767
15694TIP3    H168497   4.315   2.373  13.830 -1.6938  1.9238 -3.0565
15694TIP3    H268498   4.212   2.267  13.864 -0.0912  0.8085 -1.5693
15695TIP3   OH268499   3.653   0.553   2.737 -0.5462 -0.5293  0.0460
15695TIP3    H168500   3.735   0.503   2.745 -1.0201 -1.5628 -1.3752
15695TIP3    H268501   3.621   0.559   2.827  0.7248 -0.7433  0.5324
15696TIP3   OH268502   2.684   6.055   5.533  0.1108  0.4532 -0.1147
15696TIP3    H168503   2.637   5.981   5.495  2.2467  0.1068 -2.2235
15696TIP3    H268504   2.661   6.129   5.478  0.9794  0.5377 -0.3798
15697TIP3   OH268505   3.127   2.353   3.905 -0.5235 -0.3972  0.0581
15697TIP3    H168506   3.196   2.419   3.917 -1.0498 -0.0443  1.2107
15697TIP3    H268507   3.105   2.326   3.994 -2.2815 -0.0942 -0.2818
15698TIP3   OH268508   2.867   3.705   2.536 -0.0103  0.0091  0.0209
15698TIP3    H168509   2.828   3.669   2.457  0.0271 -0.0663  0.0363
15698TIP3    H268510   2.961   3.687   2.527 -0.0281 -0.1650  0.1671
15699TIP3   OH268511   4.281   6.308   4.867 -0.1386  0.0529  0.2592
15699TIP3    H168512   4.208   6.342   4.816  0.4870 -0.6167 -1.1031
15699TIP3    H268513   4.240   6.255   4.935 -0.9138 -0.7555 -0.8160
15700TIP3   OH268514   5.767   4.432   4.572 -0.7696  0.1276 -0.4294
15700TIP3    H168515   5.734   4.516   4.602  0.1488  0.2742  0.1993
15700TIP3    H268516   5.689   4.381   4.551 -1.3180  1.6275 -2.1939
15701TIP3   OH268517   4.338   4.054  13.163 -0.3664  0.0059  0.1635
15701TIP3    H168518   4.337   4.017  13.075 -0.0082 -0.4527  0.3553
15701TIP3    H268519   4.259   4.019  13.204 -0.5049  0.1756  0.0454
15702TIP3   OH268520   4.758   6.454   4.039 -0.5266 -0.3630 -0.0545
15702TIP3    H168521   4.678   6.443   3.986 -0.5648  0.0389 -0.0780
15702TIP3    H268522   4.811   6.377   4.018 -1.0863 -0.8396  0.2703
15703TIP3   OH268523   0.649   5.364   1.158  0.0516  0.5589  0.3506
15703TIP3    H168524   0.597   5.408   1.226 -1.5071  0.9923 -1.0768
15703TIP3    H268525   0.698   5.435   1.117  0.0253  0.4810  0.1880
15704TIP3   OH268526   3.128   1.680   4.216 -0.1502 -0.0385 -0.2675
15704TIP3    H168527   3.131   1.649   4.306 -0.2653 -1.9720 -0.9048
15704TIP3    H268528   3.185   1.758   4.215  1.5770 -1.2498  1.0076
15705TIP3   OH268529   6.098   0.525  16.550 -0.3570 -0.0458 -0.0955
15705TIP3    H168530   6.180   0.476  16.556 -0.5616 -0.4359 -0.4212
15705TIP3    H268531   6.033   0.459  16.529 -0.6974  0.3206 -0.1957
15706TIP3   OH268532   3.871   6.197   3.448  1.0091  0.5479  0.4581
15706TIP3    H168533   3.957   6.185   3.489  0.7705 -3.3177  0.0031
15706TIP3    H268534   3.890   6.221   3.358  1.5885  1.5401  0.8423
15707TIP3   OH268535   4.817   6.668   2.778 -0.5480 -0.5816 -0.5160
15707TIP3    H168536   4.735   6.683   2.731 -1.1628 -3.0082 -0.2799
15707TIP3    H268537   4.867   6.611   2.720  1.1243  1.0843 -0.7749
15708TIP3   OH268538   6.405   5.029   6.160 -0.5861 -0.0022  0.1312
15708TIP3    H168539   6.433   4.948   6.202  0.3741  0.4970  0.4706
15708TIP3    H268540   6.318   5.047   6.198 -1.1794 -1.3193 -0.5999
15709TIP3   OH268541   5.615   5.595  12.813  0.5569 -0.7686  0.1745
15709TIP3    H168542   5.659   5.680  12.822 -1.0971  0.0472  0.6556
15709TIP3    H268543   5.593   5.589  12.720 -0.7499  0.0605  0.4181
15710TIP3   OH268544   0.496   3.404   6.920  0.2518  0.6280  0.3144
15710TIP3    H168545   0.581   3.361   6.910  1.5162  3.2882 -0.9281
15710TIP3    H268546   0.458   3.404   6.832 -1.1897 -0.7728  0.9052
15711TIP3   OH268547   3.180   1.806   0.317 -0.0154 -0.1087 -0.8575
15711TIP3    H168548   3.201   1.713   0.324  0.7679  0.1981  0.9333
15711TIP3    H268549   3.239   1.849   0.379 -1.0098  1.4908 -1.0063
15712TIP3   OH268550   3.843   6.349  15.411  1.2060 -0.0178  0.4655
15712TIP3    H168551   3.780   6.349  15.483  1.1414 -0.3770  0.4094
15712TIP3    H268552   3.804   6.405  15.344  0.2787 -1.3739 -0.1476
15713TIP3   OH268553   0.707   2.101   1.957  0.0446  0.4045 -0.1303
15713TIP3    H168554   0.739   2.162   1.890 -0.4253  0.9940  0.1788
15713TIP3    H268555   0.633   2.146   1.996 -1.2856 -1.0428 -0.9581
15714TIP3   OH268556   3.416   5.567  14.747 -0.6626 -0.2851 -0.3054
15714TIP3    H168557   3.333   5.523  14.732 -0.3813 -1.5117  1.5212
15714TIP3    H268558   3.393   5.651  14.786 -1.0702 -0.5086 -0.0652
15715TIP3   OH268559   5.814   4.681  12.079 -0.1785 -0.0457 -0.0539
15715TIP3    H168560   5.904   4.705  12.102  0.0129 -0.8607  0.0625
15715TIP3    H268561   5.782   4.634  12.156 -0.1708 -1.1419 -0.7133
15716TIP3   OH268562   5.820   3.160  15.100 -0.3647  0.1782  0.4070
15716TIP3    H168563   5.767   3.146  15.021  0.2274  1.7541 -0.2835
15716TIP3    H268564   5.818   3.075  15.145 -2.0748 -0.2635 -0.4558
15717TIP3   OH268565   3.967   2.616   3.015  0.2606  0.3897 -0.0640
15717TIP3    H168566   4.006   2.645   3.098 -0.4668  0.1489  0.3698
15717TIP3    H268567   3.881   2.657   3.014 -0.1696 -0.5070 -0.1805
15718TIP3   OH268568   5.332   5.914  12.771 -0.0434 -0.0373 -0.0212
15718TIP3    H168569   5.356   5.916  12.678 -2.6031  0.4738 -0.6922
15718TIP3    H268570   5.278   5.992  12.784 -0.9118 -0.8819  1.5678
15719TIP3   OH268571   5.834   6.452   2.957  0.3577 -0.5113 -0.1128
15719TIP3    H168572   5.857   6.413   2.873 -0.3780 -0.0697 -0.5261
15719TIP3    H268573   5.812   6.543   2.936  0.7077 -0.2459  0.6390
15720TIP3   OH268574   3.327   5.567  16.868  0.3131 -0.3031 -0.2004
15720TIP3    H168575   3.233   5.580  16.885  0.4707 -0.0597  0.5057
15720TIP3    H268576   3.334   5.476  16.839 -0.1278 -0.3557 -0.1471
15721TIP3   OH268577   3.611   2.722   5.260 -0.8006 -0.0983  0.2745
15721TIP3    H168578   3.685   2.666   5.283 -1.6785 -0.8699  1.2324
15721TIP3    H268579   3.555   2.722   5.337 -0.8708  2.0275  0.2505
15722TIP3   OH268580   0.035   1.874  14.392 -0.1282  0.0255 -0.1234
15722TIP3    H168581   0.082   1.958  14.390 -0.3823  0.1578 -0.4653
15722TIP3    H268582   0.068   1.831  14.471  0.2480  0.3057 -0.1249
15723TIP3   OH268583   6.466   6.087   0.417  0.1224 -0.3216  0.0515
15723TIP3    H168584   6.545   6.060   0.370  0.5863  0.2059  0.5120
15723TIP3    H268585   6.446   6.013   0.475  0.5513 -0.2749  0.2641
15724TIP3   OH268586   5.931   2.292   0.811  0.6367  0.7837 -0.2447
15724TIP3    H168587   5.854   2.343   0.787  0.1185  0.7003  1.2121
15724TIP3    H268588   6.005   2.338   0.771 -0.1330  1.0199 -1.4053
15725TIP3   OH268589   5.788   2.779  11.324 -0.3117  0.4858 -0.1418
15725TIP3    H168590   5.870   2.744  11.360  0.9273  1.5876 -1.8294
15725TIP3    H268591   5.770   2.724  11.248 -0.9840  0.4550  0.0370
15726TIP3   OH268592   4.453   1.600   2.909  0.3041 -0.0769 -0.1396
15726TIP3    H168593   4.468   1.516   2.952 -0.3718  0.3351  0.9214
15726TIP3    H268594   4.416   1.656   2.977  0.8861  1.1356 -0.7895
15727TIP3   OH268595   6.382   3.699  12.156 -0.2043 -0.2934 -0.0698
15727TIP3    H168596   6.399   3.665  12.068 -0.4480  1.2399 -0.7168
15727TIP3    H268597   6.289   3.721  12.155 -0.2537 -0.4665  0.6397
15728TIP3   OH268598   4.589   0.624   0.984 -0.2374  0.5054  0.0230
15728TIP3    H168599   4.644   0.636   1.061 -0.1911  0.2902  0.0230
15728TIP3    H268600   4.620   0.542   0.944 -0.3063  0.5797 -0.1849
15729TIP3   OH268601   0.204   0.276   0.069 -0.3315 -0.1199 -0.0190
15729TIP3    H168602   0.119   0.314   0.048  0.4346  1.0143 -1.1625
15729TIP3    H268603   0.191   0.182   0.061 -1.5421  0.0331  0.0657
15730TIP3   OH268604   6.667   2.667   6.260 -0.0223  0.0726  0.0186
15730TIP3    H168605   6.748   2.683   6.211 -0.1270  0.6046  0.0146
15730TIP3    H268606   6.621   2.601   6.209 -0.8462  1.7288 -1.4437
15731TIP3   OH268607   0.197   1.329   3.636 -0.4997 -0.4288  0.2376
15731TIP3    H168608   0.164   1.303   3.721 -2.4483 -0.5970 -0.5489
15731TIP3    H268609   0.292   1.335   3.648 -0.7396 -0.5225  2.3757
15732TIP3   OH268610   0.176   0.542  13.159  0.1801  0.1145  0.7459
15732TIP3    H168611   0.201   0.479  13.226  1.7554 -0.4769 -0.3802
15732TIP3    H268612   0.245   0.608  13.160  0.3025  0.0136 -0.3997
15733TIP3   OH268613   2.393   3.321  13.135  1.1377 -0.2718  0.4747
15733TIP3    H168614   2.435   3.269  13.204  1.4390 -1.3644 -0.5126
15733TIP3    H268615   2.309   3.348  13.173  1.0452 -1.3536  1.0731
15734TIP3   OH268616   2.983   6.388   0.222 -0.1014 -0.7356 -0.5296
15734TIP3    H168617   2.996   6.314   0.282 -0.6112 -1.9989 -1.9431
15734TIP3    H268618   2.955   6.347   0.140 -1.6940  1.1417 -0.9367
15735TIP3   OH268619   3.513   5.304   4.215  0.0794  0.0539 -0.1134
15735TIP3    H168620   3.480   5.262   4.294  0.5940 -1.1952 -0.5645
15735TIP3    H268621   3.446   5.288   4.149 -0.4325  1.2459  0.0988
15736TIP3   OH268622   5.304   3.763   2.596  0.0062 -0.0785 -0.5214
15736TIP3    H168623   5.390   3.750   2.635  0.8689  2.5379 -1.4308
15736TIP3    H268624   5.305   3.710   2.516 -0.5830 -2.8579  1.2289
15737TIP3   OH268625   0.744   5.582  14.513  0.1825  0.0784  0.1525
15737TIP3    H168626   0.655   5.596  14.481 -1.0056 -0.6582  2.9522
15737TIP3    H268627   0.746   5.490  14.540  1.2964  0.4801  1.5317
15738TIP3   OH268628   2.808   0.977   4.824  0.1936 -0.2816 -0.0395
15738TIP3    H168629   2.829   1.065   4.795 -1.4959 -0.2859 -1.3799
15738TIP3    H268630   2.857   0.920   4.764 -0.9903 -0.2674 -1.0309
15739TIP3   OH268631   3.196   0.415  12.151 -0.6210  0.2585 -0.6308
15739TIP3    H168632   3.199   0.375  12.238 -2.3402 -0.9643 -1.0969
15739TIP3    H268633   3.262   0.367  12.101  2.3731  2.8424  0.7043
15740TIP3   OH268634   4.179   3.203  11.709 -0.3038  0.5037 -0.3668
15740TIP3    H168635   4.237   3.146  11.761  1.8038  1.7665 -1.2402
15740TIP3    H268636   4.130   3.142  11.654  0.6644 -0.5992 -0.0572
15741TIP3   OH268637   5.038   6.460  13.585 -0.2311  0.5378 -0.4885
15741TIP3    H168638   4.970   6.392  13.591 -0.9008  1.2545  0.0870
15741TIP3    H268639   5.085   6.454  13.668 -1.2238  1.7461  0.1762
15742TIP3   OH268640   1.866   6.158  13.264 -0.3949 -0.1764  0.0006
15742TIP3    H168641   1.786   6.175  13.314 -0.6024  1.7499 -0.9519
15742TIP3    H268642   1.853   6.204  13.181  1.3940 -0.4908 -0.4688
15743TIP3   OH268643   4.454   0.850   0.907 -0.1106 -0.7566  0.6054
15743TIP3    H168644   4.505   0.769   0.913 -0.2371 -0.7983  1.1144
15743TIP3    H268645   4.485   0.892   0.826  0.0375 -1.2552  0.4023
15744TIP3   OH268646   2.914   0.462  13.730  0.0907  0.0002  0.2222
15744TIP3    H168647   2.993   0.500  13.691 -0.3959  1.3379  0.5347
15744TIP3    H268648   2.868   0.536  13.768 -1.1111 -0.8425  0.4238
15745TIP3   OH268649   6.592   0.554  13.956 -0.4320  0.2586  0.1769
15745TIP3    H168650   6.687   0.563  13.950  0.0517 -2.1715  3.0037
15745TIP3    H268651   6.570   0.486  13.892  0.1139 -1.1403  1.4634
15746TIP3   OH268652   0.581   2.302   3.424 -0.1401  0.0523 -0.2036
15746TIP3    H168653   0.657   2.304   3.365  0.2768  1.4334  0.3704
15746TIP3    H268654   0.507   2.283   3.366  0.6593 -1.4946 -0.7474
15747TIP3   OH268655   2.331   5.976   2.681 -0.3831  0.1705 -0.1629
15747TIP3    H168656   2.260   5.915   2.663 -1.4058  1.7253 -1.5692
15747TIP3    H268657   2.295   6.036   2.746 -0.3354  0.9100 -0.8144
15748TIP3   OH268658   1.196   1.579   1.961 -0.3959  0.4468  0.0754
15748TIP3    H168659   1.151   1.505   2.001  1.8820 -1.1839 -0.2654
15748TIP3    H268660   1.231   1.629   2.034 -1.4138  0.8775  0.2831
15749TIP3   OH268661   2.782   5.413   6.085  0.2818  0.5677  0.9502
15749TIP3    H168662   2.728   5.468   6.142 -1.4867 -1.8073  1.6389
15749TIP3    H268663   2.774   5.326   6.122  0.0648 -0.8308 -2.2619
15750TIP3   OH268664   0.587   5.289  14.189 -0.1540 -0.0776 -0.0664
15750TIP3    H168665   0.660   5.291  14.252 -2.0904  0.1534  2.2259
15750TIP3    H268666   0.603   5.364  14.132  0.4342  1.0951  1.5738
15751TIP3   OH268667   4.430   6.605  17.036  0.1989 -0.0252 -0.6782
15751TIP3    H168668   4.348   6.560  17.014  0.0903 -0.8807  1.3585
15751TIP3    H268669   4.403   6.695  17.057 -0.1983 -0.2524 -0.1968
15752TIP3   OH268670   3.734   6.597  16.402  0.8127  0.0523  0.4424
15752TIP3    H168671   3.777   6.679  16.379 -1.8910  2.0099  2.1201
15752TIP3    H268672   3.679   6.577  16.326  2.1784 -0.7278 -0.3532
15753TIP3   OH268673   0.174   1.126  16.426  0.0108  0.4864  0.1806
15753TIP3    H168674   0.131   1.209  16.448  0.2519  0.0850  2.2037
15753TIP3    H268675   0.138   1.103  16.340 -0.3423  2.4856 -0.2361
15754TIP3   OH268676   2.109   5.423  12.624 -0.3398 -0.0654  0.0382
15754TIP3    H168677   2.118   5.463  12.710 -0.8097  0.3422 -0.1007
15754TIP3    H268678   2.016   5.431  12.603  0.0620  1.4491 -1.2774
15755TIP3   OH268679   0.286   1.031   3.516  0.5122 -0.3135  0.3488
15755TIP3    H168680   0.362   0.973   3.520  1.0251  0.2987 -0.3795
15755TIP3    H268681   0.267   1.040   3.423 -1.7798 -2.1549  0.5796
15756TIP3   OH268682   4.679   6.475  10.992  0.2753  0.1133 -0.0992
15756TIP3    H168683   4.596   6.476  10.945  0.5301  1.8968 -0.5597
15756TIP3    H268684   4.745   6.494  10.924  0.8103  1.0118  0.6460
15757TIP3   OH268685   1.901   0.228  16.057 -0.1583  0.1884  0.2914
15757TIP3    H168686   1.955   0.150  16.072  0.8543  0.8312  0.0432
15757TIP3    H268687   1.926   0.288  16.127  0.4761  1.0212 -0.6336
15758TIP3   OH268688   0.862   2.611   3.738 -0.0790  0.2354 -0.0165
15758TIP3    H168689   0.939   2.657   3.770  0.5872 -0.3071 -0.8126
15758TIP3    H268690   0.790   2.644   3.792  0.4113  2.0910 -0.4563
15759TIP3   OH268691   4.428   6.567   0.960 -0.1822  0.1931  0.2953
15759TIP3    H168692   4.472   6.499   1.010  1.9063  1.2070 -0.1050
15759TIP3    H268693   4.430   6.644   1.017  1.6699  1.1866 -1.0298
15760TIP3   OH268694   4.646   2.356  13.069  0.1048 -0.4064 -0.6100
15760TIP3    H168695   4.692   2.325  12.991 -1.8134  0.3421 -2.0777
15760TIP3    H268696   4.635   2.450  13.054  2.7894  0.4272  2.2041
15761TIP3   OH268697   2.261   6.710   3.814 -0.1525  0.2333  0.4276
15761TIP3    H168698   2.274   6.680   3.725 -0.1344 -0.8303  0.7812
15761TIP3    H268699   2.167   6.729   3.820 -0.2506 -0.2166  0.3350
15762TIP3   OH268700   3.568   0.247   3.066 -0.1262 -0.2969  0.1329
15762TIP3    H168701   3.520   0.244   2.983  0.8338  2.8767 -0.6180
15762TIP3    H268702   3.650   0.203   3.048  0.1237  0.4723 -0.6708
15763TIP3   OH268703   4.421   3.508  14.975  0.2129  0.4230 -0.5291
15763TIP3    H168704   4.483   3.579  14.991  1.0646 -0.4037 -0.1820
15763TIP3    H268705   4.336   3.546  14.998  0.8362  0.8487  1.1226
15764TIP3   OH268706   1.667   6.298   3.334 -0.3126 -0.2966 -0.2045
15764TIP3    H168707   1.723   6.224   3.310  1.4118  1.2758 -1.1702
15764TIP3    H268708   1.677   6.360   3.261  0.2542  1.9707  1.7590
15765TIP3   OH268709   0.484   3.345   0.169 -0.3656 -0.0034  0.2942
15765TIP3    H168710   0.462   3.376   0.081 -0.9927  0.9220  0.7682
15765TIP3    H268711   0.578   3.363   0.178 -0.0586 -1.1153 -0.5890
15766TIP3   OH268712   3.048   6.327  12.326 -0.1742 -0.1009 -0.3489
15766TIP3    H168713   3.018   6.279  12.403 -0.5335  0.1690 -0.3149
15766TIP3    H268714   2.995   6.407  12.326  0.6386  0.4411 -0.2295
15767TIP3   OH268715   4.122   1.213  14.763 -0.0774  0.8358 -0.0089
15767TIP3    H168716   4.176   1.216  14.684  1.0049 -1.0755  0.6392
15767TIP3    H268717   4.109   1.305  14.786 -0.7117  1.4467 -2.6006
15768TIP3   OH268718   4.028   4.421  12.297 -0.1372  0.3818 -0.5423
15768TIP3    H168719   4.016   4.425  12.202 -1.7107  1.0918 -0.3344
15768TIP3    H268720   4.120   4.398  12.309 -0.2219 -0.8815 -2.2437
15769TIP3   OH268721   3.926   2.495   0.153  0.2469 -0.1600 -0.2199
15769TIP3    H168722   3.911   2.508   0.060 -1.7839 -1.9512 -0.1954
15769TIP3    H268723   4.016   2.465   0.159  0.4493  0.1392 -1.5979
15770TIP3   OH268724   0.484   3.093  12.687  0.3862 -0.0087 -0.2063
15770TIP3    H168725   0.548   3.091  12.758 -1.2813 -2.0983  1.3152
15770TIP3    H268726   0.417   3.030  12.714 -1.7917  1.3747 -2.2358
15771TIP3   OH268727   2.047   6.780  16.100 -0.1451 -0.3483  0.1629
15771TIP3    H168728   2.031   6.722  16.174 -0.4010 -0.7759 -0.2166
15771TIP3    H268729   2.092   6.725  16.036 -2.1370 -0.6938 -0.9910
15772TIP3   OH268730   4.424   4.438  14.693 -0.5879 -0.4222  0.1192
15772TIP3    H168731   4.514   4.468  14.683 -1.3737  2.4071  1.0530
15772TIP3    H268732   4.389   4.436  14.604 -1.2527  4.0956  0.1351
15773TIP3   OH268733   3.952   2.834   4.584 -0.0273  0.0790 -0.1874
15773TIP3    H168734   3.882   2.823   4.649 -1.6535  1.1796 -1.7117
15773TIP3    H268735   3.994   2.917   4.609  0.8904 -0.6719  0.8358
15774TIP3   OH268736   3.584   2.243  14.573  0.1762  0.0291 -0.0428
15774TIP3    H168737   3.663   2.202  14.606  0.2030  1.6940  2.0748
15774TIP3    H268738   3.513   2.201  14.621 -0.2540 -1.5130 -1.9881
15775TIP3   OH268739   4.269   0.948  13.570  0.5068  0.0059  0.2249
15775TIP3    H168740   4.208   0.942  13.497  1.4087 -0.9638 -0.4731
15775TIP3    H268741   4.214   0.966  13.646 -0.4413  1.0939 -0.6928
15776TIP3   OH268742   1.378   0.055  15.335 -0.3887 -0.5422 -0.5004
15776TIP3    H168743   1.328   0.116  15.388  0.7714  0.8739 -1.0135
15776TIP3    H268744   1.316  -0.016  15.315 -1.9703  0.8206 -0.5273
15777TIP3   OH268745   6.346   0.908   4.801  0.0946 -0.3722  0.4045
15777TIP3    H168746   6.292   0.945   4.731 -1.3744  0.0650  1.7383
15777TIP3    H268747   6.342   0.972   4.871  0.2626 -1.5182  1.4821
15778TIP3   OH268748   1.542   1.134  11.756 -0.4124  0.3528 -0.1139
15778TIP3    H168749   1.570   1.199  11.691  1.7032 -0.7129 -0.3197
15778TIP3    H268750   1.596   1.152  11.832 -0.0678 -0.9242 -0.0455
15779TIP3   OH268751   0.392   3.671   4.911 -0.1763 -0.5092  0.0387
15779TIP3    H168752   0.484   3.660   4.932  0.1882 -0.3366 -1.4015
15779TIP3    H268753   0.351   3.588   4.936  0.7387 -1.3621 -1.2643
15780TIP3   OH268754   4.716   3.174   1.595 -0.2337  0.3352  0.0850
15780TIP3    H168755   4.735   3.127   1.513 -2.6737  0.6765 -0.7382
15780TIP3    H268756   4.762   3.257   1.586  0.0990  0.0755 -0.6562
15781TIP3   OH268757   1.911   4.587  12.490 -0.2587  0.3784 -0.0464
15781TIP3    H168758   1.962   4.511  12.516 -0.4673  0.7611  1.4817
15781TIP3    H268759   1.824   4.571  12.526 -1.2125 -0.1642 -2.4379
15782TIP3   OH268760   4.236   1.448  12.444 -0.1002 -0.1138  0.2006
15782TIP3    H168761   4.282   1.396  12.377 -1.2151 -0.5488 -0.2448
15782TIP3    H268762   4.294   1.447  12.519 -0.3323 -2.5357  0.4162
15783TIP3   OH268763   1.223   0.883  15.969  0.1695 -0.3912  0.1746
15783TIP3    H168764   1.260   0.965  16.002 -0.7736  0.1352 -0.0691
15783TIP3    H268765   1.245   0.883  15.876  0.0729 -0.3608  0.1510
15784TIP3   OH268766   1.736   1.498   5.572 -0.1445  0.2942  0.1163
15784TIP3    H168767   1.686   1.574   5.542 -0.7864 -0.2511 -0.1961
15784TIP3    H268768   1.823   1.511   5.535 -0.7343 -0.0149 -1.4112
15785TIP3   OH268769   3.147   4.938  14.967 -0.3334 -0.4261 -0.1940
15785TIP3    H168770   3.185   4.875  14.905  0.2853 -0.9167  0.6721
15785TIP3    H268771   3.212   5.008  14.972 -0.0129 -0.7641  0.4874
15786TIP3   OH268772   0.123   6.149   3.166 -0.5679 -0.0337 -0.1303
15786TIP3    H168773   0.130   6.080   3.232  2.7696  0.4955  0.1476
15786TIP3    H268774   0.112   6.230   3.216  2.2508  0.4050 -0.1183
15787TIP3   OH268775   3.623   3.728  15.224  0.4580 -0.2605 -0.3323
15787TIP3    H168776   3.557   3.754  15.159  0.3997  0.2872 -0.0508
15787TIP3    H268777   3.600   3.777  15.303 -0.6715 -2.4066  0.7215
15788TIP3   OH268778   0.030   0.677  16.751  0.2852 -0.1935 -0.4314
15788TIP3    H168779   0.116   0.687  16.791 -0.0928  0.5300  0.2070
15788TIP3    H268780   0.008   0.764  16.717 -0.4049 -0.2469 -0.1473
15789TIP3   OH268781   2.589   1.736   5.602 -0.0090 -0.4601 -0.5945
15789TIP3    H168782   2.578   1.830   5.586 -1.4701 -0.4934  0.1270
15789TIP3    H268783   2.684   1.724   5.609  0.1535  1.1143  0.1509
15790TIP3   OH268784   1.223   6.269  13.631  0.1460 -0.5660 -0.5760
15790TIP3    H168785   1.180   6.186  13.614 -0.4378 -0.0280 -1.7621
15790TIP3    H268786   1.207   6.286  13.724  0.1390 -1.7004 -0.3683
15791TIP3   OH268787   4.293   5.112   4.482 -0.2344  0.0309  0.6057
15791TIP3    H168788   4.330   5.164   4.411  0.1338 -0.2864  0.5618
15791TIP3    H268789   4.300   5.167   4.559 -0.0500  0.1317  0.5160
15792TIP3   OH268790   3.955   6.353   4.455  0.0647 -0.2838 -0.8947
15792TIP3    H168791   3.961   6.344   4.360 -1.0015 -0.7952 -0.9224
15792TIP3    H268792   3.919   6.441   4.469  0.7802  0.0144 -0.9506
15793TIP3   OH268793   6.146   6.051   2.595  0.0148  0.6733  0.3814
15793TIP3    H168794   6.111   6.031   2.508 -0.9182  0.7532  0.7233
15793TIP3    H268795   6.220   6.110   2.580 -0.7097  1.4123 -0.3067
15794TIP3   OH268796   0.469   4.859  11.956 -0.9424 -0.5694  0.2087
15794TIP3    H168797   0.545   4.895  11.910 -2.1759 -0.6497 -1.9922
15794TIP3    H268798   0.504   4.827  12.039  1.2969  0.0069 -0.4707
15795TIP3   OH268799   5.819   1.806   4.293  0.4366  0.2387 -0.4682
15795TIP3    H168800   5.865   1.784   4.212 -0.3071 -1.8214 -0.3583
15795TIP3    H268801   5.842   1.735   4.353 -0.3756  0.8528  0.5721
15796TIP3   OH268802   0.394   4.849  13.603  0.5881  0.1326  0.3241
15796TIP3    H168803   0.334   4.839  13.677  0.3874  2.0266  0.4546
15796TIP3    H268804   0.356   4.796  13.533 -0.5277  0.2740  0.8194
15797TIP3   OH268805   3.962   6.445  11.706  0.0115  0.4399 -0.1712
15797TIP3    H168806   3.965   6.533  11.669 -0.4368  0.9582  1.0124
15797TIP3    H268807   4.054   6.418  11.712  0.1331  0.7077 -0.7935
15798TIP3   OH268808   4.569   5.991   2.898  0.0993  0.0793  0.6948
15798TIP3    H168809   4.577   6.045   2.819  1.8997 -0.9033  0.1746
15798TIP3    H268810   4.658   5.984   2.932 -0.3245 -1.3787  1.5515
15799TIP3   OH268811   3.939   3.593   5.871 -0.0228  0.4320 -0.5853
15799TIP3    H168812   3.901   3.678   5.847 -0.4233  0.0312 -1.4048
15799TIP3    H268813   4.031   3.612   5.888 -0.7410  1.5662  2.2370
15800TIP3   OH268814   4.734   6.498   4.364 -0.4855  0.6544 -0.3738
15800TIP3    H168815   4.802   6.451   4.315  0.4058  0.0409  1.4279
15800TIP3    H268816   4.761   6.491   4.455 -0.4717  4.4763 -0.0219
15801TIP3   OH268817   1.479   2.147   4.248 -0.0931 -0.1939 -0.0322
15801TIP3    H168818   1.547   2.121   4.310 -0.2694 -1.2562 -0.2722
15801TIP3    H268819   1.404   2.092   4.271 -0.5009  0.1692 -0.4957
15802TIP3   OH268820   0.884   5.539  17.041  0.1789  1.3242 -0.0500
15802TIP3    H168821   0.952   5.476  17.066 -0.8248  0.4748  0.5750
15802TIP3    H268822   0.802   5.490  17.051 -0.5159  2.3056 -0.9034
15803TIP3   OH268823   5.927   3.110  11.205 -0.2466 -0.1660  0.3396
15803TIP3    H168824   5.905   3.080  11.293  1.1625 -0.3462  0.6361
15803TIP3    H268825   5.982   3.041  11.169  0.9458  0.8808  0.1042
15804TIP3   OH268826   0.470   2.364   5.111  0.1776  0.4252  0.2545
15804TIP3    H168827   0.550   2.328   5.150  0.8151 -0.0224 -1.3841
15804TIP3    H268828   0.400   2.306   5.141  0.5850  0.3459  1.0666
15805TIP3   OH268829   0.233   1.774  14.550 -0.3774 -0.0267 -0.3691
15805TIP3    H168830   0.286   1.792  14.627 -1.6128  0.1889  0.4396
15805TIP3    H268831   0.296   1.771  14.478  0.5839  1.5113  0.3781
15806TIP3   OH268832   3.188   5.856  16.956  0.2399  0.8896 -0.7012
15806TIP3    H168833   3.152   5.944  16.959  0.8758  1.1574 -0.8813
15806TIP3    H268834   3.224   5.848  16.868 -1.7306 -0.3163 -1.4427
15807TIP3   OH268835   3.354   2.609  11.427 -0.3507  0.6657  0.0920
15807TIP3    H168836   3.271   2.575  11.394 -0.0577 -2.7886  2.7087
15807TIP3    H268837   3.328   2.670  11.497 -0.6872 -1.3007  1.7048
15808TIP3   OH268838   6.229   0.493  13.478  0.4672 -0.5050 -0.3881
15808TIP3    H168839   6.234   0.403  13.445  1.8419 -1.3210  1.9349
15808TIP3    H268840   6.136   0.504  13.500  0.4636 -1.7699  0.3414
15809TIP3   OH268841   2.916   0.169   1.809 -1.0282 -0.3131 -0.0750
15809TIP3    H168842   2.962   0.098   1.765  0.4602  1.7991 -2.0183
15809TIP3    H268843   2.850   0.125   1.863  0.1657 -3.1634 -0.8694
15810TIP3   OH268844   2.298   4.169   5.133  0.0467 -0.4237 -0.3490
15810TIP3    H168845   2.376   4.157   5.078 -1.2936 -0.4524 -2.2942
15810TIP3    H268846   2.287   4.264   5.140  0.2543 -0.4195 -0.0669
15811TIP3   OH268847   2.236   2.686   2.838  0.1065  0.8210 -0.0012
15811TIP3    H168848   2.232   2.782   2.837  0.5112  0.8381 -0.3299
15811TIP3    H268849   2.327   2.666   2.859  0.4001  0.5195 -1.4919
15812TIP3   OH268850   6.432   0.392   2.890 -0.5622  0.6902  0.1529
15812TIP3    H168851   6.472   0.359   2.970  0.8546  3.3633  0.6259
15812TIP3    H268852   6.490   0.363   2.820 -1.0886 -0.5318  0.2097
15813TIP3   OH268853   1.097   1.569   4.135 -0.3394 -0.3064 -0.8790
15813TIP3    H168854   1.090   1.530   4.048  0.6824  0.1258 -1.1588
15813TIP3    H268855   1.144   1.504   4.187 -0.8358 -0.5093 -0.6818
15814TIP3   OH268856   2.803   3.106   5.415  0.6914 -0.1303  0.6202
15814TIP3    H168857   2.823   3.184   5.467  1.5266 -0.1218  0.2863
15814TIP3    H268858   2.868   3.107   5.345 -1.3954  0.7729 -1.3863
15815TIP3   OH268859   3.400   6.652  17.024 -1.1358  0.0473  0.0423
15815TIP3    H168860   3.447   6.632  17.105 -0.5560  0.3733 -0.2115
15815TIP3    H268861   3.429   6.585  16.962 -0.7142  0.4676 -0.2233
15816TIP3   OH268862   2.663   5.709   6.171 -0.0979  0.0166  0.0001
15816TIP3    H168863   2.716   5.707   6.250  2.0406 -0.2209 -1.3935
15816TIP3    H268864   2.576   5.735   6.201  0.2405 -1.6595  2.6453
15817TIP3   OH268865   3.391   2.021  10.797  0.5120 -0.0861  0.3981
15817TIP3    H168866   3.351   1.938  10.771  0.4388  0.5048 -1.4243
15817TIP3    H268867   3.365   2.083  10.729  0.2726  1.5328  1.9238
15818TIP3   OH268868   0.322   3.741   1.241 -0.5111  0.0409 -0.1835
15818TIP3    H168869   0.415   3.756   1.258 -0.0321 -0.0672 -2.6076
15818TIP3    H268870   0.314   3.646   1.236 -0.5489  0.0877 -1.0544
15819TIP3   OH268871   5.130   5.643  17.070  1.0167  0.1457  0.1175
15819TIP3    H168872   5.169   5.682  17.148  0.7664  1.0537 -0.2032
15819TIP3    H268873   5.185   5.674  16.998 -0.6169  1.9197 -0.4085
15820TIP3   OH268874   6.575   0.128   5.905  0.3455  0.3226  0.1026
15820TIP3    H168875   6.637   0.079   5.852  0.0802 -0.1915  0.2583
15820TIP3    H268876   6.624   0.153   5.984  0.2324 -0.4530  0.4200
15821TIP3   OH268877   3.664   0.816   6.013 -0.2858  0.4665 -0.2483
15821TIP3    H168878   3.664   0.762   6.093  2.0627  1.4055  0.4401
15821TIP3    H268879   3.618   0.763   5.948 -0.5320 -1.1521  1.2138
15822TIP3   OH268880   4.698   6.013  13.241 -0.6302  0.1569  0.3272
15822TIP3    H168881   4.720   5.919  13.242 -0.4812  0.1907  0.3191
15822TIP3    H268882   4.769   6.054  13.290  0.0371  0.4172 -0.8357
15823TIP3   OH268883   6.421   2.201   2.294  0.6195  0.1550  0.5777
15823TIP3    H168884   6.329   2.191   2.266  1.3969 -0.8576 -1.7251
15823TIP3    H268885   6.419   2.183   2.388 -1.3288 -1.4422  0.2824
15824TIP3   OH268886   6.200   5.855  11.422 -0.6367 -0.8463  0.8331
15824TIP3    H168887   6.288   5.838  11.454  0.2209  1.9386  0.0476
15824TIP3    H268888   6.193   5.804  11.341  0.3008 -0.9769  0.8331
15825TIP3   OH268889   5.918   0.282   1.211  0.1361 -0.0525  0.0843
15825TIP3    H168890   5.901   0.298   1.304 -0.6494 -0.8848  0.0921
15825TIP3    H268891   5.995   0.335   1.192  0.1369  0.3537  1.1410
15826TIP3   OH268892   6.010   1.770   0.468  0.0856 -0.1489  0.5091
15826TIP3    H168893   5.934   1.828   0.472  1.4935  1.8803 -0.7627
15826TIP3    H268894   5.989   1.707   0.400 -1.1202 -0.6025  1.2972
15827TIP3   OH268895   5.200   4.935  13.201  0.6328 -0.3623 -0.4526
15827TIP3    H168896   5.232   4.922  13.290  1.0115 -0.3455 -0.5887
15827TIP3    H268897   5.266   4.989  13.159  0.3436 -0.1860 -0.6798
15828TIP3   OH268898   1.446   6.146   4.203 -0.4089  0.0228  0.2196
15828TIP3    H168899   1.535   6.117   4.221 -0.0650  1.0068  0.1395
15828TIP3    H268900   1.457   6.223   4.147 -1.3176 -0.0380 -0.0441
15829TIP3   OH268901   4.565   4.884  13.629 -0.5468 -0.0648  0.0243
15829TIP3    H168902   4.624   4.857  13.559  0.5361 -0.4540  1.0706
15829TIP3    H268903   4.483   4.904  13.584 -0.2092 -1.3832 -1.2275
15830TIP3   OH268904   1.664   4.373  12.319  0.2065  0.3251 -0.1804
15830TIP3    H168905   1.673   4.415  12.404  1.7433  0.2945 -0.3056
15830TIP3    H268906   1.596   4.423  12.273  0.3530  1.1983  0.5474
15831TIP3   OH268907   2.979   6.655  11.801  1.2840  0.0622 -0.1558
15831TIP3    H168908   3.014   6.603  11.729 -2.4140 -1.0406 -1.2708
15831TIP3    H268909   3.004   6.745  11.779  3.1199 -0.6271 -1.0034
15832TIP3   OH268910   5.545   5.388   6.673  0.1832  0.2371  0.3851
15832TIP3    H168911   5.501   5.353   6.751 -0.0890  0.5919  0.3944
15832TIP3    H268912   5.586   5.312   6.632 -1.0327 -0.2247 -0.0076
15833TIP3   OH268913   6.188   3.786  10.751 -0.0233  0.6022 -0.3183
15833TIP3    H168914   6.124   3.715  10.755  0.5347  0.0629 -0.8610
15833TIP3    H268915   6.146   3.852  10.696 -0.5629  0.7076  0.2251
15834TIP3   OH268916   4.274   0.880   4.933 -0.1838 -0.1819  0.3552
15834TIP3    H168917   4.250   0.961   4.889 -4.3045 -0.4631  1.8612
15834TIP3    H268918   4.334   0.907   5.003 -0.7374  1.4319  0.2227
15835TIP3   OH268919   2.114   1.398  16.762  0.6220  0.0100  0.9507
15835TIP3    H168920   2.083   1.310  16.784  1.4500 -0.2194  1.2254
15835TIP3    H268921   2.051   1.430  16.697 -0.2487 -0.3963  1.5905
15836TIP3   OH268922   4.879   1.856  12.068 -0.0449 -0.1002 -0.9788
15836TIP3    H168923   4.890   1.837  12.161 -2.0365 -1.0806 -0.9294
15836TIP3    H268924   4.847   1.775  12.030 -0.5392  0.6854 -2.2780
15837TIP3   OH268925   4.986   6.133   0.615 -0.2472  0.7025  0.0433
15837TIP3    H168926   4.910   6.084   0.585  0.3299  0.1944 -0.6124
15837TIP3    H268927   4.973   6.221   0.579  0.1520  0.2469 -1.2467
15838TIP3   OH268928   3.833   1.429   0.902 -0.5711  0.1857 -0.3024
15838TIP3    H168929   3.928   1.442   0.900 -0.3448 -1.4049 -0.2953
15838TIP3    H268930   3.805   1.440   0.811 -0.2183 -0.4362 -0.4907
15839TIP3   OH268931   4.381   1.908  13.867 -0.8286  0.3316 -0.3222
15839TIP3    H168932   4.345   1.864  13.789  2.0974  1.7663 -2.5735
15839TIP3    H268933   4.448   1.848  13.899 -0.5768  0.7160 -0.1382
15840TIP3   OH268934   4.702   5.990  12.228  0.1060 -0.1276 -0.1656
15840TIP3    H168935   4.681   5.920  12.167  0.0254  0.1245 -0.4223
15840TIP3    H268936   4.694   6.070  12.177 -1.2209  0.1754  0.5005
15841TIP3   OH268937   4.619   4.392  15.125  0.2024 -0.1747  0.6446
15841TIP3    H168938   4.697   4.447  15.129  1.3961 -1.8546  1.2287
15841TIP3    H268939   4.653   4.304  15.110 -1.8177 -0.3893 -3.1268
15842TIP3   OH268940   5.771   3.461   1.580  0.0170 -0.1186  0.0036
15842TIP3    H168941   5.707   3.393   1.561 -1.5647  1.1039  0.8527
15842TIP3    H268942   5.785   3.456   1.674  1.0916 -0.3007 -0.1578
15843TIP3   OH268943   6.732   5.508  14.760 -0.0373 -0.3480 -0.6521
15843TIP3    H168944   6.753   5.421  14.724 -0.4303 -0.2589 -1.1007
15843TIP3    H268945   6.652   5.495  14.810  0.0040 -0.2838 -0.5692
15844TIP3   OH268946   6.069   3.409   4.862  0.5999  0.1597  0.1939
15844TIP3    H168947   6.149   3.463   4.859  0.9991 -0.4556 -0.4250
15844TIP3    H268948   6.023   3.439   4.940  2.5598 -1.0300  1.8677
15845TIP3   OH268949   1.467   0.503   0.471  0.1105  0.0937  0.9092
15845TIP3    H168950   1.558   0.531   0.477 -0.2136  1.3979 -0.0392
15845TIP3    H268951   1.449   0.498   0.377 -0.9150  0.2523  1.0814
15846TIP3   OH268952   1.958   0.663   2.471 -0.5504 -0.4705 -0.0981
15846TIP3    H168953   2.040   0.617   2.488 -0.4431 -0.2858 -0.1082
15846TIP3    H268954   1.895   0.594   2.448 -0.7128 -0.7168  1.0856
15847TIP3   OH268955   2.975   4.893  13.269 -0.0603  0.2250  0.3974
15847TIP3    H168956   3.000   4.955  13.338  0.2157  2.3232 -1.5200
15847TIP3    H268957   3.058   4.856  13.238 -0.2449 -1.3326  1.7198
15848TIP3   OH268958   1.800   3.527  15.664 -0.1891  0.3340 -0.0734
15848TIP3    H168959   1.750   3.594  15.617 -0.9416  0.5850  1.0651
15848TIP3    H268960   1.833   3.572  15.741  0.3879 -0.2787  0.0359
15849TIP3   OH268961   1.392   3.388  15.072 -0.2730 -0.0412  0.0935
15849TIP3    H168962   1.377   3.304  15.027 -1.6033  1.0867 -1.6292
15849TIP3    H268963   1.400   3.364  15.164 -0.0822 -2.1295 -0.4269
15850TIP3   OH268964   5.110   0.760  15.994 -0.8606  0.0136  0.5049
15850TIP3    H168965   5.042   0.822  15.966 -1.5937 -0.7250  0.6261
15850TIP3    H268966   5.104   0.688  15.931 -0.4204 -0.2169  0.7238
15851TIP3   OH268967   1.652   6.386   0.688 -0.0354 -0.5770  0.4750
15851TIP3    H168968   1.632   6.301   0.648 -0.8702 -0.2894  0.2549
15851TIP3    H268969   1.624   6.376   0.779  0.8135 -0.8655  0.7077
15852TIP3   OH268970   4.694   0.478  14.994  0.5767  0.3873  0.2756
15852TIP3    H168971   4.767   0.512  15.046  2.8411 -1.1144 -1.7843
15852TIP3    H268972   4.693   0.533  14.916  1.0255 -1.0655 -0.7692
15853TIP3   OH268973   0.564   5.133   5.697  0.4262 -0.1281  0.1334
15853TIP3    H168974   0.471   5.150   5.684  0.5220  0.1540 -0.1999
15853TIP3    H268975   0.604   5.154   5.612  1.3117  3.3921  1.3447
15854TIP3   OH268976   4.079   3.942   5.137 -0.0938  0.3341  0.1536
15854TIP3    H168977   4.037   4.025   5.160 -0.1454  0.6157 -0.9663
15854TIP3    H268978   4.121   3.958   5.053  0.6218 -0.5251  0.3437
15855TIP3   OH268979   5.711   1.552   0.869  0.2053 -0.4252 -0.0176
15855TIP3    H168980   5.754   1.507   0.942 -0.7540 -0.8039  0.3216
15855TIP3    H268981   5.634   1.499   0.850 -0.7523  0.8775  0.1636
15856TIP3   OH268982   2.706   3.161  15.484  0.2757 -0.1110 -0.4096
15856TIP3    H168983   2.659   3.144  15.403  1.0837  0.0824 -0.9170
15856TIP3    H268984   2.712   3.075  15.527 -1.7370  0.0749  0.3219
15857TIP3   OH268985   4.424   1.517  13.860  0.3804  0.0546 -0.3366
15857TIP3    H168986   4.363   1.564  13.803  1.4970  1.5455 -0.3504
15857TIP3    H268987   4.411   1.557  13.947  1.7218  0.7995 -0.4588
15858TIP3   OH268988   2.901   3.346   2.286 -0.1890  1.0281 -0.4799
15858TIP3    H168989   2.930   3.416   2.345 -0.6193  1.2486 -0.5359
15858TIP3    H268990   2.884   3.390   2.203 -4.0731  1.4902  0.4809
15859TIP3   OH268991   0.679   0.613  14.295  0.3724 -0.0982 -0.3823
15859TIP3    H168992   0.762   0.630  14.251 -0.0789  0.8834 -0.8719
15859TIP3    H268993   0.616   0.598  14.225 -0.2429  0.9716 -0.0758
15860TIP3   OH268994   4.616   3.344   3.113 -0.2208 -0.7278 -0.0972
15860TIP3    H168995   4.527   3.378   3.100 -0.9342 -2.4498  0.1651
15860TIP3    H268996   4.652   3.398   3.183 -0.5693  0.8606 -1.1167
15861TIP3   OH268997   1.044   5.051  16.830  0.1372  0.7262  0.0753
15861TIP3    H168998   1.134   5.046  16.861 -0.0873 -1.6722  0.4620
15861TIP3    H268999   1.018   5.142  16.844  1.7268  0.8975  2.1609
15862TIP3   OH269000   0.336   0.253  17.016 -0.4406 -0.5483 -0.7259
15862TIP3    H169001   0.317   0.161  17.003 -1.2531 -0.5249  0.2146
15862TIP3    H269002   0.338   0.264  17.111  3.3014 -0.3453 -0.7599
15863TIP3   OH269003   0.150   6.658  15.013  0.1600  0.1487  0.4733
15863TIP3    H169004   0.074   6.631  14.962 -0.6999  1.3178  1.1160
15863TIP3    H269005   0.214   6.686  14.948 -0.2828 -0.0058 -0.0303
15864TIP3   OH269006   4.632   5.773  12.031 -0.2888  0.7664 -0.1657
15864TIP3    H169007   4.641   5.724  11.950 -0.7075 -1.7688  1.2748
15864TIP3    H269008   4.543   5.809  12.028 -0.0747  1.2358 -1.1079
15865TIP3   OH269009   6.705   1.390  11.204 -0.1922  0.0033 -0.5012
15865TIP3    H169010   6.651   1.468  11.214 -0.2578  0.2564 -2.6691
15865TIP3    H269011   6.649   1.318  11.233 -0.3567  0.6826  0.8899
15866TIP3   OH269012   0.248   4.141  14.252 -0.2677  0.4798  0.8446
15866TIP3    H169013   0.192   4.134  14.175  1.3269 -0.2095 -0.2781
15866TIP3    H269014   0.267   4.051  14.276  1.2618  0.7022  0.5299
15867TIP3   OH269015   1.560   3.809   3.771 -0.3969  0.2152 -0.2833
15867TIP3    H169016   1.565   3.891   3.723 -2.2968  0.2064 -0.5539
15867TIP3    H269017   1.468   3.783   3.764 -0.2706 -0.8292  1.6286
15868TIP3   OH269018   1.155   0.817   1.057 -0.5992  0.0423  0.0166
15868TIP3    H169019   1.109   0.885   1.106  0.1536  0.9391 -0.5079
15868TIP3    H269020   1.095   0.795   0.986 -0.4142  0.9094 -0.4181
15869TIP3   OH269021   5.493   3.042  16.130  0.0789 -0.0934  0.8054
15869TIP3    H169022   5.574   3.048  16.179 -0.5026 -1.4231  1.9580
15869TIP3    H269023   5.496   2.955  16.090 -0.1679  0.3732 -0.2566
15870TIP3   OH269024   6.427   3.133   3.833 -0.2838 -0.4689  0.0578
15870TIP3    H169025   6.504   3.119   3.888  0.0327 -1.5052 -0.6399
15870TIP3    H269026   6.363   3.173   3.891  0.4668 -0.4384  0.8727
15871TIP3   OH269027   6.700   4.045   4.557  0.1503  0.7112 -0.0799
15871TIP3    H169028   6.630   4.106   4.579 -1.1415 -1.0769  0.9461
15871TIP3    H269029   6.770   4.067   4.619  0.1278  1.8761 -0.4621
15872TIP3   OH269030   3.812   2.766   5.486  0.5156 -0.0643  0.0307
15872TIP3    H169031   3.872   2.765   5.560  0.6452  0.2359 -0.0673
15872TIP3    H269032   3.817   2.856   5.452  1.4515 -0.5408 -1.1507
15873TIP3   OH269033   5.551   1.073  11.894  0.7167 -0.6916  0.1455
15873TIP3    H169034   5.618   1.099  11.957 -0.0815  0.5382  0.5189
15873TIP3    H269035   5.469   1.103  11.933  0.2553  0.5567 -1.7326
15874TIP3   OH269036   3.431   3.788  16.273 -0.2247 -0.4152  0.2334
15874TIP3    H169037   3.521   3.786  16.240 -0.9452  2.3395 -2.1635
15874TIP3    H269038   3.438   3.756  16.362  3.0281 -1.0261 -0.1589
15875TIP3   OH269039   0.460   4.429  15.206 -0.2425  0.2182 -0.7528
15875TIP3    H169040   0.507   4.513  15.203  1.1047 -0.5125 -0.3696
15875TIP3    H269041   0.388   4.440  15.144 -0.1629  1.7113 -0.6107
15876TIP3   OH269042   3.410   5.034  12.261 -0.4388  0.0752  0.5110
15876TIP3    H169043   3.481   5.076  12.311 -0.3124 -1.8237  2.0050
15876TIP3    H269044   3.368   5.106  12.213  1.3654  1.4933  1.0098
15877TIP3   OH269045   5.690   1.547   1.346  0.4517  0.6149 -0.3759
15877TIP3    H169046   5.682   1.497   1.428  2.1595 -0.0965 -0.6154
15877TIP3    H269047   5.762   1.608   1.362  0.6354  0.6409 -1.2610
15878TIP3   OH269048   4.735   2.796  13.636  0.0673  0.6670 -0.2973
15878TIP3    H169049   4.806   2.840  13.590  1.4240  0.2126  1.3537
15878TIP3    H269050   4.776   2.721  13.679 -1.7467 -0.7075 -0.8895
15879TIP3   OH269051   1.036   3.285  11.293  0.0631 -0.0616  0.4398
15879TIP3    H169052   0.941   3.273  11.297 -0.0821  0.2992 -1.3749
15879TIP3    H269053   1.068   3.207  11.247  0.4840  0.4719 -0.1816
15880TIP3   OH269054   3.012   1.940  16.686  0.1967  0.6360  0.6481
15880TIP3    H169055   3.052   2.009  16.633  0.1899 -0.0485 -0.2528
15880TIP3    H269056   2.997   1.981  16.771  0.0162  1.8056  0.0575
15881TIP3   OH269057   4.053   1.875  17.155 -0.1689 -0.5702  0.4744
15881TIP3    H169058   3.994   1.936  17.199  1.2844 -0.8653  2.9167
15881TIP3    H269059   4.093   1.927  17.085 -0.8949  0.5012  0.8414
15882TIP3   OH269060   2.630   1.513  12.608  0.3926  0.7609 -0.2224
15882TIP3    H169061   2.621   1.592  12.555  0.4984  1.1150  0.2820
15882TIP3    H269062   2.540   1.489  12.631  0.2709 -0.0033 -1.4386
15883TIP3   OH269063   3.262   5.762  11.078  0.7443 -0.1867 -0.5954
15883TIP3    H169064   3.226   5.677  11.050 -0.6168  0.4004 -0.6893
15883TIP3    H269065   3.301   5.798  10.998 -1.9201  0.8750 -1.4693
15884TIP3   OH269066   0.964   3.638   3.425 -0.3830 -0.0167  0.4051
15884TIP3    H169067   0.900   3.647   3.355  1.2557  1.2893 -0.9708
15884TIP3    H269068   0.914   3.649   3.505 -1.9815  0.3492 -0.6304
15885TIP3   OH269069   5.950   3.367   0.669 -0.0179  0.7052  0.7576
15885TIP3    H169070   5.886   3.374   0.599 -0.2467  0.3343  0.9246
15885TIP3    H269071   5.910   3.305   0.731  0.7808 -0.0206  0.5506
15886TIP3   OH269072   4.573   2.412   2.494 -0.1874 -0.2704  0.1430
15886TIP3    H169073   4.588   2.395   2.401  0.3526 -1.6225  0.4635
15886TIP3    H269074   4.500   2.354   2.517  1.0271 -1.4844  1.0324
15887TIP3   OH269075   4.997   4.383   1.648 -0.4466 -0.0503 -0.2383
15887TIP3    H169076   5.072   4.397   1.705 -0.9995  0.4009  0.3962
15887TIP3    H269077   5.008   4.447   1.577  1.6181 -2.3723 -2.1014
15888TIP3   OH269078   0.103   6.591  10.323 -0.1640 -0.0807  0.0303
15888TIP3    H169079   0.068   6.677  10.344  0.2264 -0.0089  0.3767
15888TIP3    H269080   0.144   6.560  10.403  0.4166 -0.2411 -0.3255
15889TIP3   OH269081   5.910   1.994  14.595 -0.4301  0.0268 -0.6134
15889TIP3    H169082   5.930   2.070  14.648 -0.0128 -0.3125 -0.2840
15889TIP3    H269083   5.866   2.030  14.517 -2.8752  0.3596  0.8561
15890TIP3   OH269084   4.950   0.998   5.485 -0.6002 -0.0411  0.3940
15890TIP3    H169085   5.042   0.970   5.494 -0.6335 -0.2709  0.0118
15890TIP3    H269086   4.944   1.077   5.540 -0.3613 -0.4519  1.0170
15891TIP3   OH269087   6.502   3.863   5.484 -0.3777 -0.8473 -0.7338
15891TIP3    H169088   6.563   3.834   5.417  0.4624 -1.3763  0.2436
15891TIP3    H269089   6.531   3.819   5.564 -0.3733  1.0176  0.3266
15892TIP3   OH269090   3.639   2.109   3.107 -0.2041  0.6607 -0.0300
15892TIP3    H169091   3.712   2.170   3.122 -0.2016  0.4302  0.9804
15892TIP3    H269092   3.570   2.163   3.067 -0.2632  1.3766  1.0104
15893TIP3   OH269093   2.858   2.280   1.961  0.6769 -0.3414  0.2258
15893TIP3    H169094   2.852   2.292   2.056  1.5079  1.0084  0.1198
15893TIP3    H269095   2.840   2.187   1.948  1.0935 -0.6612  1.7584
15894TIP3   OH269096   2.990   5.624   4.532 -0.3142 -0.1082 -0.0243
15894TIP3    H169097   3.072   5.632   4.485 -0.3451  1.4471  0.1611
15894TIP3    H269098   2.953   5.712   4.532 -1.8322 -0.7231  0.1656
15895TIP3   OH269099   5.314   0.874   2.847  0.6108 -0.2675  0.3001
15895TIP3    H169100   5.249   0.897   2.782  1.5657 -0.2405 -0.6568
15895TIP3    H269101   5.284   0.915   2.928 -0.3078  0.1202 -0.2400
15896TIP3   OH269102   3.927   5.331   5.229 -0.6467 -0.3172 -0.7243
15896TIP3    H169103   4.005   5.322   5.174 -1.0869 -1.6841 -1.1578
15896TIP3    H269104   3.926   5.252   5.283 -2.0272 -0.5865 -1.1204
15897TIP3   OH269105   1.470   4.537   5.594 -0.4775  0.1679  0.2332
15897TIP3    H169106   1.408   4.483   5.643  1.5636 -1.2058  1.3799
15897TIP3    H269107   1.423   4.618   5.577 -2.6870 -0.9502  0.8070
15898TIP3   OH269108   0.663   1.154  11.499  0.4835 -0.2192 -0.7284
15898TIP3    H169109   0.604   1.155  11.574 -0.4083  0.8822 -1.4142
15898TIP3    H269110   0.656   1.243  11.463 -0.5608 -1.2588 -3.2258
15899TIP3   OH269111   3.214   5.902   4.204  0.2637 -0.4440 -0.3682
15899TIP3    H169112   3.124   5.934   4.215  0.2272 -1.0096  1.1628
15899TIP3    H269113   3.259   5.929   4.285  1.5450  0.0681 -1.2387
15900TIP3   OH269114   5.032   5.395   3.494  0.1252  0.1693 -0.0358
15900TIP3    H169115   4.985   5.434   3.421  0.1689 -0.2214 -0.2708
15900TIP3    H269116   5.047   5.468   3.554  0.9970  0.7113 -0.8841
15901TIP3   OH269117   6.528   3.329  12.900  0.0476 -0.0392  0.3174
15901TIP3    H169118   6.504   3.237  12.900  1.0705 -0.2980 -0.5711
15901TIP3    H269119   6.510   3.358  12.990 -1.7077 -0.7093  0.2094
15902TIP3   OH269120   6.510   1.321   3.720 -0.2707  0.4012  0.4334
15902TIP3    H169121   6.578   1.281   3.665 -0.7387  0.6385 -0.3359
15902TIP3    H269122   6.510   1.270   3.800 -1.2829 -1.5472 -0.7671
15903TIP3   OH269123   5.170   5.570  11.603 -0.0342 -0.4188  0.4875
15903TIP3    H169124   5.212   5.494  11.643 -0.9512  0.1916  2.6811
15903TIP3    H269125   5.120   5.610  11.674  1.4742  2.9908 -0.2947
15904TIP3   OH269126   0.961   4.810   1.534 -0.2833 -0.0127  0.4781
15904TIP3    H169127   1.054   4.825   1.520 -0.2202  0.3410  1.2856
15904TIP3    H269128   0.919   4.844   1.455  0.1640  0.9665  0.6583
15905TIP3   OH269129   2.651   6.517  13.072  0.3829  0.3749 -0.5136
15905TIP3    H169130   2.745   6.533  13.065  0.3588  1.5567  1.4572
15905TIP3    H269131   2.624   6.566  13.150 -1.4671 -1.6948  0.2057
15906TIP3   OH269132   5.934   0.437  16.902 -0.5110 -0.3957  0.5604
15906TIP3    H169133   5.848   0.396  16.904 -0.7801 -0.0766 -2.1515
15906TIP3    H269134   5.917   0.529  16.920 -0.5276 -0.6082  1.6491
15907TIP3   OH269135   1.732   5.711  15.077  0.7366  0.0014  0.1917
15907TIP3    H169136   1.757   5.681  14.989 -0.7933  0.2741 -0.3612
15907TIP3    H269137   1.750   5.636  15.134 -0.8315 -1.1750 -0.8028
15908TIP3   OH269138   4.046   2.314  13.589 -0.0477 -0.3601 -0.3915
15908TIP3    H169139   3.962   2.279  13.619 -0.0382  0.4760  0.6332
15908TIP3    H269140   4.047   2.404  13.620  1.5411 -0.5808  0.2400
15909TIP3   OH269141   3.530   3.374   5.931 -0.0763 -0.2624  0.0607
15909TIP3    H169142   3.469   3.323   5.878 -0.0393 -0.4444  0.1956
15909TIP3    H269143   3.579   3.426   5.867 -0.3479 -0.1385 -0.0519
15910TIP3   OH269144   0.881   1.089  13.111  0.2019 -0.3967  0.3627
15910TIP3    H169145   0.825   1.134  13.174  1.5997 -0.9041  1.9811
15910TIP3    H269146   0.831   1.011  13.086 -1.1839  0.7874 -0.6420
15911TIP3   OH269147   2.163   1.876  13.059  0.1545 -0.0377 -0.6510
15911TIP3    H169148   2.067   1.870  13.056 -0.1964  3.5114  0.5443
15911TIP3    H269149   2.192   1.844  12.974 -2.0161 -1.8309 -0.7644
15912TIP3   OH269150   1.303   1.580   5.753  0.4413 -0.6815 -0.7310
15912TIP3    H169151   1.368   1.598   5.821 -0.2110 -0.7794 -0.0740
15912TIP3    H269152   1.281   1.488   5.765 -0.6083 -0.3725 -0.2572
15913TIP3   OH269153   3.738   1.021   1.592  0.2951  0.5241  0.3776
15913TIP3    H169154   3.666   1.039   1.653  1.2269  1.0629  1.3419
15913TIP3    H269155   3.772   1.107   1.569  1.7655  0.2149  1.3290
15914TIP3   OH269156   4.308   1.979   1.235  0.5840  0.0906 -0.0675
15914TIP3    H169157   4.254   1.923   1.178  2.1244 -1.7103  0.1882
15914TIP3    H269158   4.369   2.021   1.175  0.5427  0.1717 -0.0523
15915TIP3   OH269159   4.086   1.690  13.961  0.5664 -0.0935 -0.0237
15915TIP3    H169160   4.143   1.751  13.914  0.7961  0.3656  0.8407
15915TIP3    H269161   4.016   1.671  13.899  0.8998  0.4512 -0.5835
15916TIP3   OH269162   0.479   5.366  12.318  0.0661 -0.5079  0.4853
15916TIP3    H169163   0.480   5.462  12.320  1.4422 -0.4985 -0.6521
15916TIP3    H269164   0.557   5.340  12.367 -1.4343 -1.0960  2.6331
15917TIP3   OH269165   4.094   0.502   4.837 -0.1638 -0.4132 -0.0712
15917TIP3    H169166   4.075   0.487   4.745  0.4308  2.0150 -0.6257
15917TIP3    H269167   4.058   0.589   4.855  2.4455  0.4514  1.1708
15918TIP3   OH269168   6.579   5.639   6.361  0.0620 -0.2967 -0.2573
15918TIP3    H169169   6.524   5.561   6.374 -0.6221  0.0457 -1.0884
15918TIP3    H269170   6.668   5.608   6.379 -0.4807 -0.6524  1.9534
15919TIP3   OH269171   4.874   3.741   0.612  0.0919 -0.3327  0.4432
15919TIP3    H169172   4.889   3.690   0.533  0.0071 -0.3749  0.4538
15919TIP3    H269173   4.911   3.687   0.682 -1.4516 -1.1432  0.6626
15920TIP3   OH269174   0.163   3.202  12.299 -0.5442 -0.5429  0.3030
15920TIP3    H169175   0.208   3.161  12.226 -1.1724 -2.4275  0.9519
15920TIP3    H269176   0.229   3.259  12.339  0.4202 -1.1187 -0.4452
15921TIP3   OH269177   6.490   3.931   1.797  0.2166  0.0978 -0.3074
15921TIP3    H169178   6.402   3.949   1.828  0.7601  0.2685  1.1886
15921TIP3    H269179   6.545   3.997   1.839  1.1664 -0.4812 -0.6042
15922TIP3   OH269180   4.617   2.821  14.351  0.2088 -0.4807  0.2751
15922TIP3    H169181   4.655   2.742  14.390 -0.4674 -1.2603 -0.6001
15922TIP3    H269182   4.613   2.802  14.257  0.4397  0.7736  0.0070
15923TIP3   OH269183   3.213   5.205  11.693  0.0559 -0.5454 -0.5438
15923TIP3    H169184   3.229   5.113  11.715 -1.5132 -0.4811  0.9722
15923TIP3    H269185   3.279   5.226  11.627  2.3567 -1.9004  1.2693
15924TIP3   OH269186   3.491   1.675  13.643 -0.4840  0.1211 -0.0442
15924TIP3    H169187   3.575   1.712  13.670  1.0089 -0.8189 -3.0973
15924TIP3    H269188   3.443   1.749  13.605  0.1032  0.1434 -0.7645
15925TIP3   OH269189   6.276   0.393  11.637 -0.0351 -0.5207  0.0128
15925TIP3    H169190   6.368   0.372  11.622 -0.1838 -1.1919  0.0495
15925TIP3    H269191   6.240   0.407  11.549  0.4201  1.1111  0.0689
15926TIP3   OH269192   1.669   0.344  16.571  0.2677 -0.2936 -0.2284
15926TIP3    H169193   1.703   0.264  16.612  1.5302  0.6054  0.5174
15926TIP3    H269194   1.587   0.361  16.618  0.1073 -1.0385 -0.2407
15927TIP3   OH269195   1.498   4.435  11.334 -0.2645  0.0733 -0.1874
15927TIP3    H169196   1.528   4.520  11.365  1.0279 -0.1886 -0.6962
15927TIP3    H269197   1.403   4.441  11.335 -0.1693  2.0246 -1.6146
15928TIP3   OH269198   1.521   1.099   2.646  0.3637  0.3089 -0.0294
15928TIP3    H169199   1.456   1.164   2.618  2.6229  2.7711  0.2539
15928TIP3    H269200   1.577   1.086   2.570  1.5169  0.7161  0.7374
15929TIP3   OH269201   2.454   0.370  12.193  0.7812 -0.3967 -0.2726
15929TIP3    H169202   2.509   0.407  12.123 -0.0140 -1.3222 -1.4025
15929TIP3    H269203   2.389   0.318  12.147 -0.9076  0.4939  1.0722
15930TIP3   OH269204   6.320   4.204   5.861 -0.2005  0.3075  0.4533
15930TIP3    H169205   6.243   4.191   5.805 -1.0250  0.1655  1.6020
15930TIP3    H269206   6.301   4.154   5.940  1.6876 -0.8536  0.2046
15931TIP3   OH269207   5.928   4.991   3.590  0.0978 -0.3153  0.3761
15931TIP3    H169208   5.836   5.002   3.568 -0.0807 -1.7495  0.3569
15931TIP3    H269209   5.939   4.896   3.600  1.4756 -0.1229  0.7648
15932TIP3   OH269210   5.372   0.147  12.770  0.0031 -0.3520 -0.0074
15932TIP3    H169211   5.401   0.160  12.861  2.5345 -0.7729 -0.7196
15932TIP3    H269212   5.447   0.105  12.727 -1.3746 -0.6413 -2.1690
15933TIP3   OH269213   1.512   6.127  14.457  0.5300  0.0986 -0.5463
15933TIP3    H169214   1.581   6.154  14.517  0.8398  0.3623 -1.0181
15933TIP3    H269215   1.470   6.053  14.500 -0.0863  1.0952  0.6056
15934TIP3   OH269216   2.696   2.662   0.171 -0.3198 -0.0715  0.1995
15934TIP3    H169217   2.610   2.623   0.189  0.0718 -1.3346 -0.6634
15934TIP3    H269218   2.739   2.665   0.257 -1.2928  0.7669  0.6730
15935TIP3   OH269219   3.215   6.706   2.738 -0.0854  0.3172  0.0429
15935TIP3    H169220   3.122   6.703   2.758  0.1134  2.1983  1.3443
15935TIP3    H269221   3.219   6.716   2.643 -1.1519 -1.6777 -0.2382
15936TIP3   OH269222   6.035   3.476  12.328  0.2622 -0.2517 -0.1449
15936TIP3    H169223   6.040   3.439  12.239 -1.2723 -1.0965  0.1061
15936TIP3    H269224   5.960   3.535  12.325 -0.1044 -0.6731  0.7356
15937TIP3   OH269225   4.122   3.507  11.100  0.2463  0.9959 -0.0091
15937TIP3    H169226   4.061   3.455  11.049  1.9656  1.0942 -2.2313
15937TIP3    H269227   4.184   3.443  11.137 -0.3321  1.0341  1.0387
15938TIP3   OH269228   4.149   4.415  17.143  0.1465 -0.1222  0.0237
15938TIP3    H169229   4.190   4.335  17.175  0.4158 -0.8571 -2.0298
15938TIP3    H269230   4.073   4.384  17.093  0.0636  0.9078 -0.5119
15939TIP3   OH269231   4.088   4.763   6.101  0.9026  0.0038  0.2508
15939TIP3    H169232   3.993   4.758   6.115  0.7425  0.9976 -0.4038
15939TIP3    H269233   4.123   4.688   6.148 -0.1480  0.0224  1.0955
15940TIP3   OH269234   1.980   2.464   5.245  0.2121  0.0481 -0.2569
15940TIP3    H169235   1.921   2.396   5.277  0.5135 -0.7065 -1.2940
15940TIP3    H269236   2.060   2.418   5.221  1.8379  1.2568  2.6022
15941TIP3   OH269237   0.880   5.730   4.747  0.9474  0.0650  0.3422
15941TIP3    H169238   0.913   5.668   4.813  1.7659  0.7232  0.5635
15941TIP3    H269239   0.791   5.700   4.728  0.9515 -0.5454  1.2419
15942TIP3   OH269240   5.008   5.407   5.311  0.3596 -0.0445 -0.0107
15942TIP3    H169241   4.985   5.500   5.316 -0.4980 -0.3306  1.5201
15942TIP3    H269242   5.066   5.393   5.385  0.1551 -0.8252  0.0021
15943TIP3   OH269243   6.497   1.839   4.128 -0.0966 -0.0799  0.6891
15943TIP3    H169244   6.461   1.826   4.041  1.7813  1.3627 -0.3344
15943TIP3    H269245   6.449   1.777   4.183 -1.1854 -1.1229 -1.3739
15944TIP3   OH269246   5.313   3.841  14.307 -0.4845  0.2981 -0.6655
15944TIP3    H169247   5.257   3.847  14.229 -0.8654 -0.1023 -0.4248
15944TIP3    H269248   5.352   3.754  14.302  2.3872  1.6040 -2.3634
15945TIP3   OH269249   1.224   1.389  16.353 -0.3236  0.1224  0.3315
15945TIP3    H169250   1.175   1.471  16.350 -1.2756 -0.4545  0.0366
15945TIP3    H269251   1.295   1.401  16.289 -2.3617 -0.4845 -2.1129
15946TIP3   OH269252   0.118   0.484   6.124 -0.1126 -0.1422  0.1220
15946TIP3    H169253   0.081   0.397   6.133 -1.6200  0.5964  1.2409
15946TIP3    H269254   0.161   0.501   6.208 -0.1145  0.3263  0.0318
15947TIP3   OH269255   3.363   6.540  16.180  0.0255  0.0429 -0.4078
15947TIP3    H169256   3.295   6.480  16.147 -0.7353  1.3806 -1.3301
15947TIP3    H269257   3.435   6.483  16.206 -0.1532 -1.2003 -2.5270
15948TIP3   OH269258   0.592   6.780  17.155  0.5516 -0.3804  0.1591
15948TIP3    H169259   0.622   6.853  17.100  0.4230 -1.7584 -1.8292
15948TIP3    H269260   0.671   6.728  17.169  0.4079 -0.4946  0.5303
15949TIP3   OH269261   1.052   1.099   3.641  0.1500  0.3190  0.3422
15949TIP3    H169262   0.958   1.086   3.656  0.5053 -2.7610  0.1998
15949TIP3    H269263   1.093   1.019   3.675  2.4445  0.3429 -2.2187
15950TIP3   OH269264   4.586   5.745   6.058 -0.2342  0.2530  0.0783
15950TIP3    H169265   4.529   5.731   5.982  0.9777  0.3211 -0.8569
15950TIP3    H269266   4.585   5.840   6.071 -0.6501  0.2180  0.3118
15951TIP3   OH269267   1.806   2.400   3.854 -0.6427 -0.0824 -0.2077
15951TIP3    H169268   1.724   2.378   3.898 -0.9798 -1.5929 -1.5520
15951TIP3    H269269   1.864   2.326   3.874 -0.0289  0.3646 -0.3379
15952TIP3   OH269270   1.448   1.060  12.127  1.0960  0.1415 -0.0777
15952TIP3    H169271   1.484   0.986  12.176  0.8074 -0.3054 -0.5312
15952TIP3    H269272   1.457   1.034  12.035  0.3879  0.3847 -0.2169
15953TIP3   OH269273   6.238   0.503   4.024 -0.0328  0.3062  0.7386
15953TIP3    H169274   6.174   0.482   3.956  1.0766 -1.2745  0.1677
15953TIP3    H269275   6.193   0.484   4.107 -0.3171 -0.7742  0.3406
15954TIP3   OH269276   5.901   2.251   3.394 -0.0378 -0.0930  0.3741
15954TIP3    H169277   5.909   2.295   3.479  1.4806 -0.4321  0.4273
15954TIP3    H269278   5.928   2.317   3.330 -1.8462  0.3823  0.0831
15955TIP3   OH269279   0.287   3.437  12.708 -0.4081 -0.1733 -0.4349
15955TIP3    H169280   0.213   3.399  12.660  0.0202  0.3364 -1.5197
15955TIP3    H269281   0.258   3.525  12.732 -0.9631 -0.7516  1.0555
15956TIP3   OH269282   2.760   0.370  11.630  0.9015  0.4487 -0.2701
15956TIP3    H169283   2.810   0.323  11.564  1.5793  1.6206 -0.6019
15956TIP3    H269284   2.823   0.428  11.672  0.6410 -0.7738  1.9101
15957TIP3   OH269285   1.566   6.226  14.718 -0.8642  0.1244 -0.5091
15957TIP3    H169286   1.642   6.189  14.763 -0.9590 -0.1031 -0.5349
15957TIP3    H269287   1.491   6.201  14.772 -0.6993  2.4447  0.8445
15958TIP3   OH269288   4.810   0.972  12.034 -0.0488  0.3549 -0.0993
15958TIP3    H169289   4.770   1.058  12.048 -0.3473  0.1932  0.0287
15958TIP3    H269290   4.815   0.934  12.121 -2.5541 -0.9453 -0.4754
15959TIP3   OH269291   1.542   1.779   5.349  0.3489 -0.5163 -0.2245
15959TIP3    H169292   1.549   1.832   5.429  0.7974 -0.0010 -0.6028
15959TIP3    H269293   1.550   1.842   5.278  1.3228 -1.1539 -0.6833
15960TIP3   OH269294   3.417   6.158  11.563 -0.0843  0.3378 -0.3330
15960TIP3    H169295   3.499   6.142  11.611  1.5036  1.7595 -2.4748
15960TIP3    H269296   3.379   6.234  11.608  0.2519  0.2566  0.0994
15961TIP3   OH269297   0.723   0.534  11.809 -0.3003  0.0864 -0.0829
15961TIP3    H169298   0.670   0.575  11.741  0.3525  0.9062 -0.1023
15961TIP3    H269299   0.793   0.597  11.827  0.7213 -1.0237 -0.1248
15962TIP3   OH269300   1.025   1.168   1.822 -0.8402 -0.0987 -0.0238
15962TIP3    H169301   0.990   1.253   1.849 -1.5135  0.1635 -1.6275
15962TIP3    H269302   0.966   1.140   1.752  0.0087 -1.3947 -0.2225
15963TIP3   OH269303   3.120   0.898   2.401  0.0889 -0.2570  0.3324
15963TIP3    H169304   3.115   0.864   2.312 -0.0279 -0.8990  0.5814
15963TIP3    H269305   3.093   0.824   2.457  2.5863 -0.6675  1.0576
15964TIP3   OH269306   6.466   4.805   1.285  0.0901  0.2023  0.2213
15964TIP3    H169307   6.483   4.723   1.332 -0.6588  0.6992  1.3839
15964TIP3    H269308   6.532   4.807   1.216 -0.4059 -1.7958 -0.3466
15965TIP3   OH269309   6.322   2.804   6.173  0.2689 -0.0820 -0.5116
15965TIP3    H169310   6.260   2.873   6.151  1.7715  1.1747 -0.8979
15965TIP3    H269311   6.317   2.742   6.100 -0.6237 -0.0550 -0.4699
15966TIP3   OH269312   2.821   4.653  14.852  0.3598 -0.1477  0.5362
15966TIP3    H169313   2.850   4.565  14.827 -0.0206 -0.2652  0.5080
15966TIP3    H269314   2.732   4.640  14.885  0.3978  0.1904  0.7687
15967TIP3   OH269315   4.714   0.403  12.893  0.2652  0.2685  0.2137
15967TIP3    H169316   4.673   0.426  12.810 -0.4717 -0.0883  0.4793
15967TIP3    H269317   4.652   0.430  12.960  2.0667  3.1471  0.7980
15968TIP3   OH269318   4.684   1.008   4.573  0.1241 -0.4784  0.1713
15968TIP3    H169319   4.682   1.045   4.661  2.5400 -0.1996  0.1253
15968TIP3    H269320   4.730   1.072   4.520 -0.5846 -1.0242 -1.1383
15969TIP3   OH269321   6.176   2.861  16.029 -0.2713  0.7859 -0.3962
15969TIP3    H169322   6.104   2.863  15.967  0.3082  1.3321 -1.0590
15969TIP3    H269323   6.212   2.773  16.021 -0.5165  0.6934 -0.4721
15970TIP3   OH269324   1.263   4.763   3.880  0.5556  0.0797  0.3208
15970TIP3    H169325   1.181   4.780   3.928  0.7982 -1.1846  1.2095
15970TIP3    H269326   1.301   4.849   3.867 -0.6986  0.6445  0.3089
15971TIP3   OH269327   3.348   6.028   2.391 -0.0618  0.1280  0.0565
15971TIP3    H169328   3.438   5.999   2.376  0.2410  0.8904  0.4116
15971TIP3    H269329   3.352   6.123   2.387 -1.0407  0.1428 -1.0161
15972TIP3   OH269330   1.671   2.155  13.567  0.3668 -0.2022 -0.3028
15972TIP3    H169331   1.706   2.222  13.509 -0.5088 -0.1222 -0.7456
15972TIP3    H269332   1.578   2.176  13.574  0.6659  0.4586  2.0186
15973TIP3   OH269333   3.168   5.633   2.694  0.3552  0.0560  0.4288
15973TIP3    H169334   3.158   5.672   2.607  1.1864 -2.3343 -0.7850
15973TIP3    H269335   3.132   5.545   2.685  0.6094 -0.2763  2.4586
15974TIP3   OH269336   5.993   6.107   3.797  0.1985  0.5009 -0.1097
15974TIP3    H169337   5.919   6.150   3.840 -1.3085 -0.1864 -1.9944
15974TIP3    H269338   6.012   6.032   3.853 -0.8545  0.3886  0.1081
15975TIP3   OH269339   2.119   1.033   5.872 -0.2720 -0.1576  0.0399
15975TIP3    H169340   2.024   1.025   5.868 -0.2814  0.8890 -3.0069
15975TIP3    H269341   2.135   1.085   5.951 -2.1958 -0.2223  0.5083
15976TIP3   OH269342   0.532   1.907   4.245 -0.8393 -0.6745  0.1907
15976TIP3    H169343   0.521   1.877   4.155 -1.6601  1.9331 -0.6171
15976TIP3    H269344   0.558   1.828   4.294  0.9440 -1.8350 -2.5416
15977TIP3   OH269345   4.232   2.821  11.744  0.2260 -0.6340  0.2003
15977TIP3    H169346   4.143   2.832  11.709  0.2058  0.4393  0.5823
15977TIP3    H269347   4.286   2.802  11.667  0.1544  1.5459 -0.4076
15978TIP3   OH269348   4.207   2.571   4.237 -0.4455 -0.0386  0.2835
15978TIP3    H169349   4.176   2.520   4.312  0.1956  0.0429  0.6029
15978TIP3    H269350   4.146   2.645   4.231  0.0496  0.4648  1.3025
15979TIP3   OH269351   2.908   1.983   1.158  0.0020  0.0302  0.2531
15979TIP3    H169352   2.936   1.944   1.240 -1.3256 -1.6333 -0.0632
15979TIP3    H269353   2.840   2.046   1.182  1.5749  1.6308  0.6762
15980TIP3   OH269354   0.992   4.826  12.797 -0.4378  0.3947 -0.5207
15980TIP3    H169355   1.071   4.881  12.794  0.0212 -0.1921  0.5439
15980TIP3    H269356   1.019   4.744  12.756 -0.7690  0.5286 -1.0062
15981TIP3   OH269357   6.316   2.042   5.569 -0.2017 -0.6667  0.2374
15981TIP3    H169358   6.337   1.956   5.534 -1.6119 -1.1623  0.5813
15981TIP3    H269359   6.222   2.051   5.556  0.1535  1.3964 -1.0399
15982TIP3   OH269360   1.268   2.187  15.737 -0.4062  0.1436  0.7184
15982TIP3    H169361   1.289   2.265  15.788  0.1900 -0.5115  1.4834
15982TIP3    H269362   1.305   2.115  15.787 -1.1223 -0.6510  0.1125
15983TIP3   OH269363   5.051   0.417   4.440 -0.4385  0.1490 -0.0291
15983TIP3    H169364   5.127   0.457   4.398 -0.8442  2.0658  1.0048
15983TIP3    H269365   5.070   0.323   4.439  1.6048  0.5377 -0.4297
15984TIP3   OH269366   1.286   4.086   2.090  0.7820  0.2452 -0.1258
15984TIP3    H169367   1.200   4.128   2.088  1.6442  2.1205  1.2938
15984TIP3    H269368   1.313   4.082   1.998 -1.9387 -2.8360 -0.9165
15985TIP3   OH269369   2.742   1.793  15.234  0.0303 -0.3324  0.0345
15985TIP3    H169370   2.664   1.771  15.284 -0.2557 -0.3716 -0.4341
15985TIP3    H269371   2.792   1.712  15.229  0.1149 -0.3005  0.3566
15986TIP3   OH269372   4.385   4.727   4.253 -0.0059  0.4987  0.1208
15986TIP3    H169373   4.470   4.685   4.265 -0.5779 -0.9068 -0.6717
15986TIP3    H269374   4.357   4.749   4.342  0.9541  0.5190  0.4267
15987TIP3   OH269375   0.245   0.988   1.994  0.5932 -0.1678  0.2678
15987TIP3    H169376   0.329   0.988   2.040 -0.8490 -1.8734  3.0066
15987TIP3    H269377   0.242   1.073   1.950  3.6892 -0.0263  0.1918
15988TIP3   OH269378   0.982   4.416  14.942  0.6401  0.0646 -0.4441
15988TIP3    H169379   0.948   4.329  14.964 -2.2449  1.3028  0.2190
15988TIP3    H269380   1.072   4.400  14.913 -0.6463 -3.4118 -2.8114
15989TIP3   OH269381   5.636   0.123  12.192 -0.5910 -0.4815 -0.3143
15989TIP3    H169382   5.631   0.085  12.280 -0.7311 -0.6288 -0.3853
15989TIP3    H269383   5.609   0.052  12.134  0.3651 -0.6635 -0.5442
15990TIP3   OH269384   6.231   3.839   5.450 -0.1574  0.0742 -0.2417
15990TIP3    H169385   6.229   3.746   5.426 -1.7144 -0.5040  2.0056
15990TIP3    H269386   6.324   3.859   5.458  0.1888 -1.4210 -0.3242
15991TIP3   OH269387   5.293   4.600  13.051  0.2237 -0.4583 -0.3824
15991TIP3    H169388   5.339   4.676  13.086  0.2376  0.0655 -1.5240
15991TIP3    H269389   5.208   4.633  13.024 -1.0489 -1.5139  2.1164
15992TIP3   OH269390   1.498   1.603   5.020  0.2031  0.2930 -0.4898
15992TIP3    H169391   1.513   1.552   5.100 -2.5285 -0.2446 -0.2671
15992TIP3    H269392   1.404   1.623   5.021  0.9501  4.4149 -1.1324
15993TIP3   OH269393   4.211   1.144  12.122  0.0404 -0.1720  0.2130
15993TIP3    H169394   4.258   1.073  12.166  0.3241  0.1654  0.4645
15993TIP3    H269395   4.120   1.135  12.152 -0.0490 -0.8176 -0.2657
15994TIP3   OH269396   6.306   2.773  14.860  0.3855  0.2683 -0.0782
15994TIP3    H169397   6.284   2.713  14.931  0.6939 -0.3061 -0.4719
15994TIP3    H269398   6.223   2.789  14.815  0.4491 -0.4670 -0.4524
15995TIP3   OH269399   5.759   5.725  15.719 -0.2761 -0.0084 -0.5019
15995TIP3    H169400   5.764   5.694  15.809 -0.6843  0.2391 -0.3916
15995TIP3    H269401   5.787   5.651  15.666  0.2977 -0.0423 -0.1507
15996TIP3   OH269402   4.145   3.957   0.130 -0.1903 -0.1385  0.3894
15996TIP3    H169403   4.066   3.912   0.160  1.1500 -1.4605  2.0821
15996TIP3    H269404   4.217   3.897   0.154  1.4349  1.6870  0.2176
15997TIP3   OH269405   2.259   3.825  12.919 -0.2903 -0.1919 -0.1062
15997TIP3    H169406   2.276   3.735  12.892  0.7112  0.3187 -1.2363
15997TIP3    H269407   2.240   3.819  13.013 -1.3342 -1.7002 -0.3978
15998TIP3   OH269408   4.286   3.886   3.339 -0.9837 -0.2313 -0.8749
15998TIP3    H169409   4.254   3.959   3.287 -0.1199  0.2205 -0.7828
15998TIP3    H269410   4.334   3.831   3.277  0.4889  0.5768 -0.4586
15999TIP3   OH269411   4.644   5.861  15.826 -0.4086 -0.3537 -0.2527
15999TIP3    H169412   4.649   5.945  15.782 -2.0226  0.4722  1.0982
15999TIP3    H269413   4.685   5.877  15.912  1.8146 -1.6849 -1.0191
16000TIP3   OH269414   5.602   4.475   6.494  0.1117 -0.0820  0.3853
16000TIP3    H169415   5.539   4.520   6.438  2.0275  1.0491 -0.9343
16000TIP3    H269416   5.595   4.518   6.579  0.7363  1.6358 -0.4062
16001TIP3   OH269417   3.979   4.693  14.792  0.6032  0.0870  0.0043
16001TIP3    H169418   3.901   4.748  14.800 -0.4956 -1.1619 -1.7173
16001TIP3    H269419   4.004   4.700  14.700  2.4521  0.3609  0.5203
16002TIP3   OH269420   0.923   1.927   0.538  0.3625 -0.3503 -0.0191
16002TIP3    H169421   0.970   2.006   0.564 -0.4136  0.4977 -1.1285
16002TIP3    H269422   0.854   1.959   0.479 -0.5223 -1.7508  0.2389
16003TIP3   OH269423   5.798   2.752   2.383 -0.1545 -0.8476 -0.1712
16003TIP3    H169424   5.762   2.813   2.448  0.2381 -0.1659 -0.5820
16003TIP3    H269425   5.746   2.673   2.393 -0.6836 -0.4386  0.3654
16004TIP3   OH269426   0.842   1.018   1.608 -0.8937  0.3010 -0.5011
16004TIP3    H169427   0.884   0.946   1.655  0.2799  0.7572 -0.8237
16004TIP3    H269428   0.828   0.984   1.520 -1.9403 -0.1264 -0.1694
16005TIP3   OH269429   2.959   1.368   2.200  0.2032  0.0129 -0.8320
16005TIP3    H169430   2.999   1.373   2.286  2.1511 -2.8157 -1.5192
16005TIP3    H269431   2.945   1.275   2.184  0.4669  0.4150 -3.8250
16006TIP3   OH269432   1.031   6.301  11.187 -0.2060  0.5399  0.6213
16006TIP3    H169433   0.935   6.299  11.189 -0.1802 -0.8738  1.9112
16006TIP3    H269434   1.054   6.394  11.186 -1.5962  0.8808  0.2174
16007TIP3   OH269435   2.382   3.089   2.239 -0.8442 -0.2662 -0.5193
16007TIP3    H169436   2.413   3.070   2.150 -0.3449 -0.2721 -0.3472
16007TIP3    H269437   2.343   3.007   2.268 -3.3510  0.4614 -1.6795
16008TIP3   OH269438   0.965   1.201  11.515 -0.1341  0.1021 -0.3794
16008TIP3    H169439   0.876   1.236  11.520 -0.2022 -0.2304  0.7977
16008TIP3    H269440   0.985   1.199  11.421 -2.4821 -2.6677 -0.8663
16009TIP3   OH269441   1.541   6.243  16.747  0.5872 -0.1080  0.1445
16009TIP3    H169442   1.545   6.164  16.802 -0.0166  0.0056  0.3646
16009TIP3    H269443   1.518   6.313  16.808  1.1364  0.2365 -0.0506
16010TIP3   OH269444   6.060   4.423   6.007  0.2610  0.2707 -0.1091
16010TIP3    H169445   6.150   4.390   6.004 -0.4101 -1.8109  1.2148
16010TIP3    H269446   6.055   4.472   6.089 -0.2144 -0.9450  0.6072
16011TIP3   OH269447   3.665   5.567  13.016  0.2043  0.0164  0.4296
16011TIP3    H169448   3.727   5.623  12.970  0.2055 -0.1857  0.1872
16011TIP3    H269449   3.649   5.612  13.099 -0.7762  1.0153 -0.2974
16012TIP3   OH269450   1.958   4.335  11.704 -0.1506  0.2367  0.3334
16012TIP3    H169451   1.990   4.306  11.789 -1.8815  1.6364  1.4942
16012TIP3    H269452   1.973   4.429  11.703 -1.0176  0.3764 -0.5221
16013TIP3   OH269453   1.506   3.424   2.566  0.2212  0.6923  0.2180
16013TIP3    H169454   1.553   3.340   2.562 -1.4968 -0.2904  0.2561
16013TIP3    H269455   1.516   3.461   2.479 -3.1310 -1.8775 -1.3804
16014TIP3   OH269456   3.129   1.510  10.188 -0.0187 -0.6004 -0.9312
16014TIP3    H169457   3.141   1.525  10.094  0.1042 -0.8548 -0.9564
16014TIP3    H269458   3.087   1.590  10.219 -0.4867 -0.7058 -1.2877
16015TIP3   OH269459   6.293   5.586   3.430  0.3111 -0.2791 -0.0853
16015TIP3    H169460   6.200   5.606   3.420  0.9991  2.1144 -2.2779
16015TIP3    H269461   6.326   5.653   3.490  0.8124 -0.5353 -0.0698
16016TIP3   OH269462   2.993   4.418   2.817 -0.3923  0.5831 -0.0685
16016TIP3    H169463   3.013   4.406   2.725 -2.1432  0.8255 -0.4994
16016TIP3    H269464   3.077   4.437   2.858  0.2245  1.6409 -1.8055
16017TIP3   OH269465   0.067   1.498  12.817  0.2003 -0.5249 -0.0342
16017TIP3    H169466  -0.022   1.533  12.810  0.9767  1.9062  1.6566
16017TIP3    H269467   0.102   1.502  12.728 -1.6622 -2.3261 -0.8779
16018TIP3   OH269468   3.241   1.176   0.361  0.4695  0.0291  0.4812
16018TIP3    H169469   3.194   1.258   0.347  1.8193  0.5024 -1.4089
16018TIP3    H269470   3.286   1.159   0.278  1.0223 -2.1039  1.1766
16019TIP3   OH269471   1.623   5.937   5.869 -0.3594  0.3618 -0.6440
16019TIP3    H169472   1.616   5.910   5.961 -0.0169  0.9473 -0.4434
16019TIP3    H269473   1.705   5.986   5.865 -0.7519  0.9764 -1.1026
16020TIP3   OH269474   5.564   5.238  14.918  0.0991 -0.5563 -0.1450
16020TIP3    H169475   5.564   5.151  14.958 -0.5553 -1.2270 -1.5812
16020TIP3    H269476   5.473   5.265  14.920  0.4855  0.7477  1.6198
16021TIP3   OH269477   3.820   4.642   4.682  0.5402 -0.4268 -0.0166
16021TIP3    H169478   3.782   4.689   4.607  0.3392  0.4200  0.6096
16021TIP3    H269479   3.753   4.648   4.750 -0.1711 -3.0200 -0.4177
16022TIP3   OH269480   5.758   5.357  15.277 -0.4964 -0.4265  0.4128
16022TIP3    H169481   5.840   5.325  15.314  0.1102 -0.7821 -1.2086
16022TIP3    H269482   5.690   5.321  15.334  0.4759  0.3701  2.1290
16023TIP3   OH269483   0.464   1.829   5.875  0.1161 -0.0851  0.4374
16023TIP3    H169484   0.371   1.812   5.858 -0.0657 -1.3236  2.4702
16023TIP3    H269485   0.471   1.924   5.883 -0.6768  0.1356 -1.3022
16024TIP3   OH269486   0.202   3.901  13.863  0.0730 -0.3208  0.2642
16024TIP3    H169487   0.241   3.909  13.776 -2.5767 -0.4700 -0.9803
16024TIP3    H269488   0.212   3.808  13.885 -0.3019 -0.5163 -0.3895
16025TIP3   OH269489   6.378   0.390  13.165 -0.0189  0.0816  0.0456
16025TIP3    H169490   6.393   0.344  13.248 -1.6208  0.4625  0.5698
16025TIP3    H269491   6.458   0.440  13.151  0.2718  0.0152  1.3857
16026TIP3   OH269492   0.837   4.585  15.588 -0.5302 -0.0094  0.1222
16026TIP3    H169493   0.917   4.532  15.594 -0.1464  0.0522 -3.2005
16026TIP3    H269494   0.766   4.523  15.603  0.0833 -0.0172  3.3785
16027TIP3   OH269495   5.098   1.839  13.417 -0.8005 -0.7040  0.0020
16027TIP3    H169496   5.044   1.859  13.493 -0.1716 -0.9338  0.5107
16027TIP3    H269497   5.163   1.777  13.449 -1.0224 -1.4161 -0.9121
16028TIP3   OH269498   4.511   1.942   6.074 -0.2055  0.4470  0.2770
16028TIP3    H169499   4.594   1.895   6.065  0.0620  1.0769 -0.5954
16028TIP3    H269500   4.490   1.972   5.985  0.1866  2.9061  0.9794
16029TIP3   OH269501   4.981   4.300  15.190 -0.4261 -0.2488  0.3348
16029TIP3    H169502   5.041   4.332  15.123  1.4461 -1.1029  1.5476
16029TIP3    H269503   4.975   4.206  15.173  0.0633 -0.4739  1.3281
16030TIP3   OH269504   3.527   2.874  11.827 -0.4225 -0.2369  0.2372
16030TIP3    H169505   3.445   2.827  11.836 -0.4544 -0.1787  0.2451
16030TIP3    H269506   3.594   2.806  11.837 -0.4833 -0.4551 -0.7846
16031TIP3   OH269507   0.425   2.387  13.035  0.1660 -0.0424  0.4721
16031TIP3    H169508   0.378   2.326  12.978  3.4956 -1.3852 -0.9634
16031TIP3    H269509   0.375   2.386  13.117 -1.7331 -2.1194 -0.6419
16032TIP3   OH269510   2.122   1.918   3.031 -0.4317 -0.4562 -0.7703
16032TIP3    H169511   2.090   2.004   3.059  1.1166 -0.1812  0.1924
16032TIP3    H269512   2.210   1.935   2.997  0.0286 -1.7188 -0.2283
16033TIP3   OH269513   6.055   3.136   3.817 -0.1494 -0.5711  0.4040
16033TIP3    H169514   6.018   3.058   3.859 -2.0911 -0.1750 -0.5421
16033TIP3    H269515   6.002   3.148   3.738 -0.1352  1.9771  0.7696
16034TIP3   OH269516   5.336   1.847   4.659 -0.2157 -0.5218  0.2489
16034TIP3    H169517   5.283   1.768   4.645  0.9616 -1.1060 -1.0773
16034TIP3    H269518   5.351   1.882   4.571 -0.9185  1.3212  0.8473
16035TIP3   OH269519   4.447   0.614   5.383 -0.2307  0.6455 -0.2366
16035TIP3    H169520   4.435   0.632   5.289 -3.3327 -1.1545 -0.2683
16035TIP3    H269521   4.541   0.604   5.394  0.2772  1.8521 -2.9741
16036TIP3   OH269522   4.056   1.800   2.554  0.0163  0.8092  0.5090
16036TIP3    H169523   4.100   1.720   2.584  2.0355  0.9747 -1.8086
16036TIP3    H269524   4.061   1.860   2.628 -0.3186 -0.7311  1.8081
16037TIP3   OH269525   4.163   2.281  16.960 -0.3394  0.1428 -0.2058
16037TIP3    H169526   4.153   2.297  16.867 -3.4335 -0.7926 -0.0920
16037TIP3    H269527   4.143   2.188  16.971 -1.4103  0.5406  1.5337
16038TIP3   OH269528   2.659   5.740   2.829 -0.8847 -0.0042 -0.5212
16038TIP3    H169529   2.686   5.771   2.743 -0.5060 -0.8266 -0.7026
16038TIP3    H269530   2.712   5.661   2.844  1.4332  1.9225  1.8451
16039TIP3   OH269531   6.000   1.307  12.000  0.7890 -0.1322  0.0271
16039TIP3    H169532   5.997   1.214  11.977 -1.9500  0.0747 -0.5999
16039TIP3    H269533   6.076   1.341  11.954  0.7216 -1.6658 -1.2504
16040TIP3   OH269534   3.483   0.396   1.880  0.3106  0.1954  0.3410
16040TIP3    H169535   3.399   0.434   1.905 -1.0082 -1.5392 -1.2617
16040TIP3    H269536   3.487   0.312   1.926 -0.3053 -1.1541 -1.9529
16041TIP3   OH269537   1.532   4.271   5.518  0.1996  0.2931 -0.6078
16041TIP3    H169538   1.495   4.357   5.497 -0.6249 -0.2063 -1.2068
16041TIP3    H269539   1.603   4.291   5.578  1.1099  1.5555 -2.0458
16042TIP3   OH269540   4.540   2.169  15.256  0.4772 -0.3134  0.1889
16042TIP3    H169541   4.555   2.193  15.164 -2.2098 -0.5621 -0.3775
16042TIP3    H269542   4.546   2.252  15.303  0.7386  0.0042 -0.3991
16043TIP3   OH269543   6.113   5.080   1.539 -0.3579  0.5486 -0.0629
16043TIP3    H169544   6.076   5.168   1.545  0.4215  0.8535  0.3216
16043TIP3    H269545   6.047   5.030   1.490 -0.7273  1.3849 -0.4399
16044TIP3   OH269546   4.695   1.494  16.253 -0.0283  0.3051 -0.0632
16044TIP3    H169547   4.600   1.500  16.260 -0.3095 -2.3521 -1.0611
16044TIP3    H269548   4.711   1.460  16.165  1.8086 -0.0743  0.3902
16045TIP3   OH269549   5.604   0.843   3.930  0.2757 -0.7787  0.3797
16045TIP3    H169550   5.536   0.820   3.867  0.3267 -0.4201  0.1896
16045TIP3    H269551   5.600   0.938   3.935  0.9380 -0.7347  0.1679
16046TIP3   OH269552   4.033   5.469  13.378  0.1289 -0.8283  0.8384
16046TIP3    H169553   3.997   5.527  13.445  0.4685 -1.1082  1.2715
16046TIP3    H269554   4.123   5.499  13.365  0.0979 -0.8419  0.5845
16047TIP3   OH269555   3.867   6.356   2.068  0.4149 -0.5983  0.5689
16047TIP3    H169556   3.932   6.291   2.093 -0.9393 -1.7852  1.0662
16047TIP3    H269557   3.784   6.308   2.066 -0.3018  0.6509 -1.0541
16048TIP3   OH269558   1.081   4.782  16.134 -0.1296 -0.1003 -0.0057
16048TIP3    H169559   1.132   4.710  16.096 -0.6886 -0.3833 -0.2146
16048TIP3    H269560   1.143   4.827  16.191  0.0032 -1.2280  0.7510
16049TIP3   OH269561   4.341   6.623  11.780  0.2067  0.3291 -0.6142
16049TIP3    H169562   4.322   6.691  11.844  0.9985  0.8668 -0.9492
16049TIP3    H269563   4.349   6.669  11.697 -3.6645 -0.6980 -1.6345
16050TIP3   OH269564   4.008   6.052  15.892 -1.1085 -0.0690  0.4042
16050TIP3    H169565   3.955   6.130  15.912  1.6541  1.7034  1.1172
16050TIP3    H269566   4.014   6.052  15.796  0.8588  2.0585  0.4694
16051TIP3   OH269567   2.376   0.341   5.514  0.3225  0.1799  0.0656
16051TIP3    H169568   2.401   0.341   5.421  0.0345 -1.2685 -0.0235
16051TIP3    H269569   2.454   0.311   5.559 -0.3194 -1.5362  0.0553
16052TIP3   OH269570   2.709   2.403   3.058 -0.5396  0.6489 -0.3889
16052TIP3    H169571   2.747   2.317   3.037  1.7377  1.3077  0.8091
16052TIP3    H269572   2.651   2.387   3.132  0.5053  0.2500  0.3572
16053TIP3   OH269573   3.507   1.274  11.413 -0.4387  0.5357  0.3870
16053TIP3    H169574   3.417   1.304  11.419 -0.2962  0.7701  1.4920
16053TIP3    H269575   3.552   1.342  11.363 -0.7726  0.6560  0.2525
16054TIP3   OH269576   3.734   0.751   2.230  0.2689 -0.1954  0.6961
16054TIP3    H169577   3.730   0.699   2.310  1.5378  0.1995  1.0203
16054TIP3    H269578   3.773   0.834   2.258 -0.2016  0.3187 -0.1456
16055TIP3   OH269579   5.359   1.271   4.594  0.2631  0.2328 -0.1242
16055TIP3    H169580   5.450   1.247   4.611 -0.1775 -1.0296  0.5505
16055TIP3    H269581   5.324   1.295   4.680 -0.5552 -1.1592 -0.0472
16056TIP3   OH269582   3.805   4.753  15.120  0.1620 -0.5322  0.0173
16056TIP3    H169583   3.803   4.661  15.148  0.1990 -0.5666 -0.0929
16056TIP3    H269584   3.897   4.778  15.127  0.0152 -0.2251  0.9425
16057TIP3   OH269585   6.393   2.974   3.240 -0.0603  0.1805 -0.6199
16057TIP3    H169586   6.380   3.022   3.322  0.6296 -1.7170  0.6128
16057TIP3    H269587   6.485   2.949   3.241 -1.1748 -4.2586  0.5017
16058TIP3   OH269588   6.685   0.612  16.245  0.3365 -0.5589 -0.2502
16058TIP3    H169589   6.697   0.699  16.283 -1.1466  0.2590 -1.5998
16058TIP3    H269590   6.740   0.555  16.299 -0.2457  0.8632  1.9296
16059TIP3   OH269591   3.709   0.243   5.566  0.7482 -0.4156 -0.1187
16059TIP3    H169592   3.790   0.205   5.600  1.8195  0.6683 -1.4733
16059TIP3    H269593   3.705   0.330   5.604  0.1641 -0.4951  0.0111
16060TIP3   OH269594   6.721   4.187   3.248  0.0229  0.0841 -0.4929
16060TIP3    H169595   6.806   4.146   3.261  0.0492  0.3000  0.0025
16060TIP3    H269596   6.742   4.272   3.210 -0.0740 -0.7523 -2.4869
16061TIP3   OH269597   1.310   1.293  13.599  0.3145  0.0425 -0.2741
16061TIP3    H169598   1.312   1.388  13.611 -3.2517  0.0736  0.7066
16061TIP3    H269599   1.258   1.280  13.519 -1.8698 -1.1205  1.2694
16062TIP3   OH269600   4.793   0.392   0.214  1.1247 -0.1009  0.0287
16062TIP3    H169601   4.736   0.391   0.291  1.4669  1.1285  0.3081
16062TIP3    H269602   4.734   0.412   0.141  0.7695 -1.4500 -0.0695
16063TIP3   OH269603   0.917   2.672   2.745  0.3238 -0.2753 -0.3406
16063TIP3    H169604   0.925   2.579   2.725  2.0405  0.1113 -1.5375
16063TIP3    H269605   0.941   2.716   2.664  1.5730  1.2346  0.8157
16064TIP3   OH269606   4.305   0.411  17.106  0.5147  0.2573 -0.0729
16064TIP3    H169607   4.347   0.491  17.137  0.3907  0.9328 -1.6155
16064TIP3    H269608   4.220   0.410  17.149 -0.0712  1.7199 -1.1289
16065TIP3   OH269609   5.280   1.394  12.556 -0.1787 -0.2985 -0.2633
16065TIP3    H169610   5.212   1.368  12.494 -0.9730  0.1834  0.3817
16065TIP3    H269611   5.251   1.358  12.640 -2.2690  4.0500  1.0354
16066TIP3   OH269612   0.473   5.144  11.635  0.3423  0.6065  0.3570
16066TIP3    H169613   0.506   5.054  11.634  0.2686  0.5793  0.3464
16066TIP3    H269614   0.486   5.175  11.545  1.8386  1.1441  0.7442
16067TIP3   OH269615   2.425   2.372   6.782  0.3753 -0.4656  0.5811
16067TIP3    H169616   2.494   2.315   6.747  0.9320  0.0846  0.7644
16067TIP3    H269617   2.362   2.380   6.710  1.3284  0.3489 -0.1830
16068TIP3   OH269618   4.292   5.645  11.695 -0.7109 -0.4955  1.1011
16068TIP3    H169619   4.225   5.580  11.714 -1.3196 -0.0409  0.5603
16068TIP3    H269620   4.278   5.714  11.761 -3.2303  1.3827 -1.2490
16069TIP3   OH269621   5.934   1.574   0.021  0.3412  0.4209 -0.2821
16069TIP3    H169622   5.916   1.485   0.049 -0.6652  0.1934 -1.6206
16069TIP3    H269623   5.928   1.571  -0.075  1.2447  1.7156 -0.3998
16070TIP3   OH269624   6.711   3.578   4.400 -0.8688 -0.3748  0.0416
16070TIP3    H169625   6.671   3.665   4.395 -0.9521 -0.2867  1.8715
16070TIP3    H269626   6.697   3.541   4.313 -0.9445  1.3864 -0.7270
16071TIP3   OH269627   3.521   5.009   2.237 -0.1683  0.3110  0.4451
16071TIP3    H169628   3.549   5.094   2.205  0.2595  0.3925  1.0288
16071TIP3    H269629   3.508   4.956   2.158  0.3404  0.6714  0.1207
16072TIP3   OH269630   3.195   6.461   2.213 -0.6380  0.0543 -0.5906
16072TIP3    H169631   3.218   6.546   2.175  0.6091 -0.8151 -1.8309
16072TIP3    H269632   3.100   6.465   2.224 -0.5588  1.7197 -0.3363
16073TIP3   OH269633   5.489   2.060   5.016 -0.0048 -0.2478  0.1050
16073TIP3    H169634   5.440   1.978   5.009 -1.3197  0.3808  1.5791
16073TIP3    H269635   5.436   2.115   5.074  1.0254  1.5259 -0.5890
16074TIP3   OH269636   1.350   1.746  12.295 -0.1501 -0.3916  0.2615
16074TIP3    H169637   1.381   1.700  12.217  0.4856 -1.5390  1.1640
16074TIP3    H269638   1.255   1.753  12.283 -0.3753 -2.6545  0.4357
16075TIP3   OH269639   0.850   2.830  13.609  0.3471  0.7022  0.3692
16075TIP3    H169640   0.922   2.769  13.594  0.7352  1.1768  0.2654
16075TIP3    H269641   0.850   2.844  13.704 -0.3980 -0.2456  0.5092
16076TIP3   OH269642   0.885   2.667  14.890  0.3549 -0.1498 -0.0526
16076TIP3    H169643   0.959   2.639  14.943  0.5380 -2.0467 -1.2693
16076TIP3    H269644   0.808   2.651  14.945  0.8564  3.0327  1.7246
16077TIP3   OH269645   6.472   5.267  12.805 -0.2901  1.1226  1.1112
16077TIP3    H169646   6.542   5.318  12.764 -0.5618  1.3735  0.9578
16077TIP3    H269647   6.425   5.229  12.732 -0.0495  0.5958  1.2275
16078TIP3   OH269648   1.303   2.204  13.834  0.0934  0.0728  0.3143
16078TIP3    H169649   1.279   2.164  13.917 -0.5395  0.7408  0.4557
16078TIP3    H269650   1.331   2.130  13.779  1.8806 -0.1994  1.5634
16079TIP3   OH269651   1.040   3.839  16.317  0.1775  0.0822  0.3120
16079TIP3    H169652   1.105   3.890  16.269 -0.7198  1.2866  0.3520
16079TIP3    H269653   0.956   3.872  16.285 -0.4306  0.3739  2.1840
16080TIP3   OH269654   1.036   2.380  12.876 -0.4086  0.2256 -0.0929
16080TIP3    H169655   0.986   2.456  12.847  0.6366  1.6535  1.6736
16080TIP3    H269656   1.127   2.400  12.853 -0.4895 -2.0041 -2.5950
16081TIP3   OH269657   1.019   5.086   3.438  0.4698 -0.2653  0.2111
16081TIP3    H169658   0.934   5.124   3.415  0.3703 -1.7299 -2.0367
16081TIP3    H269659   1.008   5.052   3.527 -1.0896  0.1494  0.1815
16082TIP3   OH269660   0.911   4.881  12.070  0.3204 -0.3311 -0.5846
16082TIP3    H169661   0.824   4.904  12.038  0.1967 -1.0607 -0.7837
16082TIP3    H269662   0.931   4.798  12.027  1.3394  0.0987 -0.9588
16083TIP3   OH269663   3.687   1.234  13.255 -0.6230 -0.4474  0.4320
16083TIP3    H169664   3.592   1.223  13.246 -0.7997  1.6791 -0.8256
16083TIP3    H269665   3.697   1.285  13.336 -0.8492  2.4188 -1.2806
16084TIP3   OH269666   1.917   6.705   6.199 -0.6039 -0.3991  0.1715
16084TIP3    H169667   1.894   6.687   6.290  1.4126  1.6722  1.1652
16084TIP3    H269668   1.863   6.780   6.175 -0.0492  0.0238  0.2067
16085TIP3   OH269669   4.114   6.272   2.589 -0.6698  0.1657 -0.0139
16085TIP3    H169670   4.027   6.283   2.627  0.2070  1.8595  1.5811
16085TIP3    H269671   4.152   6.199   2.639 -1.2234 -0.7223 -0.8604
16086TIP3   OH269672   4.900   2.566   1.817 -0.0688  0.3244  0.6435
16086TIP3    H169673   4.856   2.483   1.797  0.2964  0.2002  0.3613
16086TIP3    H269674   4.834   2.616   1.865 -0.6111  0.2311  0.0058
16087TIP3   OH269675   1.624   0.996  11.507  0.2546 -0.5277  0.0219
16087TIP3    H169676   1.698   0.939  11.526  1.6033  1.0533 -0.3569
16087TIP3    H269677   1.629   1.065  11.574 -0.5346 -0.1119 -0.3411
16088TIP3   OH269678   1.782   5.582  16.306  0.0792 -0.2116  0.1775
16088TIP3    H169679   1.826   5.666  16.294  0.9870 -0.5397  1.1957
16088TIP3    H269680   1.690   5.601  16.288  0.4403  0.7545 -0.6921
16089TIP3   OH269681   0.043   2.499  15.055  0.1012 -0.3515  0.1186
16089TIP3    H169682  -0.051   2.503  15.035 -0.3810 -3.1854  1.6435
16089TIP3    H269683   0.082   2.459  14.977 -0.4278 -2.2837  0.8371
16090TIP3   OH269684   4.028   0.005   4.471 -0.2298 -0.4399 -0.1833
16090TIP3    H169685   4.113   0.045   4.455 -0.5557  0.1271 -0.5224
16090TIP3    H269686   3.965   0.069   4.438 -0.9259  0.5527  2.8454
16091TIP3   OH269687   1.195   2.905  16.456  0.0731 -0.8721  0.1378
16091TIP3    H169688   1.236   2.988  16.432 -1.3020  0.2337  1.4946
16091TIP3    H269689   1.258   2.839  16.429  1.7355  0.6676  0.1045
16092TIP3   OH269690   5.292   4.366   3.892  0.3865  0.2522  0.0905
16092TIP3    H169691   5.383   4.338   3.888  0.5035  0.7237 -0.6607
16092TIP3    H269692   5.242   4.284   3.889  0.7342  0.0881 -1.8381
16093TIP3   OH269693   2.614   5.924   2.120  0.2472 -0.5176  0.2046
16093TIP3    H169694   2.592   6.006   2.164  2.3436  0.3020 -0.2282
16093TIP3    H269695   2.542   5.865   2.143 -1.0878  1.3014  0.8522
16094TIP3   OH269696   1.554   3.637   1.057 -0.6735  0.5236 -0.2118
16094TIP3    H169697   1.560   3.542   1.068 -0.5063  0.6362  0.6651
16094TIP3    H269698   1.603   3.674   1.130 -0.5460  1.2898 -0.6721
16095TIP3   OH269699   3.099   0.952  16.876 -0.0720  0.6210 -0.3059
16095TIP3    H169700   3.125   1.040  16.903  1.1891  0.3190 -0.5488
16095TIP3    H269701   3.176   0.914  16.835 -0.4061 -0.8339  0.3554
16096TIP3   OH269702   4.772   0.601  15.700 -0.1884  0.4149  0.0550
16096TIP3    H169703   4.797   0.668  15.636 -0.5603  1.7549  1.2957
16096TIP3    H269704   4.788   0.518  15.655 -0.0519  1.3357 -1.6348
16097TIP3   OH269705   5.957   3.374  14.343 -0.0713  0.3001 -0.5485
16097TIP3    H169706   6.049   3.396  14.354  0.2245 -1.7806  1.5962
16097TIP3    H269707   5.923   3.440  14.282  2.9012  0.8506 -1.6716
16098TIP3   OH269708   2.388   2.933   4.902  0.1535  0.2472  0.2475
16098TIP3    H169709   2.379   2.858   4.961 -0.0450  0.1485  0.0940
16098TIP3    H269710   2.483   2.942   4.889  0.2308  0.6517  1.0591
16099TIP3   OH269711   0.033   0.039  15.749 -0.0770 -0.1657  0.1633
16099TIP3    H169712   0.015   0.095  15.825  1.9919  0.9801 -0.1612
16099TIP3    H269713   0.098  -0.024  15.780 -0.3691 -0.6594 -0.2320
16100TIP3   OH269714   6.508   0.345  12.730  0.0843  0.4196  0.3873
16100TIP3    H169715   6.554   0.271  12.690  0.0372  1.1106 -0.9569
16100TIP3    H269716   6.430   0.307  12.770  1.5308 -0.6893  2.2179
16101TIP3   OH269717   1.016   3.588  13.358  0.5494 -0.2888 -0.0103
16101TIP3    H169718   0.992   3.639  13.281  2.9577  0.1674 -0.5006
16101TIP3    H269719   1.038   3.653  13.425  1.4467 -0.6618  0.0737
16102TIP3   OH269720   3.113   4.922   0.297 -0.0636 -0.2743 -0.6920
16102TIP3    H169721   3.195   4.949   0.256  2.4133 -0.1475  4.0779
16102TIP3    H269722   3.125   4.830   0.318 -1.3269 -0.3570 -0.2756
16103TIP3   OH269723   4.870   1.885  16.852 -0.1152 -0.0761 -0.3111
16103TIP3    H169724   4.897   1.838  16.773  0.2843 -1.1574  0.4544
16103TIP3    H269725   4.822   1.819  16.903  1.1152  0.1132  1.1326
16104TIP3   OH269726   0.142   2.359   3.394 -0.4362 -0.6268  0.8283
16104TIP3    H169727   0.091   2.308   3.457  0.6950 -1.9062  0.7253
16104TIP3    H269728   0.204   2.297   3.357  0.1827  0.5602 -0.1674
16105TIP3   OH269729   1.228   0.578   4.961  0.3368 -0.0552 -0.1131
16105TIP3    H169730   1.292   0.509   4.947  1.5498  0.5791  2.1192
16105TIP3    H269731   1.231   0.595   5.055 -1.8576  1.1935 -0.2392
16106TIP3   OH269732   3.546   1.005  14.720  0.1048  0.0934  0.2115
16106TIP3    H169733   3.542   1.047  14.807 -0.2169 -1.0924  0.7762
16106TIP3    H269734   3.483   1.054  14.668 -0.4336  0.1804  0.9303
16107TIP3   OH269735   0.583   1.377   4.813 -0.1310  0.8002  0.8572
16107TIP3    H169736   0.494   1.403   4.840 -1.3949 -2.8758  0.5247
16107TIP3    H269737   0.584   1.392   4.719 -0.1634  1.4789  0.9610
16108TIP3   OH269738   1.991   0.704  16.772 -0.2388  0.1556 -0.1530
16108TIP3    H169739   1.942   0.630  16.807  2.3409 -1.9353 -0.8034
16108TIP3    H269740   2.053   0.665  16.710 -0.7507  3.1504 -2.6872
16109TIP3   OH269741   6.021   6.524   0.255 -0.1828  0.2991 -0.3245
16109TIP3    H169742   6.067   6.522   0.340  0.9748  4.3271 -0.7467
16109TIP3    H269743   6.091   6.535   0.191 -1.3387  0.8404 -1.4982
16110TIP3   OH269744   0.703   3.875  14.911  0.2331  0.5488  0.1934
16110TIP3    H169745   0.681   3.805  14.850  1.0849 -0.8153  1.4209
16110TIP3    H269746   0.682   3.956  14.864  1.9871 -0.4117 -2.3691
16111TIP3   OH269747   2.334   5.945   0.722  0.4126 -0.2439  0.0320
16111TIP3    H169748   2.367   5.984   0.803  1.2442 -1.7635  0.4456
16111TIP3    H269749   2.287   6.016   0.679  2.0886  1.2857  0.6446
16112TIP3   OH269750   4.348   3.300   4.176  0.1573 -0.4504 -0.4011
16112TIP3    H169751   4.431   3.255   4.184  0.1739 -0.3894 -0.2169
16112TIP3    H269752   4.360   3.362   4.103  0.3681 -0.2346 -0.1845
16113TIP3   OH269753   1.607   0.152  10.839 -0.4141 -0.4066 -0.6534
16113TIP3    H169754   1.693   0.110  10.848 -1.3107 -1.9026  1.3055
16113TIP3    H269755   1.622   0.243  10.865  0.6298 -0.5937 -0.5702
16114TIP3   OH269756   1.936   5.802  16.308  0.1940  0.2384  0.0155
16114TIP3    H169757   2.001   5.840  16.250  0.3324  1.4987  0.9750
16114TIP3    H269758   1.920   5.869  16.374 -0.3347 -0.9582  1.1402
16115TIP3   OH269759   0.329   5.548   1.045 -0.3640 -0.7417  0.5423
16115TIP3    H169760   0.333   5.473   1.105 -0.5622 -0.2324  1.1923
16115TIP3    H269761   0.356   5.512   0.960 -0.0852 -1.4664  0.9343
16116TIP3   OH269762   2.221   4.923   5.985 -0.7627  0.1404  0.7057
16116TIP3    H169763   2.304   4.939   5.940 -0.4370  0.5921  1.4665
16116TIP3    H269764   2.189   5.011   6.007 -1.8882  0.0144 -0.3891
16117TIP3   OH269765   2.869   6.462  15.225 -0.0191 -0.3115 -0.1090
16117TIP3    H169766   2.906   6.379  15.196  0.2272 -0.0504 -0.5587
16117TIP3    H269767   2.904   6.474  15.314  1.3486  0.1336 -0.6805
16118TIP3   OH269768   2.225   4.351  11.447 -0.3430 -0.5377 -0.0850
16118TIP3    H169769   2.147   4.296  11.457 -0.4590 -0.0710  1.7393
16118TIP3    H269770   2.249   4.376  11.536 -0.4470  2.6102 -0.8790
16119TIP3   OH269771   6.111   5.408   2.906 -0.4233  0.0565 -0.1795
16119TIP3    H169772   6.055   5.472   2.862 -1.2636 -0.5177  0.0405
16119TIP3    H269773   6.088   5.415   2.998  1.0545  0.9802  0.1293
16120TIP3   OH269774   4.568   0.169  12.333 -0.0330 -0.1088  0.2904
16120TIP3    H169775   4.592   0.239  12.394 -0.4152  1.7543 -1.6317
16120TIP3    H269776   4.642   0.163  12.273 -1.7726  1.6511 -2.1359
16121TIP3   OH269777   6.614   5.473  11.837  0.0529 -0.1500 -0.7164
16121TIP3    H169778   6.684   5.488  11.774 -0.6646  0.4222 -1.3825
16121TIP3    H269779   6.554   5.413  11.794  0.3580 -1.0123  0.0320
16122TIP3   OH269780   3.339   1.332  14.643 -0.3526 -0.3487  0.3333
16122TIP3    H169781   3.245   1.350  14.648 -0.7200 -1.6741 -1.3568
16122TIP3    H269782   3.380   1.418  14.630 -1.4148  0.1251  0.1105
16123TIP3   OH269783   5.335   0.765  16.179  0.1600 -0.1149  0.1181
16123TIP3    H169784   5.390   0.694  16.146  1.2601  1.2019 -0.9226
16123TIP3    H269785   5.253   0.757  16.129  1.5136  1.3727 -2.4584
16124TIP3   OH269786   5.817   2.020  14.325  0.4465  0.4497 -0.1995
16124TIP3    H169787   5.723   2.030  14.336  0.2814  1.7641 -2.4820
16124TIP3    H269788   5.827   1.931  14.290 -0.0078  0.5497 -0.5869
16125TIP3   OH269789   0.583   6.479  16.673  0.1017 -0.0513  0.4325
16125TIP3    H169790   0.614   6.426  16.599  0.9143  0.8341  0.1228
16125TIP3    H269791   0.658   6.534  16.696  0.0289 -0.6827  2.2657
16126TIP3   OH269792   5.749   2.306  16.136  0.7079  0.7178 -0.1578
16126TIP3    H169793   5.741   2.232  16.195 -0.1038  1.5590  0.8099
16126TIP3    H269794   5.661   2.344  16.134  0.7755  0.8365 -1.7305
16127TIP3   OH269795   5.544   2.157   3.799 -0.1437 -0.2721  0.5109
16127TIP3    H169796   5.466   2.204   3.829 -0.4884 -0.1766 -0.4919
16127TIP3    H269797   5.563   2.094   3.867 -1.0213 -0.1940  0.8253
16128TIP3   OH269798   3.307   1.135   5.261  0.5208  0.5503 -0.4409
16128TIP3    H169799   3.308   1.229   5.246  1.0678  0.0860 -3.8189
16128TIP3    H269800   3.216   1.114   5.280  0.6207  1.9079  1.6057
16129TIP3   OH269801   3.678   0.606   2.469 -0.8014  0.1652 -0.3441
16129TIP3    H169802   3.627   0.530   2.441 -1.4150  0.3463  0.2761
16129TIP3    H269803   3.679   0.599   2.565 -0.4675  0.6876 -0.3111
16130TIP3   OH269804   6.586   4.462   0.334  0.7612  1.1162 -0.5998
16130TIP3    H169805   6.601   4.374   0.369  0.3467  2.2333  2.5307
16130TIP3    H269806   6.495   4.482   0.357  1.6157  3.3254  0.9897
16131TIP3   OH269807   6.149   0.923   3.013  0.2482 -0.6170 -0.6100
16131TIP3    H169808   6.103   0.881   3.086 -0.8333  0.3931 -0.6835
16131TIP3    H269809   6.079   0.960   2.959  1.1042 -0.1297 -1.4017
16132TIP3   OH269810   4.600   0.648   2.071  0.1864 -0.1014 -0.2388
16132TIP3    H169811   4.571   0.636   1.980 -0.9234  0.2212  0.0603
16132TIP3    H269812   4.525   0.622   2.124  0.9928 -0.7363  0.6104
16133TIP3   OH269813   3.269   4.138   0.419 -0.8047 -0.9095 -0.0827
16133TIP3    H169814   3.263   4.120   0.325  0.8950 -1.5713 -0.0819
16133TIP3    H269815   3.344   4.085   0.449 -0.1763  0.7043  1.2830
16134TIP3   OH269816   2.414   1.769   2.595  0.1249  0.3911 -0.2307
16134TIP3    H169817   2.414   1.865   2.591  1.1825  0.3459 -2.0165
16134TIP3    H269818   2.434   1.742   2.505 -1.1259 -1.5263  0.0399
16135TIP3   OH269819   0.185   2.050  16.184  0.4691  0.2867 -0.6709
16135TIP3    H169820   0.194   1.985  16.254  2.8175  0.7046 -0.5718
16135TIP3    H269821   0.091   2.070  16.183 -0.1828 -2.5033 -0.1800
16136TIP3   OH269822   2.105   1.753  16.626  0.0647 -0.0434  0.1301
16136TIP3    H169823   2.021   1.739  16.583  0.2662  0.1418 -0.3371
16136TIP3    H269824   2.085   1.756  16.719 -0.4197 -0.1670  0.0299
16137TIP3   OH269825   4.786   4.159  13.391 -0.0515  0.3368  0.0895
16137TIP3    H169826   4.747   4.116  13.315 -0.5011  0.3246  0.3212
16137TIP3    H269827   4.735   4.125  13.465  0.7256 -0.0544  0.4491
16138TIP3   OH269828   1.724   1.682   4.304  0.2297 -0.5124 -0.5376
16138TIP3    H169829   1.663   1.673   4.230 -1.0030 -4.4601  0.8212
16138TIP3    H269830   1.797   1.626   4.282  1.8408  1.5248 -0.5558
16139TIP3   OH269831   4.289   0.469  13.450  0.3584 -0.2286  0.5770
16139TIP3    H169832   4.263   0.494  13.539 -1.9195  1.4377 -0.4985
16139TIP3    H269833   4.207   0.470  13.400  1.9127  1.1819 -2.0483
16140TIP3   OH269834   5.278   4.457   0.861  0.5752 -0.1845  0.3302
16140TIP3    H169835   5.213   4.526   0.844  0.5084 -0.4501 -0.4882
16140TIP3    H269836   5.231   4.375   0.845  0.5540 -0.4428  1.6599
16141TIP3   OH269837   1.768   2.770  13.140  0.0754  0.2764  0.0389
16141TIP3    H169838   1.682   2.729  13.128 -0.3005  0.2239  2.5232
16141TIP3    H269839   1.747   2.861  13.162  0.5749 -0.0866  2.0941
16142TIP3   OH269840   0.737   4.186   4.424 -0.4642 -0.2661 -0.3384
16142TIP3    H169841   0.652   4.215   4.457  0.8554  0.9157  2.1164
16142TIP3    H269842   0.796   4.260   4.440  0.8745 -0.7431 -2.7763
16143TIP3   OH269843   3.270   3.784  16.530  0.0785  0.6360 -0.1471
16143TIP3    H169844   3.358   3.780  16.565  0.0963  0.0360 -0.2492
16143TIP3    H269845   3.258   3.875  16.505  0.8120  0.6390 -0.5009
16144TIP3   OH269846   1.867   6.559   5.513  0.6074 -0.6455  0.6362
16144TIP3    H169847   1.938   6.553   5.578  0.8029 -1.0148  0.3950
16144TIP3    H269848   1.824   6.642   5.532  0.3320 -0.9953  1.5807
16145TIP3   OH269849   1.626   0.413   3.409 -0.4054  0.5339  0.0746
16145TIP3    H169850   1.684   0.456   3.472  0.7605 -0.6235 -0.1943
16145TIP3    H269851   1.539   0.426   3.445  0.2652 -0.4619  2.1476
16146TIP3   OH269852   3.511   5.101   0.909  0.3181 -0.4977  0.0708
16146TIP3    H169853   3.507   5.139   0.821 -0.2383 -0.0647  0.2803
16146TIP3    H269854   3.489   5.008   0.896 -0.3120 -0.3181 -0.1773
16147TIP3   OH269855   3.993   5.804  14.074 -0.0798 -0.1023  0.1709
16147TIP3    H169856   4.025   5.832  13.988 -0.7095  0.6059  0.1614
16147TIP3    H269857   3.950   5.720  14.058  0.0530 -0.1078 -0.1567
16148TIP3   OH269858   5.131   2.537  14.244  0.1316  0.3937  0.3193
16148TIP3    H169859   5.101   2.572  14.328  1.3145  0.1776  0.8465
16148TIP3    H269860   5.220   2.571  14.235 -0.2398  1.0074 -1.1948
16149TIP3   OH269861   0.694   1.090  15.687 -0.3538  0.1382  0.1934
16149TIP3    H169862   0.697   1.153  15.615  1.9723  0.6627  0.7134
16149TIP3    H269863   0.639   1.133  15.753  1.2711  1.7168  0.5734
16150TIP3   OH269864   1.992   1.807  14.976 -0.0424 -0.2847  0.0126
16150TIP3    H169865   1.929   1.777  14.911  0.4495 -1.7192  0.1883
16150TIP3    H269866   1.984   1.903  14.975 -1.4749 -0.4023 -0.7008
16151TIP3   OH269867   6.696   1.177  12.654 -0.1943  0.3054 -0.1086
16151TIP3    H169868   6.651   1.241  12.710 -1.0166 -1.0271  0.7855
16151TIP3    H269869   6.708   1.101  12.711 -1.1716 -1.1342 -1.7852
16152TIP3   OH269870   2.684   4.543   4.181 -0.2859  0.4620  0.1542
16152TIP3    H169871   2.636   4.584   4.252 -0.1358  0.4602  0.2564
16152TIP3    H269872   2.619   4.529   4.112 -0.2606  1.2185 -0.0258
16153TIP3   OH269873   2.805   5.755  14.298  0.2074  0.0594  0.2812
16153TIP3    H169874   2.722   5.732  14.255  0.0641 -2.2367  1.6755
16153TIP3    H269875   2.789   5.737  14.390  1.4317  2.1711  0.9330
16154TIP3   OH269876   6.418   5.663   1.405  0.3963  0.1861 -1.0597
16154TIP3    H169877   6.441   5.745   1.361  1.4874  0.4739  0.0166
16154TIP3    H269878   6.497   5.609   1.397 -0.8846 -1.4667 -3.3042
16155TIP3   OH269879   2.528   2.217  16.247 -0.2441 -0.1342 -0.2519
16155TIP3    H169880   2.467   2.196  16.317  0.1120 -0.2537  0.0241
16155TIP3    H269881   2.526   2.141  16.189  0.8803 -0.8468  0.6263
16156TIP3   OH269882   0.835   5.399   5.202  0.4443  0.6428 -0.3742
16156TIP3    H169883   0.810   5.453   5.126  0.4430  2.0992  0.6421
16156TIP3    H269884   0.761   5.406   5.262  0.7184  0.0167  0.0421
16157TIP3   OH269885   3.354   0.247  11.362 -0.2956 -0.1624  0.1226
16157TIP3    H169886   3.344   0.252  11.267  1.5844  1.1766 -0.0393
16157TIP3    H269887   3.279   0.197  11.392 -1.3488  0.1180 -1.9949
16158TIP3   OH269888   0.936   6.157   5.411 -0.2993  0.1241  0.2140
16158TIP3    H169889   0.907   6.244   5.437 -0.3149  0.3129 -0.4360
16158TIP3    H269890   0.912   6.150   5.318 -2.4114 -1.4567  0.8325
16159TIP3   OH269891   3.730   1.182   2.481 -0.2664  0.4501  0.0534
16159TIP3    H169892   3.737   1.276   2.499 -0.0139  0.9429 -2.5038
16159TIP3    H269893   3.639   1.169   2.456 -0.6138 -0.2273  1.6375
16160TIP3   OH269894   2.516   0.049   3.884 -0.3693 -0.1558 -0.1999
16160TIP3    H169895   2.447  -0.007   3.849  1.5570 -2.3452 -0.6542
16160TIP3    H269896   2.513   0.127   3.830 -1.9732 -0.5387 -0.7027
16161TIP3   OH269897   4.285   2.955   3.211  0.3801 -0.1370  0.0411
16161TIP3    H169898   4.321   2.939   3.123 -0.2827 -2.3836  0.1506
16161TIP3    H269899   4.362   2.971   3.266  0.8392  0.6036 -0.7917
16162TIP3   OH269900   1.363   6.131  12.170 -0.4655  0.1065  0.3238
16162TIP3    H169901   1.341   6.055  12.223 -0.1028  0.3047  0.7635
16162TIP3    H269902   1.334   6.206  12.221  0.0123  0.3049  0.3136
16163TIP3   OH269903   3.006   2.231   5.290  0.2281  0.0506 -0.0593
16163TIP3    H169904   3.085   2.178   5.282 -0.8512 -1.4533 -1.1439
16163TIP3    H269905   3.026   2.294   5.359  1.6248 -1.6327  1.1244
16164TIP3   OH269906   1.532   0.813  15.831 -0.1045  0.2376  0.2162
16164TIP3    H169907   1.586   0.745  15.871 -1.4503  0.3218  2.2123
16164TIP3    H269908   1.585   0.893  15.837 -0.0200  0.1086  1.2257
16165TIP3   OH269909   4.291   1.463   4.926 -0.0510  0.1191  0.2168
16165TIP3    H169910   4.211   1.424   4.890  0.2169  0.5567 -0.8863
16165TIP3    H269911   4.260   1.531   4.985 -0.5159  1.6143 -1.6888
16166TIP3   OH269912   3.395   1.058   0.129 -0.2648 -0.2039  0.0111
16166TIP3    H169913   3.306   1.058   0.094  0.5877 -1.4453 -2.2840
16166TIP3    H269914   3.448   1.095   0.059  1.1299 -0.0643  1.1165
16167TIP3   OH269915   6.743   4.314  16.905 -0.2091  0.2125 -0.0711
16167TIP3    H169916   6.685   4.277  16.838 -0.3307  0.2764 -0.0020
16167TIP3    H269917   6.728   4.409  16.900  2.4364  0.5637 -2.4128
16168TIP3   OH269918   4.504   1.489   3.799  0.5770  0.3040 -0.3696
16168TIP3    H169919   4.524   1.484   3.892 -0.3336  1.0883 -0.1290
16168TIP3    H269920   4.463   1.405   3.779  1.3027 -0.0987 -0.2015
16169TIP3   OH269921   3.387   4.355  14.169 -0.6185 -0.0812  0.2807
16169TIP3    H169922   3.479   4.354  14.145 -0.0954  0.2623  2.1632
16169TIP3    H269923   3.378   4.285  14.234 -1.6725 -0.0977  0.1359
16170TIP3   OH269924   0.476   5.034   3.818 -0.0842 -0.1518 -0.8021
16170TIP3    H169925   0.555   5.088   3.817  0.2635 -0.6613 -1.2492
16170TIP3    H269926   0.508   4.944   3.826 -0.4375 -0.6247 -3.8219
16171TIP3   OH269927   1.443   6.546   2.517  0.6911 -0.2840  0.2023
16171TIP3    H169928   1.370   6.605   2.494 -2.2208 -3.6111  0.4707
16171TIP3    H269929   1.519   6.584   2.474 -1.6900  1.9648 -2.1985
16172TIP3   OH269930   4.277   4.582   7.111  0.0474  0.0807 -0.1318
16172TIP3    H169931   4.293   4.529   7.033  2.7526 -0.1404  0.5426
16172TIP3    H269932   4.207   4.642   7.085  1.3143  0.4222 -2.9437
16173TIP3   OH269933   4.658   3.721  14.241  0.4730  0.1664 -0.3753
16173TIP3    H169934   4.653   3.801  14.294 -2.7317 -0.4016  0.3058
16173TIP3    H269935   4.656   3.753  14.150  2.1031  0.9614 -0.1485
16174TIP3   OH269936   0.817   1.614   4.108 -0.0572 -0.6457  0.2123
16174TIP3    H169937   0.895   1.598   4.163 -0.7256 -1.1978  1.0280
16174TIP3    H269938   0.763   1.536   4.121 -1.1529  0.1231  0.3476
16175TIP3   OH269939   5.694   3.747  14.145  0.0742  0.0321  0.2697
16175TIP3    H169940   5.728   3.831  14.178 -0.4515  0.5142 -0.3978
16175TIP3    H269941   5.613   3.733  14.193  1.3003 -1.2178  2.0082
16176TIP3   OH269942   5.696   5.719   1.980 -0.2352  0.1470 -0.2759
16176TIP3    H169943   5.696   5.626   2.005 -1.8467 -0.0615 -0.9929
16176TIP3    H269944   5.788   5.745   1.988  0.3311 -1.6493 -0.5670
16177TIP3   OH269945   1.306   4.701   0.352  0.0635 -0.2611 -0.4486
16177TIP3    H169946   1.310   4.763   0.424  0.7499 -0.9039  0.0751
16177TIP3    H269947   1.393   4.663   0.348 -0.2220 -0.8593 -1.0505
16178TIP3   OH269948   6.417   6.664  11.756  0.4770 -0.3914  0.4816
16178TIP3    H169949   6.453   6.709  11.680  0.8959 -0.6195  0.5402
16178TIP3    H269950   6.444   6.717  11.831 -1.5256  0.8625  0.3590
16179TIP3   OH269951   6.331   6.695   4.161  0.0489  0.4951 -0.3270
16179TIP3    H169952   6.263   6.630   4.144 -1.2552  2.1535 -1.6039
16179TIP3    H269953   6.412   6.643   4.166 -1.0567 -1.3115 -0.5234
16180TIP3   OH269954   4.838   0.265   3.033  0.7708 -0.2888 -0.1755
16180TIP3    H169955   4.865   0.192   3.088 -1.7420 -0.9107  0.2762
16180TIP3    H269956   4.881   0.250   2.949  0.5856 -2.0821  0.0426
16181TIP3   OH269957   4.246   0.312  16.115 -0.4344 -0.2852  0.2345
16181TIP3    H169958   4.180   0.318  16.045  2.4242  1.8349 -2.3845
16181TIP3    H269959   4.246   0.398  16.156  0.3375 -0.4503  0.5887
16182TIP3   OH269960   4.972   0.994  16.223  0.7550  0.2988  0.5187
16182TIP3    H169961   5.061   1.002  16.258 -0.0929  2.4224  2.3143
16182TIP3    H269962   4.929   1.075  16.249 -1.7909 -0.8102 -0.1239
16183TIP3   OH269963   0.199   4.201  10.885 -0.4789  0.0608 -0.0763
16183TIP3    H169964   0.120   4.253  10.870  0.8802  1.9420 -1.0724
16183TIP3    H269965   0.242   4.198  10.800  0.5991 -0.8121  0.4843
16184TIP3   OH269966   5.786   3.884  12.051  0.2426 -0.1643  0.2861
16184TIP3    H169967   5.833   3.902  12.133 -0.0698 -0.3206  0.5015
16184TIP3    H269968   5.743   3.967  12.030  2.2472  0.5884 -0.9938
16185TIP3   OH269969   6.224   4.399   3.130 -0.1172  0.3411 -0.4504
16185TIP3    H169970   6.185   4.394   3.043  1.4376 -2.4054 -1.0605
16185TIP3    H269971   6.318   4.406   3.113  0.1760  0.0082  1.0059
16186TIP3   OH269972   0.355   6.767  16.957 -0.2336  0.3716 -0.5435
16186TIP3    H169973   0.444   6.768  16.993 -0.0941 -0.2306 -0.8558
16186TIP3    H269974   0.363   6.720  16.875 -0.7173  0.9657 -0.9319
16187TIP3   OH269975   6.664   4.008  11.459  0.9311  0.1544 -0.1349
16187TIP3    H169976   6.590   4.037  11.406  1.0562  0.0201 -0.3866
16187TIP3    H269977   6.718   4.086  11.469  0.6727  0.2925  0.1880
16188TIP3   OH269978   0.531   0.361   5.228  0.5934  0.1817 -0.7601
16188TIP3    H169979   0.445   0.398   5.249  0.1590 -0.2905 -1.7211
16188TIP3    H269980   0.588   0.395   5.297 -0.6427 -0.6165  0.6851
16189TIP3   OH269981   6.421   5.686  10.887 -0.2358 -0.0857 -0.8996
16189TIP3    H169982   6.338   5.652  10.921  0.9869 -2.0811  0.1473
16189TIP3    H269983   6.397   5.726  10.803 -2.6221  1.3796  0.4340
16190TIP3   OH269984   2.529   4.076   4.751 -0.1731 -0.1709  0.4094
16190TIP3    H169985   2.610   4.092   4.702  0.5778 -2.9556  0.6495
16190TIP3    H269986   2.459   4.081   4.686  0.3403  0.6630 -0.0886
16191TIP3   OH269987   1.626   5.994  12.788 -0.4221  0.3806  0.1237
16191TIP3    H169988   1.713   5.955  12.777 -0.6293  0.1820 -0.9298
16191TIP3    H269989   1.566   5.932  12.745 -0.8121  1.5964 -1.1393
16192TIP3   OH269990   6.367   2.533   0.622  0.5599 -0.3520 -0.0687
16192TIP3    H169991   6.437   2.489   0.575  0.5293 -0.4260 -0.0443
16192TIP3    H269992   6.411   2.585   0.689  0.6270  0.0295 -0.4039
16193TIP3   OH269993   2.604   6.192  15.444 -0.0364  0.7911 -0.5917
16193TIP3    H169994   2.587   6.098  15.444  0.9158  0.6140 -1.1744
16193TIP3    H269995   2.664   6.206  15.371  0.3452  1.7580 -0.1068
16194TIP3   OH269996   6.192   2.305  12.857 -0.5034  0.0344  0.1502
16194TIP3    H169997   6.256   2.241  12.826 -0.1445  0.3153  0.3167
16194TIP3    H269998   6.107   2.263  12.842 -0.3248  0.0757 -1.0331
16195TIP3   OH269999   0.611   0.546  13.456  0.0603 -0.3255 -0.2023
16195TIP3    H170000   0.697   0.505  13.449 -0.4981 -1.5740  0.0652
16195TIP3    H270001   0.625   0.637  13.429  1.5683 -0.3757  0.3533
16196TIP3   OH270002   2.239   5.596   4.501 -0.3554  0.1169 -0.1246
16196TIP3    H170003   2.163   5.642   4.537 -0.3047  0.8346 -0.9104
16196TIP3    H270004   2.297   5.583   4.576 -2.1118 -2.2230  0.8939
16197TIP3   OH270005   4.652   1.596   4.774 -0.3623  0.4041  0.0002
16197TIP3    H170006   4.670   1.597   4.868  0.5933 -0.0747 -0.1701
16197TIP3    H270007   4.585   1.663   4.762  0.9497  1.8760  0.7250
16198TIP3   OH270008   2.629   0.999   5.193 -0.1351  0.3178 -0.3524
16198TIP3    H170009   2.605   1.075   5.141  0.9902 -0.3924 -1.9389
16198TIP3    H270010   2.692   1.033   5.258  1.7828  0.4369 -2.2221
16199TIP3   OH270011   4.571   4.304  11.655 -0.1369  0.1804 -0.1052
16199TIP3    H170012   4.520   4.314  11.736 -0.2877  2.5470 -0.4586
16199TIP3    H270013   4.660   4.326  11.680  0.2295 -1.2112 -0.1259
16200TIP3   OH270014   2.160   1.142   2.105 -0.1283 -0.5693 -0.2061
16200TIP3    H170015   2.205   1.116   2.185 -0.8481  1.9715  1.0909
16200TIP3    H270016   2.071   1.165   2.133 -0.2492  0.8156 -1.6231
16201TIP3   OH270017   0.941   2.945  14.876  0.2010 -0.2224  0.2398
16201TIP3    H170018   1.014   2.969  14.819  0.5732 -1.4543  0.1729
16201TIP3    H270019   0.918   2.855  14.849 -1.7801  0.3858 -0.2080
16202TIP3   OH270020   4.938   5.017   4.956 -0.0502  0.1073  0.4462
16202TIP3    H170021   4.916   4.934   4.996  1.6317 -0.3490  0.4404
16202TIP3    H270022   4.950   5.077   5.029 -1.3233  0.3837  0.4488
16203TIP3   OH270023   4.654   5.703  13.057 -0.4798  0.1646  0.2150
16203TIP3    H170024   4.579   5.763  13.057  0.2038  1.0434 -0.4153
16203TIP3    H270025   4.615   5.616  13.050 -1.4270  0.6451 -0.6955
16204TIP3   OH270026   1.353   0.715   1.503  0.6476  0.0556  0.0997
16204TIP3    H170027   1.298   0.793   1.497 -0.7586 -0.8673  0.6908
16204TIP3    H270028   1.417   0.736   1.570  1.2758  1.3001 -0.8812
16205TIP3   OH270029   3.409   1.817  16.894 -0.5451  0.2203 -0.1088
16205TIP3    H170030   3.409   1.892  16.835  1.1000 -0.2599 -0.7617
16205TIP3    H270031   3.443   1.851  16.976  1.2178 -0.0330 -0.7238
16206TIP3   OH270032   2.380   6.044   0.980  0.0725  0.0221 -0.6589
16206TIP3    H170033   2.328   6.119   1.010  0.1797 -0.3023  0.3561
16206TIP3    H270034   2.471   6.070   0.997  0.2061  0.2794 -1.7310
16207TIP3   OH270035   5.201   2.217   3.339 -0.0934  0.2373  0.0042
16207TIP3    H170036   5.121   2.269   3.329 -0.1481  0.2938  0.7007
16207TIP3    H270037   5.216   2.213   3.434  0.7063  0.1922 -0.1155
16208TIP3   OH270038   5.569   3.323   4.648 -0.5425 -0.6174  0.0256
16208TIP3    H170039   5.496   3.297   4.592 -1.9853  1.2969  0.9497
16208TIP3    H270040   5.531   3.326   4.736  0.0980  2.3303  0.2458
16209TIP3   OH270041   1.318   6.656  14.940  0.6762 -0.2437 -0.3015
16209TIP3    H170042   1.410   6.641  14.960  0.5631  0.2685  0.6370
16209TIP3    H270043   1.317   6.736  14.888  0.6058  0.8696  1.3685
16210TIP3   OH270044   2.784   3.822  15.443  0.3345  0.3413 -0.3676
16210TIP3    H170045   2.740   3.882  15.384  1.3430  1.4263 -0.0312
16210TIP3    H270046   2.822   3.755  15.386  0.1445  0.6310 -0.8301
16211TIP3   OH270047   4.540   1.768   4.550 -0.4092 -0.0825  0.2005
16211TIP3    H170048   4.467   1.734   4.603  1.1186 -1.2730  1.6393
16211TIP3    H270049   4.564   1.695   4.493  0.8368 -0.4003  1.0763
16212TIP3   OH270050   1.392   2.023   3.082  0.2460  0.0043 -0.0124
16212TIP3    H170051   1.312   1.971   3.087  1.2109 -1.7545 -2.1679
16212TIP3    H270052   1.459   1.969   3.125  0.6872  0.6399  0.1109
16213TIP3   OH270053   6.627   6.259  12.258 -0.4228  0.1465 -0.5817
16213TIP3    H170054   6.568   6.327  12.225  0.6138  1.1376 -0.4495
16213TIP3    H270055   6.614   6.185  12.199 -2.3294  0.0943 -0.1042
16214TIP3   OH270056   2.727   6.703   3.270 -0.3351 -0.0197 -0.0236
16214TIP3    H170057   2.664   6.767   3.303 -0.2068 -0.1488  0.4749
16214TIP3    H270058   2.740   6.643   3.343  0.6567  0.2216  0.0001
16215TIP3   OH270059   3.570   1.304   4.546 -0.3747 -0.4135  0.3146
16215TIP3    H170060   3.573   1.379   4.487 -1.7321  0.3699  1.2306
16215TIP3    H270061   3.636   1.244   4.511  0.8061  1.2435 -0.3635
16216TIP3   OH270062   5.281   4.728   1.573 -0.2248  0.3698  0.3561
16216TIP3    H170063   5.330   4.755   1.495 -0.7145 -0.4267 -0.2337
16216TIP3    H270064   5.347   4.689   1.631 -0.3846 -2.1917 -1.1179
16217TIP3   OH270065   3.241   4.540  11.808  0.4478 -0.3954 -0.1289
16217TIP3    H170066   3.195   4.503  11.732  0.2758  1.9614 -1.2250
16217TIP3    H270067   3.179   4.531  11.880 -0.3898 -0.3692 -0.8357
16218TIP3   OH270068   5.390   0.557   4.062  0.1479 -0.1296 -0.1482
16218TIP3    H170069   5.327   0.556   3.990 -1.1580  1.9072  0.8996
16218TIP3    H270070   5.461   0.499   4.034 -0.6347  0.1379 -2.7839
16219TIP3   OH270071   3.171   6.382  16.440 -0.7048  0.5084  0.4405
16219TIP3    H170072   3.161   6.477  16.439 -0.5042  0.5294 -0.1569
16219TIP3    H270073   3.092   6.349  16.397 -0.2328  0.4663 -0.4132
16220TIP3   OH270074   2.215   5.119  15.522  0.0809  0.2340  0.0727
16220TIP3    H170075   2.284   5.107  15.587  0.7865  0.0188 -0.7148
16220TIP3    H270076   2.134   5.114  15.573  0.6736  2.1129  1.2706
16221TIP3   OH270077   2.945   2.904  11.870  1.1754 -0.0349  0.2687
16221TIP3    H170078   2.954   2.820  11.825  0.0243 -0.1374  0.2218
16221TIP3    H270079   2.909   2.963  11.804  0.1808  0.0035  0.8342
16222TIP3   OH270080   4.341   0.333   0.550  0.4298 -0.3257 -0.9659
16222TIP3    H170081   4.277   0.362   0.484 -0.7876  0.0818  0.3632
16222TIP3    H270082   4.315   0.242   0.569 -1.3886  0.6301  1.4177
16223TIP3   OH270083   5.356   1.848  15.820  0.2877 -0.3731  0.2340
16223TIP3    H170084   5.398   1.771  15.782  0.5059 -0.2145  0.1479
16223TIP3    H270085   5.412   1.921  15.793  0.4879 -0.2683  0.9359
16224TIP3   OH270086   6.323   2.351  13.386 -0.6143 -0.4012  0.1162
16224TIP3    H170087   6.313   2.283  13.319  0.8926 -2.2000  1.6656
16224TIP3    H270088   6.342   2.431  13.336 -2.8258 -0.9856 -1.7463
16225TIP3   OH270089   1.871   4.825   4.025 -1.4294 -0.4559 -0.6053
16225TIP3    H170090   1.958   4.822   4.065 -1.9723  0.6824  0.6942
16225TIP3    H270091   1.836   4.737   4.038 -0.9769 -0.5476  0.0245
16226TIP3   OH270092   0.543   0.100  12.899  0.4996 -0.1192  0.4540
16226TIP3    H170093   0.477   0.151  12.947 -2.7304 -1.9719 -1.7928
16226TIP3    H270094   0.559   0.024  12.956  0.2799  0.0710  0.7739
16227TIP3   OH270095   1.585   6.052  16.063  0.6730  0.5961 -0.0081
16227TIP3    H170096   1.524   6.021  15.996  0.6423 -1.4529  0.9157
16227TIP3    H270097   1.628   6.128  16.024 -0.6074  0.4914 -1.6629
16228TIP3   OH270098   6.551   2.282   2.059 -0.2696  0.2577 -0.5769
16228TIP3    H170099   6.498   2.270   2.138 -1.1192 -1.7101 -1.4076
16228TIP3    H270100   6.636   2.244   2.081 -0.8057 -1.1611 -0.9031
16229TIP3   OH270101   4.963   4.605   0.376  0.0383 -0.3200  0.0086
16229TIP3    H170102   4.961   4.557   0.460  0.0874 -0.3821 -0.0257
16229TIP3    H270103   4.944   4.695   0.400 -1.8778 -0.6564 -0.1349
16230TIP3   OH270104   0.046   2.815  15.329 -0.5570  0.5607  0.1023
16230TIP3    H170105   0.038   2.720  15.337  1.2488  0.3352 -0.4683
16230TIP3    H270106  -0.007   2.850  15.401 -0.2010 -0.9242  1.1054
16231TIP3   OH270107   2.067   6.743   5.881 -0.0832 -0.2457 -0.3349
16231TIP3    H170108   1.973   6.738   5.902 -0.1514 -1.2689 -0.8335
16231TIP3    H270109   2.110   6.694   5.951  0.1714  1.1212  0.4651
16232TIP3   OH270110   1.991   0.850   5.459 -0.5403 -0.1158  0.5233
16232TIP3    H170111   1.900   0.877   5.446 -1.2237 -3.6057 -2.6342
16232TIP3    H270112   2.039   0.895   5.390 -0.8299 -2.6513 -1.3757
16233TIP3   OH270113   2.487   6.270  16.282  0.4538  0.8300  0.0310
16233TIP3    H170114   2.547   6.329  16.327 -0.4233 -0.2484  2.7282
16233TIP3    H270115   2.508   6.183  16.316 -0.3063 -0.0176 -1.5912
16234TIP3   OH270116   1.596   1.757  15.918  0.7308  0.6829 -0.2047
16234TIP3    H170117   1.542   1.779  15.993  1.0419  3.1659 -0.6538
16234TIP3    H270118   1.536   1.715  15.856 -0.3014  1.7702  0.0422
16235TIP3   OH270119   1.919   0.203   1.520  0.2165 -0.1376  0.1067
16235TIP3    H170120   1.845   0.152   1.552  0.2577  0.7144  1.6224
16235TIP3    H270121   1.981   0.203   1.593  0.2023  2.0625  0.1430
16236TIP3   OH270122   6.510   5.833   5.739 -0.4115  0.1960 -0.4369
16236TIP3    H170123   6.563   5.799   5.811 -0.6379  1.7046  0.4471
16236TIP3    H270124   6.435   5.774   5.734  0.6395 -1.1657 -0.8353
16237TIP3   OH270125   0.981   0.538   3.113 -0.2007  0.6142 -0.1673
16237TIP3    H170126   0.967   0.445   3.127 -1.1799  0.8842  0.7146
16237TIP3    H270127   1.038   0.543   3.037  2.2926 -0.7880  1.5452
16238TIP3   OH270128   3.350   4.490   3.154  0.1941 -0.9031 -0.0483
16238TIP3    H170129   3.384   4.427   3.218 -0.1133 -0.1879  0.8331
16238TIP3    H270130   3.383   4.575   3.184  0.6708 -0.6529 -1.2780
16239TIP3   OH270131   3.007   5.778  11.193  0.3065 -0.7215 -0.2661
16239TIP3    H170132   3.088   5.791  11.142 -0.7788 -3.0923 -2.7637
16239TIP3    H270133   2.954   5.855  11.173  0.6721 -0.6980 -1.2189
16240TIP3   OH270134   0.901   1.439   4.620 -1.0269 -0.2474 -0.3559
16240TIP3    H170135   0.930   1.361   4.666  0.2937  0.4345  0.0031
16240TIP3    H270136   0.849   1.487   4.684  1.7494  1.2631  0.8832
16241TIP3   OH270137   2.603   2.721   5.992  0.2123  0.3247 -0.4196
16241TIP3    H170138   2.607   2.812   5.962  1.7530  0.5229  0.3102
16241TIP3    H270139   2.694   2.699   6.013 -0.0964 -1.5026 -0.9122
16242TIP3   OH270140   4.354   3.923  16.617  0.0183  0.7222 -0.0227
16242TIP3    H170141   4.327   3.905  16.527  1.0210 -2.5783  0.2527
16242TIP3    H270142   4.276   3.959  16.659 -1.4228 -0.6884 -1.4248
16243TIP3   OH270143   3.408   1.857   2.935  0.3421  0.3187 -0.3807
16243TIP3    H170144   3.461   1.871   2.856  1.9704 -1.0459  0.4416
16243TIP3    H270145   3.455   1.789   2.984 -2.3316 -1.1464  0.2423
16244TIP3   OH270146   1.670   2.875   1.268 -0.0322  0.9567 -0.1804
16244TIP3    H170147   1.764   2.870   1.286  0.1761  1.9179 -0.9490
16244TIP3    H270148   1.631   2.805   1.321  1.1937  0.1167 -0.3770
16245TIP3   OH270149   2.022   2.887   5.223 -0.1725  0.0674  0.2248
16245TIP3    H170150   2.012   2.823   5.293 -5.3169  0.7862  0.3480
16245TIP3    H270151   2.043   2.969   5.268  1.2551 -0.4106  0.4703
16246TIP3   OH270152   2.816   2.469  17.049 -0.1060  0.0010 -0.4948
16246TIP3    H170153   2.824   2.374  17.041  1.7656  0.1283 -0.3376
16246TIP3    H270154   2.902   2.502  17.024 -0.5014  1.6045  0.2302
16247TIP3   OH270155   5.823   0.331  16.615  0.1939 -0.0712  0.1119
16247TIP3    H170156   5.803   0.327  16.522  0.9783 -0.0425 -0.0556
16247TIP3    H270157   5.781   0.254  16.652 -1.4324  0.7358 -0.0203
16248TIP3   OH270158   3.358   6.589  14.846  0.2562  0.3299 -0.0584
16248TIP3    H170159   3.315   6.549  14.770 -0.0133 -0.5031  0.5274
16248TIP3    H270160   3.339   6.683  14.837 -1.8115 -0.0353  0.2673
16249TIP3   OH270161   3.731   0.588   1.352 -0.2018 -0.2868 -0.4143
16249TIP3    H170162   3.725   0.592   1.447  2.1433  0.1472 -0.2509
16249TIP3    H270163   3.699   0.673   1.322 -2.1121 -0.8725 -0.1215
16250TIP3   OH270164   3.306   5.782   3.497 -0.4695  0.2685  0.7119
16250TIP3    H170165   3.217   5.749   3.510 -1.3818  3.0550  1.7311
16250TIP3    H270166   3.308   5.810   3.405  0.1886 -2.0959 -0.0461
16251TIP3   OH270167   3.551   5.164   2.787  0.5204 -0.2469  0.7433
16251TIP3    H170168   3.470   5.209   2.763 -0.4189 -0.9642  2.3902
16251TIP3    H270169   3.579   5.119   2.707 -0.4553  0.4085  0.0312
16252TIP3   OH270170   2.704   6.272   3.287 -0.2774 -0.4470  0.4710
16252TIP3    H170171   2.741   6.332   3.222 -0.2304 -0.5564  0.3979
16252TIP3    H270172   2.612   6.264   3.262 -0.5107  0.3357  1.0295
16253TIP3   OH270173   1.719   3.611  15.987  0.1224  0.3220 -0.2337
16253TIP3    H170174   1.813   3.598  15.973  0.4016  1.9524  0.0212
16253TIP3    H270175   1.711   3.703  16.013 -1.4508 -0.0273  0.5979
16254TIP3   OH270176   1.109   5.260  16.054  0.0297  0.6757  0.0572
16254TIP3    H170177   1.099   5.228  16.144  2.3097  2.4755  1.0113
16254TIP3    H270178   1.141   5.185  16.005  3.2618  0.8536  1.7928
16255TIP3   OH270179   6.039   2.617   2.469 -0.0919 -0.2354  0.1344
16255TIP3    H170180   6.076   2.703   2.448 -0.2560 -0.8168 -2.8328
16255TIP3    H270181   5.947   2.624   2.442 -0.2909 -1.1130  0.5777
16256TIP3   OH270182   3.349   3.802   2.058  0.2310  0.0229 -0.0140
16256TIP3    H170183   3.443   3.811   2.073  0.2718 -0.9371  0.3368
16256TIP3    H270184   3.310   3.809   2.145 -0.0982  1.3570 -0.2723
16257TIP3   OH270185   0.710   6.371   5.022 -0.2998  0.1383  0.0059
16257TIP3    H170186   0.711   6.291   5.074 -2.3818 -1.0732 -1.7342
16257TIP3    H270187   0.799   6.379   4.988  0.4794 -0.2497  1.9179
16258TIP3   OH270188   2.957   2.618   5.760  0.8068 -0.6681  0.1789
16258TIP3    H170189   2.955   2.658   5.846 -1.0993 -0.5198  0.0879
16258TIP3    H270190   3.015   2.674   5.708  1.4148 -0.3765  1.1649
16259TIP3   OH270191   3.289   0.719  16.594  0.1309  0.5092 -0.0935
16259TIP3    H170192   3.357   0.774  16.557 -1.2944  2.4520  0.0864
16259TIP3    H270193   3.291   0.738  16.688  1.5844 -1.9835  0.4119
16260TIP3   OH270194   2.807   4.668  12.812 -0.1951  0.0712 -0.6382
16260TIP3    H170195   2.753   4.695  12.737 -2.1619  1.1695  1.1039
16260TIP3    H270196   2.745   4.625  12.871  1.5379 -1.7147 -0.0918
16261TIP3   OH270197   3.989   3.538  13.239 -0.3122  0.3241  0.6312
16261TIP3    H170198   3.967   3.506  13.152  0.2675  2.7661 -0.4423
16261TIP3    H270199   3.912   3.588  13.267 -0.3887 -0.2188  1.4121
16262TIP3   OH270200   3.902   2.289  12.321 -0.3037  0.1373  0.0147
16262TIP3    H170201   3.872   2.235  12.248  1.6300 -1.6375  0.4688
16262TIP3    H270202   3.822   2.323  12.361 -1.4634 -0.5489 -1.6804
16263TIP3   OH270203   1.266   2.603  16.165  0.5180 -0.0257  0.0439
16263TIP3    H170204   1.192   2.656  16.137 -0.2841 -0.2963  1.5851
16263TIP3    H270205   1.236   2.512  16.155  1.0642 -0.1546 -0.4397
16264TIP3   OH270206   3.920   5.940   1.705  0.3782 -0.1643 -0.1183
16264TIP3    H170207   3.947   5.961   1.615  0.3311  1.3350  0.2100
16264TIP3    H270208   3.979   5.990   1.760  1.4145 -2.2695  0.7474
16265TIP3   OH270209   0.177   1.041  14.183  0.1504 -0.0221 -0.4287
16265TIP3    H170210   0.267   1.033  14.153  0.1441 -0.6826 -0.2677
16265TIP3    H270211   0.184   1.077  14.272  0.2337  0.3750 -0.5945
16266TIP3   OH270212   4.710   5.598   1.610  0.1374  0.0825  0.3144
16266TIP3    H170213   4.638   5.549   1.650 -0.2068 -0.8183 -1.3878
16266TIP3    H270214   4.745   5.651   1.682 -1.2641 -0.5767  1.5155
16267TIP3   OH270215   5.913   5.462  11.140 -0.6278 -0.1461  0.0982
16267TIP3    H170216   5.965   5.447  11.218 -0.4187  0.8804  0.1646
16267TIP3    H270217   5.914   5.378  11.093 -1.8484 -1.1726  1.8347
16268TIP3   OH270218   3.455   5.511  11.912 -0.1432  0.0560  0.2930
16268TIP3    H170219   3.503   5.563  11.848  0.4554  0.2563  0.9028
16268TIP3    H270220   3.510   5.434  11.928 -0.8470 -0.5906 -0.3205
16269TIP3   OH270221   0.775   5.306  15.062  0.0242  0.0920  0.0336
16269TIP3    H170222   0.844   5.373  15.068  1.8124 -1.7089  0.3496
16269TIP3    H270223   0.768   5.287  14.969  0.3974 -0.1502  0.0528
16270TIP3   OH270224   0.643   2.888  11.492  0.2663  0.0159  0.4891
16270TIP3    H170225   0.685   2.957  11.441  1.7690 -0.1674  1.4438
16270TIP3    H270226   0.607   2.933  11.568 -2.1323  0.3180 -0.7744
16271TIP3   OH270227   1.701   0.084   0.716  0.0734  0.0448 -0.1450
16271TIP3    H170228   1.780   0.044   0.752  1.0173  0.6976 -1.4196
16271TIP3    H270229   1.653   0.011   0.677 -0.2816 -0.4504  1.1843
16272TIP3   OH270230   2.318   5.499   1.225 -0.1194  0.0915 -0.2408
16272TIP3    H170231   2.257   5.460   1.163  1.2236 -2.0812 -0.2554
16272TIP3    H270232   2.405   5.482   1.188  0.5597  1.9081  0.4606
16273TIP3   OH270233   3.931   4.706   5.630  0.5407  0.4033  0.0923
16273TIP3    H170234   3.988   4.779   5.607 -2.0588  2.0776 -1.2684
16273TIP3    H270235   3.909   4.721   5.722  0.2521  1.1383 -0.1030
16274TIP3   OH270236   3.194   4.078   4.040 -0.2855 -0.1203 -0.2321
16274TIP3    H170237   3.234   4.096   3.955  0.8221  3.5445  0.9735
16274TIP3    H270238   3.268   4.074   4.101 -1.1251 -2.0355  0.7230
16275TIP3   OH270239   4.839   5.606   2.193  0.2552  0.2629  0.5104
16275TIP3    H170240   4.931   5.600   2.167  0.2064  2.2577 -0.1319
16275TIP3    H270241   4.824   5.699   2.210 -1.1814 -0.2648  2.3196
16276TIP3   OH270242   1.623   3.042   0.477 -0.3282 -0.3020 -0.2955
16276TIP3    H170243   1.601   3.114   0.418 -2.0831  0.1684  0.8870
16276TIP3    H270244   1.716   3.054   0.496 -0.2222  0.6908 -1.3915
16277TIP3   OH270245   2.366   4.116   4.514 -0.0654 -0.6923 -0.4779
16277TIP3    H170246   2.345   4.042   4.456 -1.8952  1.1604 -2.2784
16277TIP3    H270247   2.398   4.184   4.455  0.3691  0.4027  0.9929
16278TIP3   OH270248   3.880   4.576  12.976 -0.1382  0.5451  0.1968
16278TIP3    H170249   3.928   4.629  12.912  1.5330 -0.2734  0.7630
16278TIP3    H270250   3.890   4.486  12.945 -0.3628  0.2672  0.9319
16279TIP3   OH270251   2.253   4.452   2.146 -0.2119 -0.1099 -0.6020
16279TIP3    H170252   2.165   4.471   2.112 -0.9680  0.8653  1.7816
16279TIP3    H270253   2.251   4.358   2.164 -0.3498 -0.3205 -1.6298
16280TIP3   OH270254   2.650   0.600  10.644  0.0916 -0.5697  0.4668
16280TIP3    H170255   2.681   0.685  10.676 -1.0798 -0.4642  1.3336
16280TIP3    H270256   2.643   0.546  10.722 -0.1583 -1.1536  0.0457
16281TIP3   OH270257   1.343   5.443   1.636 -0.4100 -0.1394 -0.1131
16281TIP3    H170258   1.352   5.347   1.639 -2.1499 -0.3628 -1.1715
16281TIP3    H270259   1.248   5.458   1.637 -0.2128  1.4763 -2.4457
16282TIP3   OH270260   1.270   6.714   3.975  0.1369 -0.5719 -0.6164
16282TIP3    H170261   1.203   6.736   3.910 -1.3502  0.3580  1.1817
16282TIP3    H270262   1.250   6.624   4.001 -2.5203  0.7337  2.2707
16283TIP3   OH270263   0.841   5.155   6.456  0.1260  0.2348 -0.1894
16283TIP3    H170264   0.897   5.093   6.410 -2.7948 -1.2044 -1.9981
16283TIP3    H270265   0.838   5.232   6.398 -0.7502 -0.1960 -0.7291
16284TIP3   OH270266   6.711   5.959   3.898 -0.5987  0.3091 -0.4444
16284TIP3    H170267   6.784   5.961   3.960 -0.9877  2.6484 -0.0458
16284TIP3    H270268   6.743   5.907   3.824  0.4491 -1.0957  0.9582
16285TIP3   OH270269   2.547   3.536  16.997 -0.0795  0.3757  0.0188
16285TIP3    H170270   2.482   3.469  17.019  1.5495 -0.4295  2.5382
16285TIP3    H270271   2.502   3.619  17.013 -1.3796 -0.1200 -0.9658
16286TIP3   OH270272   0.602   2.829   2.279  0.5292  0.4289  0.3664
16286TIP3    H170273   0.630   2.744   2.245  1.0579  0.0456  1.7335
16286TIP3    H270274   0.664   2.848   2.349 -0.7659  1.0322  1.3620
16287TIP3   OH270275   4.649   2.771  14.716  0.0509  0.0392 -0.1454
16287TIP3    H170276   4.590   2.804  14.783 -1.1825 -0.6783 -0.8537
16287TIP3    H270277   4.698   2.847  14.686  0.0597  0.4931  1.0169
16288TIP3   OH270278   2.978   0.917   4.241 -0.2046  0.3832 -0.4351
16288TIP3    H170279   2.929   0.921   4.158 -1.3483 -0.9832  0.1427
16288TIP3    H270280   3.058   0.868   4.219 -1.3191 -1.5290 -0.3908
16289TIP3   OH270281   3.229   0.357   0.703  0.3779  0.3786 -0.6218
16289TIP3    H170282   3.302   0.320   0.654 -1.3645  0.4045 -3.3073
16289TIP3    H270283   3.163   0.376   0.637 -1.1621  2.5437  1.4739
16290TIP3   OH270284   4.384   5.948   0.525 -0.0661  0.0765 -0.0121
16290TIP3    H170285   4.436   6.026   0.543  0.6613 -0.2304 -0.7240
16290TIP3    H270286   4.317   5.978   0.464  0.1624  0.1658 -0.2217
16291TIP3   OH270287   2.954   4.971  13.915 -0.4069 -0.7941 -0.0174
16291TIP3    H170288   2.905   5.037  13.965 -1.4688 -0.6865 -1.1925
16291TIP3    H270289   2.907   4.889  13.931  0.6864 -1.2111  1.1272
16292TIP3   OH270290   1.650   5.899  14.230  0.4393  0.5981  0.0802
16292TIP3    H170291   1.720   5.893  14.165  1.4730 -2.4018  1.3725
16292TIP3    H270292   1.694   5.925  14.311 -0.6104  2.7693 -0.0045
16293TIP3   OH270293   1.609   6.411  11.625 -0.8031  0.2811 -1.0773
16293TIP3    H170294   1.559   6.335  11.654 -0.3816  0.5541  0.4524
16293TIP3    H270295   1.625   6.461  11.706  1.0536  0.7080 -1.6731
16294TIP3   OH270296   4.004   5.512   0.167 -0.1067 -0.5117 -0.0136
16294TIP3    H170297   4.053   5.568   0.227  0.2276 -0.8502  0.0312
16294TIP3    H270298   3.913   5.522   0.194  0.2897 -2.9259  2.4827
16295TIP3   OH270299   3.431   3.235   0.485 -0.1790  0.0053 -0.0631
16295TIP3    H170300   3.368   3.305   0.469 -0.4777 -0.6225 -1.7376
16295TIP3    H270301   3.393   3.159   0.441  2.2703 -0.1265 -2.0284
16296TIP3   OH270302   3.814   0.102  13.751 -0.7592  0.1322 -0.1599
16296TIP3    H170303   3.836   0.152  13.674 -0.7248 -0.2854 -0.4242
16296TIP3    H270304   3.719   0.089  13.745 -0.6013 -0.8310 -0.7043
16297TIP3   OH270305   5.599   0.176   3.315 -0.0058  0.4867 -0.6435
16297TIP3    H170306   5.553   0.157   3.233 -0.3344  0.9523 -0.5668
16297TIP3    H270307   5.610   0.090   3.357  2.0068 -0.0310 -2.1417
16298TIP3   OH270308   5.517   6.655  14.141 -0.2306  0.4470  0.2882
16298TIP3    H170309   5.426   6.645  14.113 -0.1438  0.3251  0.0523
16298TIP3    H270310   5.565   6.678  14.062 -0.1966  1.3527  0.5689
16299TIP3   OH270311   3.678   0.871  12.408  0.6499  0.2015 -0.3944
16299TIP3    H170312   3.661   0.951  12.360  0.8018 -0.4068 -1.4875
16299TIP3    H270313   3.628   0.804  12.362 -0.2780 -0.1597  1.1050
16300TIP3   OH270314   2.284   3.957   5.362 -0.0767  0.0480  0.3886
16300TIP3    H170315   2.314   4.009   5.287  3.3086 -1.1971  0.8178
16300TIP3    H270316   2.266   4.022   5.430 -1.4122  1.0479 -0.8933
16301TIP3   OH270317   1.144   5.919   0.794  0.2743 -0.3923  0.2860
16301TIP3    H170318   1.172   5.963   0.874  1.7400 -0.3799 -0.2239
16301TIP3    H270319   1.219   5.866   0.768 -0.6744 -1.4434 -0.3451
16302TIP3   OH270320   2.962   1.864   3.675 -0.5200 -0.4416 -0.2184
16302TIP3    H170321   3.049   1.855   3.636  0.1847  1.6040  0.7971
16302TIP3    H270322   2.918   1.782   3.655  1.2143 -1.0139 -1.8292
16303TIP3   OH270323   2.338   1.605   0.272 -0.2532 -0.5288 -0.2183
16303TIP3    H170324   2.253   1.626   0.234 -0.3153 -1.5491 -0.6520
16303TIP3    H270325   2.351   1.512   0.253  0.7676 -0.4843  0.2145
16304TIP3   OH270326   1.502   0.647  15.437 -0.0231 -0.0016 -0.7480
16304TIP3    H170327   1.507   0.624  15.530 -2.3078  0.7023 -0.3964
16304TIP3    H270328   1.430   0.594  15.403 -0.1881  0.8392 -1.7427
16305TIP3   OH270329   1.574   5.651   0.771 -0.4440  0.2840  0.0404
16305TIP3    H170330   1.500   5.591   0.765  0.7296 -1.3341  1.2302
16305TIP3    H270331   1.642   5.601   0.816  0.3259  2.7512  1.7432
16306TIP3   OH270332   1.708   5.169  13.396  0.3635 -0.0620  0.6561
16306TIP3    H170333   1.761   5.095  13.367 -0.0395  0.2775 -1.0312
16306TIP3    H270334   1.672   5.206  13.315 -1.6273  0.3337  1.6719
16307TIP3   OH270335   1.829   3.318   2.281  0.1632  0.1099  0.5642
16307TIP3    H170336   1.915   3.326   2.322  0.4090  0.4736 -0.0237
16307TIP3    H270337   1.825   3.228   2.249  0.3575  0.1219  0.5087
16308TIP3   OH270338   3.656   6.455   4.357 -0.3471 -0.4150 -0.0857
16308TIP3    H170339   3.658   6.527   4.420  2.8518 -0.5472  0.0556
16308TIP3    H270340   3.634   6.497   4.274 -2.6832  0.0426  0.7247
16309TIP3   OH270341   6.402   0.618  16.321 -0.3024 -0.4134 -0.0626
16309TIP3    H170342   6.497   0.610  16.308 -0.0631  0.5226  1.0000
16309TIP3    H270343   6.376   0.534  16.361  0.2708 -0.2538  0.6618
16310TIP3   OH270344   0.694   4.919   1.433 -0.3663  0.2326 -0.4863
16310TIP3    H170345   0.730   4.999   1.394  0.2131 -0.1846 -0.8115
16310TIP3    H270346   0.655   4.872   1.359 -1.3653  0.5602 -0.1792
16311TIP3   OH270347   5.683   6.743   5.100  0.2088  0.2140  0.2494
16311TIP3    H170348   5.713   6.789   5.021  0.5275  1.3285  1.0027
16311TIP3    H270349   5.756   6.751   5.161  1.5274 -3.9758 -0.6197
16312TIP3   OH270350   3.074   3.554   5.820  0.5679  0.4729  0.5686
16312TIP3    H170351   3.163   3.561   5.852  1.0919 -1.0499 -0.4875
16312TIP3    H270352   3.082   3.513   5.734 -1.2824 -1.5582  1.3025
16313TIP3   OH270353   3.393   2.835   2.364  0.7102 -0.2661  0.0464
16313TIP3    H170354   3.379   2.740   2.360  0.0636 -0.1135 -1.8679
16313TIP3    H270355   3.310   2.870   2.395  0.3650 -0.1947 -0.9498
16314TIP3   OH270356   0.914   3.459  14.573 -0.2769  1.0459  0.0377
16314TIP3    H170357   0.863   3.429  14.498 -0.1100  1.5976 -0.2981
16314TIP3    H270358   0.887   3.403  14.645 -3.1138  2.8869  0.4581
16315TIP3   OH270359   3.409   6.513   0.693  0.5800  0.0551 -0.0247
16315TIP3    H170360   3.317   6.509   0.670  0.6256  0.8764 -0.3584
16315TIP3    H270361   3.448   6.438   0.649  0.2761  0.3679 -0.8342
16316TIP3   OH270362   3.216   1.968  14.733 -0.3621 -0.2575 -0.2090
16316TIP3    H170363   3.306   1.936  14.719 -0.2110 -0.0446  0.2643
16316TIP3    H270364   3.186   1.922  14.811 -1.0262 -1.0682 -0.9270
16317TIP3   OH270365   4.039   2.850   1.839  0.7941  0.5812 -0.5720
16317TIP3    H170366   4.096   2.780   1.807  2.0806  0.6808  1.3640
16317TIP3    H270367   4.100   2.919   1.866 -0.0800  0.0280  3.1121
16318TIP3   OH270368   0.941   0.733  11.192 -0.2372 -0.1151  0.1604
16318TIP3    H170369   1.035   0.733  11.210 -0.2352  0.5628  0.1744
16318TIP3    H270370   0.927   0.810  11.136 -0.6210 -0.8204 -0.7230
16319TIP3   OH270371   0.439   2.204   5.405  0.1783  0.0692  0.8112
16319TIP3    H170372   0.387   2.280   5.383 -0.4925 -0.6491 -0.1414
16319TIP3    H270373   0.478   2.224   5.491  1.1603  2.0565 -0.0749
16320TIP3   OH270374   6.086   1.039  16.424 -0.5849  0.3425 -0.2047
16320TIP3    H170375   6.156   1.089  16.383 -0.0047  0.7853  1.2868
16320TIP3    H270376   6.125   0.954  16.443 -0.9306  0.0486 -0.8067
16321TIP3   OH270377   2.086   5.049  13.249 -0.3877  0.6745 -0.0992
16321TIP3    H170378   2.133   4.981  13.298  2.5424  1.3282 -1.8805
16321TIP3    H270379   1.994   5.023  13.254  0.6838 -3.8819 -1.4277
16322TIP3   OH270380   5.580   3.370  12.778  0.2383 -0.0581  0.1507
16322TIP3    H170381   5.659   3.357  12.831  0.4489 -0.4761 -0.2693
16322TIP3    H270382   5.612   3.404  12.695 -0.0118 -0.3998 -0.0851
16323TIP3   OH270383   0.279   2.287   1.579 -0.5354 -0.4465 -0.2136
16323TIP3    H170384   0.371   2.309   1.587 -0.7357 -0.4872  2.5967
16323TIP3    H270385   0.268   2.265   1.486  2.1515 -0.0120 -0.6828
16324TIP3   OH270386   5.220   3.793   4.044  0.4844  0.5726  0.3671
16324TIP3    H170387   5.254   3.836   3.966  0.4929  0.5246  0.3449
16324TIP3    H270388   5.127   3.819   4.047  0.3867  0.2491  0.1234
16325TIP3   OH270389   1.413   3.636   5.431  0.1769  0.8125  0.0493
16325TIP3    H170390   1.410   3.682   5.515 -1.3501  0.4835  0.1934
16325TIP3    H270391   1.503   3.647   5.400  1.2331 -0.4989  2.5284
16326TIP3   OH270392   4.741   0.920   2.804  0.2735  0.0843  0.0986
16326TIP3    H170393   4.755   0.848   2.865 -0.6964 -0.5607 -0.4245
16326TIP3    H270394   4.703   0.990   2.858  0.8381  0.0619  0.5278
16327TIP3   OH270395   5.343   6.104   1.187  0.7092 -0.1677 -0.0761
16327TIP3    H170396   5.250   6.088   1.176  0.7055  0.0545 -0.3803
16327TIP3    H270397   5.357   6.191   1.149  0.6527  0.7150  1.8532
16328TIP3   OH270398   4.748   6.253   5.851 -0.3268  0.2377 -0.3625
16328TIP3    H170399   4.668   6.261   5.902 -0.7467 -0.4936 -0.9045
16328TIP3    H270400   4.819   6.262   5.915 -0.8476 -1.5100  0.4746
16329TIP3   OH270401   4.385   2.691  14.547 -0.1656 -0.0136 -0.2544
16329TIP3    H170402   4.465   2.689  14.493 -0.4086 -1.5956 -0.5853
16329TIP3    H270403   4.387   2.609  14.595 -1.3289  0.1901  0.1516
16330TIP3   OH270404   2.228   5.404   4.777  0.6489 -0.6699 -0.0542
16330TIP3    H170405   2.203   5.316   4.749 -0.3773 -0.2620 -0.4448
16330TIP3    H270406   2.161   5.461   4.740  1.1493  0.2515  0.4340
16331TIP3   OH270407   1.209   0.526  13.287 -0.3993  0.2228 -0.5752
16331TIP3    H170408   1.205   0.487  13.375 -0.9282 -0.0684 -0.7251
16331TIP3    H270409   1.213   0.620  13.303  0.2764  0.1353 -0.2248
16332TIP3   OH270410   1.864   1.371  15.455 -0.0649 -0.1086 -0.7240
16332TIP3    H170411   1.839   1.463  15.452 -0.6951 -0.2609 -0.1030
16332TIP3    H270412   1.813   1.330  15.384 -1.0631 -0.2894  0.0895
16333TIP3   OH270413   1.576   3.197   6.454  0.1863  0.7129 -0.5661
16333TIP3    H170414   1.541   3.132   6.514  0.3699  1.0036 -0.1376
16333TIP3    H270415   1.585   3.276   6.507  0.9612  0.7944 -0.8136
16334TIP3   OH270416   6.455   3.895  14.459  0.5127  0.0560 -0.2193
16334TIP3    H170417   6.477   3.813  14.415  1.9748  0.1704  0.2590
16334TIP3    H270418   6.531   3.951  14.444 -0.4900  1.3388 -0.5720
16335TIP3   OH270419   4.094   4.415  16.038 -0.2087  0.7090 -0.8890
16335TIP3    H170420   4.133   4.442  15.954  2.7544  1.0600  0.5374
16335TIP3    H270421   4.158   4.442  16.104 -2.0461 -0.4348  1.4240
16336TIP3   OH270422   2.372   4.703   1.849 -0.3952 -0.0326 -0.2741
16336TIP3    H170423   2.445   4.643   1.864 -0.6178 -0.1447  0.3932
16336TIP3    H270424   2.297   4.645   1.832 -0.0492  0.0970 -2.3424
16337TIP3   OH270425   6.294   1.293   5.125 -0.5074 -0.1615 -0.0566
16337TIP3    H170426   6.383   1.284   5.159 -0.1430 -0.5227 -1.0817
16337TIP3    H270427   6.269   1.204   5.100 -1.2518 -0.0983  0.4524
16338TIP3   OH270428   3.999   2.891  13.917  0.6819  0.1885  0.2474
16338TIP3    H170429   4.073   2.870  13.974  0.1735  0.3545  0.9662
16338TIP3    H270430   3.973   2.980  13.941  1.2243  0.7259 -1.0704
16339TIP3   OH270431   2.560   2.498   4.221 -0.9924 -0.0547  0.4555
16339TIP3    H170432   2.583   2.522   4.311 -0.8133 -0.9432  0.6480
16339TIP3    H270433   2.506   2.571   4.190 -0.0479  0.8330  0.8678
16340TIP3   OH270434   5.542   0.233   5.056 -0.7911 -0.0844 -0.1615
16340TIP3    H170435   5.635   0.223   5.037 -0.6625 -0.2967  0.5872
16340TIP3    H270436   5.528   0.327   5.062 -0.6744 -0.0446 -0.5302
16341TIP3   OH270437   4.909   0.676  14.824  0.1174  0.3583  0.3801
16341TIP3    H170438   4.985   0.632  14.863  1.1222  1.2858 -0.4818
16341TIP3    H270439   4.923   0.768  14.843 -2.4878  0.2586  3.0268
16342TIP3   OH270440   5.838   6.419   4.957 -0.3772  0.1240 -0.1712
16342TIP3    H170441   5.761   6.381   4.999  0.4449 -1.0850  0.2545
16342TIP3    H270442   5.909   6.405   5.019  0.5489 -0.3365 -1.3116
16343TIP3   OH270443   5.468   3.840   2.978  0.0259  0.5255  0.6869
16343TIP3    H170444   5.373   3.825   2.973 -0.1242  1.9884 -1.5050
16343TIP3    H270445   5.477   3.914   3.039 -0.2413  0.4181  0.8591
16344TIP3   OH270446   4.606   0.565  11.069  0.0231  0.1321  0.0256
16344TIP3    H170447   4.684   0.527  11.109  0.2484  0.1149 -0.4261
16344TIP3    H270448   4.591   0.513  10.990  1.2391  1.9178 -1.4489
16345TIP3   OH270449   3.554   5.787   5.691  0.1497  0.2481 -0.0731
16345TIP3    H170450   3.569   5.731   5.767  2.0747 -1.2456 -1.4871
16345TIP3    H270451   3.641   5.800   5.653 -0.6376  1.8646 -1.4206
16346TIP3   OH270452   4.780   2.431  12.286 -0.9659  0.4639 -0.1660
16346TIP3    H170453   4.817   2.492  12.349 -1.8505 -0.0436  0.8464
16346TIP3    H270454   4.689   2.420  12.313 -1.2377 -0.0777 -1.2824
16347TIP3   OH270455   3.368   4.172   2.368  0.4205  0.2877 -0.3622
16347TIP3    H170456   3.416   4.090   2.356  2.1346  0.9285  1.7583
16347TIP3    H270457   3.337   4.170   2.459 -0.0439  1.7082 -0.4619
16348TIP3   OH270458   4.831   5.634  15.099 -0.2597  0.1431 -0.3296
16348TIP3    H170459   4.750   5.586  15.119 -1.1737  1.1681 -1.5232
16348TIP3    H270460   4.899   5.566  15.100 -1.0943 -0.7014  0.8790
16349TIP3   OH270461   5.408   1.589   1.573 -0.4369  0.0568  0.0246
16349TIP3    H170462   5.495   1.630   1.573  0.0060 -0.7931  2.3778
16349TIP3    H270463   5.350   1.657   1.606 -0.2291 -0.1562  0.8534
16350TIP3   OH270464   4.234   3.978   6.362  0.5449 -0.4907 -0.2340
16350TIP3    H170465   4.260   4.024   6.441  0.3350 -0.1483 -0.3644
16350TIP3    H270466   4.278   3.893   6.368  0.0134 -0.7113  0.5622
16351TIP3   OH270467   6.473   4.556  11.626  0.5090  0.4633  0.7685
16351TIP3    H170468   6.501   4.485  11.684  0.6192  1.6912  2.2528
16351TIP3    H270469   6.418   4.513  11.561 -0.0826 -0.8953  2.1146
16352TIP3   OH270470   2.140   2.971  16.046 -0.4104 -0.0017 -0.0477
16352TIP3    H170471   2.204   2.930  15.988  0.4868  3.3119 -1.5702
16352TIP3    H270472   2.192   3.031  16.100 -1.8485  0.5273  0.7905
16353TIP3   OH270473   6.241   4.937   5.669  0.0072 -0.0264 -0.3356
16353TIP3    H170474   6.279   4.855   5.702 -1.0954 -0.8273 -1.0212
16353TIP3    H270475   6.244   4.928   5.574  0.1304  0.8526 -0.4181
16354TIP3   OH270476   0.323   1.497  14.954  0.2555 -0.2671  0.0069
16354TIP3    H170477   0.272   1.578  14.944 -0.0977 -0.6583 -1.4175
16354TIP3    H270478   0.318   1.478  15.048 -1.2954  0.3125  0.0632
16355TIP3   OH270479   1.532   3.798  12.802 -0.4351  0.0341 -0.0175
16355TIP3    H170480   1.552   3.766  12.714  2.0737 -1.1046  0.9115
16355TIP3    H270481   1.440   3.775  12.816 -0.4153 -1.1706 -1.7364
16356TIP3   OH270482   4.057   5.989   0.447 -0.2860  0.2365 -0.2558
16356TIP3    H170483   4.045   6.000   0.542  1.7098 -1.4652  0.2327
16356TIP3    H270484   4.036   6.075   0.411 -1.0077  0.9396  1.7456
16357TIP3   OH270485   4.605   4.627  14.159  0.2757 -0.1711 -0.2089
16357TIP3    H170486   4.668   4.556  14.173  0.5368  0.5548  2.7570
16357TIP3    H270487   4.658   4.707  14.163 -0.5471  0.3497  0.4400
16358TIP3   OH270488   1.664   3.906  17.120 -0.0506 -0.0129  0.3310
16358TIP3    H170489   1.630   3.980  17.070 -1.0650 -2.6601 -3.1270
16358TIP3    H270490   1.586   3.857  17.146  0.6541 -0.5650  1.4226
16359TIP3   OH270491   2.384   2.283   1.002  0.6887 -0.2375  0.2354
16359TIP3    H170492   2.390   2.192   0.975  0.7187 -0.2104  0.1506
16359TIP3    H270493   2.294   2.293   1.034  0.5505 -0.1813 -0.1691
16360TIP3   OH270494   0.705   4.010  16.582 -0.6884  0.2463  0.7841
16360TIP3    H170495   0.734   4.036  16.495  0.2448  2.1568  1.6432
16360TIP3    H270496   0.629   4.065  16.600 -2.3205 -1.7835  0.2647
16361TIP3   OH270497   5.341   2.843  12.654  0.5316  0.4778 -0.1372
16361TIP3    H170498   5.329   2.932  12.622  0.7499  0.0090 -1.5499
16361TIP3    H270499   5.406   2.804  12.595  3.8372  0.7709  3.1041
16362TIP3   OH270500   0.006   3.721   2.906 -0.1091 -0.4338 -0.2135
16362TIP3    H170501   0.021   3.799   2.960 -1.7129 -0.2574  0.0105
16362TIP3    H270502   0.046   3.742   2.822  0.2842  0.2651  0.1394
16363TIP3   OH270503   6.090   4.154   1.011  0.0101  0.1963  0.1478
16363TIP3    H170504   6.100   4.061   1.033  2.0360  0.4286  0.3160
16363TIP3    H270505   6.009   4.180   1.055 -0.5383 -1.4713  0.1652
16364TIP3   OH270506   5.763   3.017   1.244 -0.0414 -0.0006 -0.0667
16364TIP3    H170507   5.790   2.925   1.238  0.9919  0.3711 -1.3308
16364TIP3    H270508   5.842   3.063   1.273 -0.1124  0.7102 -0.9946
16365TIP3   OH270509   5.601   5.626  13.254 -0.0894  0.3711  0.3979
16365TIP3    H170510   5.619   5.700  13.196  1.7616  0.7256  1.3474
16365TIP3    H270511   5.682   5.574  13.251 -0.9796 -1.0324  0.5710
16366TIP3   OH270512   1.388   5.627  14.345 -0.4690  0.7648  0.1746
16366TIP3    H170513   1.367   5.679  14.267 -1.6159  0.3004  0.1611
16366TIP3    H270514   1.310   5.573  14.359  0.5417 -0.6374  0.4434
16367TIP3   OH270515   3.521   2.757  16.908  0.1461  0.0957  0.7601
16367TIP3    H170516   3.428   2.735  16.899  0.0950  0.4127  0.4752
16367TIP3    H270517   3.526   2.849  16.881  0.7696 -0.3365 -0.6734
16368TIP3   OH270518   4.799   1.922   6.121  0.1123 -0.3483  0.3960
16368TIP3    H170519   4.874   1.865   6.136 -0.5544 -1.2817  0.2383
16368TIP3    H270520   4.827   2.008   6.152  0.5402 -1.1236  2.2671
16369TIP3   OH270521   5.502   3.120  15.127 -0.1696 -0.5958 -0.0240
16369TIP3    H170522   5.544   3.060  15.189 -1.5203 -3.1996 -1.5282
16369TIP3    H270523   5.561   3.122  15.052 -0.5075 -0.6864 -0.2939
16370TIP3   OH270524   1.217   0.127  16.872 -0.2615  0.4568  0.4092
16370TIP3    H170525   1.250   0.057  16.815 -0.6733 -0.7853  1.6781
16370TIP3    H270526   1.140   0.161  16.826 -0.0255  0.1204 -0.2362
16371TIP3   OH270527   0.214   5.451  12.907  0.6385 -0.0037 -0.2477
16371TIP3    H170528   0.184   5.533  12.947  1.0961 -0.5657  1.2822
16371TIP3    H270529   0.136   5.395  12.908  0.4752  0.2092 -0.7737
16372TIP3   OH270530   3.908   1.319   5.762  0.4354  0.4553 -0.3202
16372TIP3    H170531   3.881   1.344   5.673 -0.2700 -0.2754 -0.3189
16372TIP3    H270532   4.000   1.294   5.753 -0.0230 -1.0103 -1.1407
16373TIP3   OH270533   5.439   6.299  14.645 -0.3084  0.2440  0.1687
16373TIP3    H170534   5.351   6.326  14.671 -0.0556  1.5471 -0.2644
16373TIP3    H270535   5.447   6.326  14.554  0.3346 -0.3708  0.0420
16374TIP3   OH270536   1.682   5.511  15.885 -0.6238 -0.4380  0.2975
16374TIP3    H170537   1.725   5.531  15.802  1.3576  1.0122  1.6205
16374TIP3    H270538   1.636   5.592  15.908 -1.4311 -0.9384  0.4905
16375TIP3   OH270539   0.761   3.360   4.982  0.1189 -0.1269 -0.5010
16375TIP3    H170540   0.766   3.284   5.040 -0.9646  0.1286 -0.0741
16375TIP3    H270541   0.817   3.425   5.024 -0.3854 -0.0632  0.0662
16376TIP3   OH270542   2.791   6.334   1.404 -0.0846 -0.3047  0.0035
16376TIP3    H170543   2.761   6.422   1.383 -1.8306 -1.2446 -1.6285
16376TIP3    H270544   2.795   6.332   1.499  0.5806  1.7235  0.0420
16377TIP3   OH270545   6.371   0.090  15.325 -0.1832  0.1785 -0.5085
16377TIP3    H170546   6.337   0.026  15.262 -2.5473  0.7752  0.1004
16377TIP3    H270547   6.423   0.151  15.273  1.3574 -1.6804 -1.2298
16378TIP3   OH270548   2.201   5.161  12.636 -0.5642 -0.0018  0.0679
16378TIP3    H170549   2.212   5.238  12.691  0.0887 -0.2496  0.2917
16378TIP3    H270550   2.179   5.195  12.550  1.4865  0.4878 -0.2678
16379TIP3   OH270551   3.706   6.250   6.159 -0.4009 -0.2022 -0.0487
16379TIP3    H170552   3.655   6.302   6.222 -1.0531  0.6146 -1.2382
16379TIP3    H270553   3.669   6.162   6.166  0.0742 -0.3116  1.2971
16380TIP3   OH270554   3.627   0.076  16.573  0.0091 -0.1641  0.0996
16380TIP3    H170555   3.625   0.148  16.637  1.8824  1.7093 -1.8808
16380TIP3    H270556   3.573   0.108  16.500 -0.0531 -1.2508 -0.3285
16381TIP3   OH270557   6.668   3.581   3.102  0.1338 -0.1447  0.8942
16381TIP3    H170558   6.723   3.626   3.038  0.4536 -0.0721  1.2245
16381TIP3    H270559   6.611   3.525   3.049  1.5086 -1.3223  0.6450
16382TIP3   OH270560   3.942   1.706  10.911  0.5488 -0.4595 -0.7034
16382TIP3    H170561   4.037   1.713  10.916  0.4760  0.0019  0.1731
16382TIP3    H270562   3.918   1.760  10.835  0.7793  1.6275  0.6435
16383TIP3   OH270563   1.725   1.256   4.358  0.7851  0.0409  0.0894
16383TIP3    H170564   1.767   1.193   4.418 -1.1064 -0.8321  0.5481
16383TIP3    H270565   1.708   1.205   4.279  0.2202  0.2600  0.0693
16384TIP3   OH270566   0.023   1.372  13.880 -0.0636 -0.6239 -0.1312
16384TIP3    H170567  -0.007   1.330  13.961  0.2126 -1.2887 -0.3784
16384TIP3    H270568  -0.050   1.428  13.854  0.4026  0.7209  1.3693
16385TIP3   OH270569   0.214   5.546  11.712  0.2286  0.2846  0.0157
16385TIP3    H170570   0.259   5.630  11.723 -0.9286  1.0329 -0.8027
16385TIP3    H270571   0.283   5.481  11.721  0.8586  1.2184  2.3767
16386TIP3   OH270572   0.587   2.292  14.605 -0.1168 -0.3014  0.7310
16386TIP3    H170573   0.599   2.360  14.671 -1.2572 -0.5567  1.2092
16386TIP3    H270574   0.675   2.279  14.569  0.2715  0.7954  1.2457
16387TIP3   OH270575   5.163   6.046   1.499  0.1361  0.2892  0.0053
16387TIP3    H170576   5.173   6.102   1.422  2.5613  0.4741  0.4294
16387TIP3    H270577   5.203   6.095   1.571 -1.3287 -0.2577  1.2332
16388TIP3   OH270578   2.592   6.417   4.032  0.5266 -0.1378 -0.5235
16388TIP3    H170579   2.654   6.349   4.006  1.1699 -0.0282  0.6638
16388TIP3    H270580   2.593   6.480   3.961  2.9193  0.6152  0.1393
16389TIP3   OH270581   3.574   4.116  15.262  0.0119  0.6123 -0.3999
16389TIP3    H170582   3.666   4.108  15.287 -0.2614 -0.4719  0.2968
16389TIP3    H270583   3.559   4.047  15.198 -0.3269  0.7566 -0.4820
16390TIP3   OH270584   0.059   0.015  12.335  0.2779  0.6441 -0.3101
16390TIP3    H170585   0.132   0.066  12.300  0.1401  0.2911 -1.1250
16390TIP3    H270586   0.028  -0.036  12.260 -2.2703  2.4964 -0.6095
16391TIP3   OH270587   2.410   2.961   0.563 -0.0295 -0.0963  0.2592
16391TIP3    H170588   2.367   2.904   0.499 -1.4327 -1.9455  2.7676
16391TIP3    H270589   2.503   2.941   0.555 -0.1057  0.1985 -1.6505
16392TIP3   OH270590   3.205   4.911  13.996 -0.0043 -0.1922  0.5272
16392TIP3    H170591   3.156   4.835  14.027 -1.2948  1.2213  2.0870
16392TIP3    H270592   3.144   4.955  13.937  1.4046 -1.3295 -1.8123
16393TIP3   OH270593   3.526   0.293  12.672  0.2519  0.4729 -0.1805
16393TIP3    H170594   3.450   0.344  12.700  0.4056  0.3090  0.5408
16393TIP3    H270595   3.491   0.208  12.647  0.3088  0.0717  1.0705
16394TIP3   OH270596   3.094   0.298  14.647 -0.3199 -0.0325 -0.0193
16394TIP3    H170597   3.140   0.268  14.568 -0.0235  0.0733  0.1177
16394TIP3    H270598   3.113   0.391  14.652 -1.2195  0.1793 -0.4206
16395TIP3   OH270599   1.264   5.848  16.327 -0.3352  0.0116 -0.6330
16395TIP3    H170600   1.194   5.859  16.262 -1.5427  0.5357  0.7285
16395TIP3    H270601   1.221   5.863  16.411  1.4644  0.4829  0.2250
16396TIP3   OH270602   0.501   6.413   0.706  0.4239 -0.1939 -0.0810
16396TIP3    H170603   0.566   6.342   0.709 -1.2448 -1.8329 -1.3460
16396TIP3    H270604   0.421   6.371   0.673 -0.8549  2.1094 -0.0334
16397TIP3   OH270605   2.984   3.966  12.046  0.7554  0.3825 -0.3426
16397TIP3    H170606   2.906   4.020  12.063  0.2467 -0.7299  0.9770
16397TIP3    H270607   2.971   3.932  11.958 -0.3263  0.1074 -0.0899
16398TIP3   OH270608   4.107   6.067   1.858 -0.7235  0.2855  0.3814
16398TIP3    H170609   4.059   6.150   1.858  0.9438  1.3324 -2.4155
16398TIP3    H270610   4.196   6.090   1.885 -0.4855 -0.7548  0.5284
16399TIP3   OH270611   2.890   0.560   1.174  0.3287 -0.1706  0.2034
16399TIP3    H170612   2.976   0.585   1.140  0.3800  1.1638  1.3015
16399TIP3    H270613   2.897   0.572   1.268 -1.2573  0.5550  0.2351
16400TIP3   OH270614   6.672   0.178   4.250  0.5257 -0.4187 -0.4890
16400TIP3    H170615   6.577   0.164   4.257  0.8332 -2.2863  0.3363
16400TIP3    H270616   6.695   0.218   4.334  0.7986 -2.0867  0.2507
16401TIP3   OH270617   5.571   4.434  13.055  0.0155  0.0399 -0.2618
16401TIP3    H170618   5.644   4.425  13.116  1.4879 -0.1190 -2.0197
16401TIP3    H270619   5.497   4.462  13.110  1.3401  0.0294  1.5541
16402TIP3   OH270620   0.353   3.032   0.526  0.1692  0.0481 -0.2346
16402TIP3    H170621   0.392   3.110   0.487  0.3605 -0.1966 -0.5307
16402TIP3    H270622   0.425   2.970   0.532  0.6544  0.7892  2.4209
16403TIP3   OH270623   4.945   0.334  10.570  0.0013  0.3584 -0.1643
16403TIP3    H170624   4.874   0.370  10.623 -1.9346 -1.7420 -1.2648
16403TIP3    H270625   4.957   0.245  10.603  2.4484  0.8125  0.2793
16404TIP3   OH270626   3.997   4.328  13.465 -0.5830  0.1275  0.1504
16404TIP3    H170627   3.956   4.253  13.508  1.6034 -0.3392  1.5046
16404TIP3    H270628   4.051   4.289  13.396 -0.8216  0.5923 -0.3025
16405TIP3   OH270629   3.993   5.791  12.268 -0.4825 -0.0388 -0.1419
16405TIP3    H170630   3.949   5.837  12.197 -0.5269  0.8946  0.4721
16405TIP3    H270631   3.923   5.769  12.330 -0.3118  0.0108  0.0712
16406TIP3   OH270632   4.426   0.863  16.288  0.0463  0.5561  0.6813
16406TIP3    H170633   4.367   0.911  16.230  0.7894 -0.6428 -1.1070
16406TIP3    H270634   4.367   0.812  16.344 -0.6536 -0.2283 -0.7430
16407TIP3   OH270635   2.065   2.566  10.645 -0.3091 -0.0562  0.4498
16407TIP3    H170636   2.135   2.516  10.603 -0.6848 -0.1993 -0.0049
16407TIP3    H270637   1.991   2.558  10.586 -0.0785  1.8812 -0.1208
16408TIP3   OH270638   1.481   0.860  13.837  0.0272  0.1649  0.3068
16408TIP3    H170639   1.429   0.783  13.860  0.4141  0.0980  0.9693
16408TIP3    H270640   1.421   0.934  13.849 -0.7774 -0.1215 -1.6849
16409TIP3   OH270641   4.330   5.215   5.323  0.2844 -0.0453 -0.7270
16409TIP3    H170642   4.351   5.293   5.374 -0.9387 -0.3354  0.2587
16409TIP3    H270643   4.413   5.189   5.283  1.2810  0.1485  1.1809
16410TIP3   OH270644   1.803   2.332   4.325  1.1248 -0.1523  0.8782
16410TIP3    H170645   1.798   2.310   4.418  0.4084 -0.6521  0.7192
16410TIP3    H270646   1.868   2.403   4.321  2.2292 -1.0945  1.5812
16411TIP3   OH270647   1.833   0.843   4.220 -0.1905 -0.0499  0.1356
16411TIP3    H170648   1.794   0.923   4.183 -0.8658 -0.0366  0.8561
16411TIP3    H270649   1.811   0.775   4.157 -0.7124  0.1049  0.1428
16412TIP3   OH270650   2.414   2.597   1.211 -0.4807  0.1360  0.0895
16412TIP3    H170651   2.375   2.570   1.294 -0.4212 -0.1082  0.0367
16412TIP3    H270652   2.502   2.559   1.211 -0.9015 -0.8822 -0.6161
16413TIP3   OH270653   1.656   5.501   1.259 -0.1549  0.1146 -0.1157
16413TIP3    H170654   1.576   5.511   1.311 -0.0996 -0.3825  0.0684
16413TIP3    H270655   1.627   5.459   1.178 -0.3748  1.6681 -0.8537
16414TIP3   OH270656   2.546   2.317   2.168  0.2392 -0.3764  0.4286
16414TIP3    H170657   2.527   2.239   2.117 -2.1242  0.2832  0.2738
16414TIP3    H270658   2.484   2.315   2.241 -0.0262  1.4766  0.2795
16415TIP3   OH270659   0.502   4.436   0.742 -0.2831  0.4950 -0.2279
16415TIP3    H170660   0.578   4.418   0.687  0.5487 -1.5967  1.5225
16415TIP3    H270661   0.427   4.403   0.692  0.1386  1.0164 -1.2204
16416TIP3   OH270662   3.893   3.256   5.576 -0.3794  0.8184 -0.3468
16416TIP3    H170663   3.922   3.280   5.663 -0.3736  1.8991 -0.6414
16416TIP3    H270664   3.916   3.331   5.521 -1.1350  0.4993 -1.1164
16417TIP3   OH270665   5.329   5.668   3.439 -0.9744 -0.3025  0.2131
16417TIP3    H170666   5.298   5.591   3.487  2.4633 -0.2035  2.8042
16417TIP3    H270667   5.282   5.741   3.478 -0.7945 -0.6096  1.0137
16418TIP3   OH270668   1.395   5.476  11.786  0.1516 -0.0761 -0.6265
16418TIP3    H170669   1.383   5.472  11.881 -1.0710 -2.0530 -0.8344
16418TIP3    H270670   1.320   5.525  11.754  0.8613  1.0956 -0.5563
16419TIP3   OH270671   2.420   3.309   3.576  0.5645 -0.1045  0.1199
16419TIP3    H170672   2.353   3.348   3.633 -1.6521 -1.8715 -1.1742
16419TIP3    H270673   2.414   3.358   3.495 -1.2658 -2.1364 -1.0261
16420TIP3   OH270674   4.185   4.533   4.241 -0.2337 -0.0378  0.2809
16420TIP3    H170675   4.117   4.580   4.193  0.6217 -0.6004 -1.5333
16420TIP3    H270676   4.262   4.590   4.237 -0.0826 -0.1977  0.7930
16421TIP3   OH270677   4.171   1.980   4.539  0.6998  0.0347  0.5523
16421TIP3    H170678   4.234   1.948   4.475  1.4844  0.6724  1.0046
16421TIP3    H270679   4.116   2.041   4.491  0.7956 -0.0794  0.3002
16422TIP3   OH270680   2.179   6.650  14.148  0.2514 -0.0223 -0.2035
16422TIP3    H170681   2.125   6.697  14.084 -0.2972 -2.0554 -1.2899
16422TIP3    H270682   2.118   6.624  14.217  0.2305 -0.6000 -0.4403
16423TIP3   OH270683   1.606   2.954  12.170 -0.6984 -0.4215 -0.3462
16423TIP3    H170684   1.668   3.024  12.149  0.5401 -1.4323 -0.0739
16423TIP3    H270685   1.620   2.937  12.263 -1.1478 -0.8839 -0.3620
16424TIP3   OH270686   4.291   4.668   3.080 -0.1196 -0.7514 -0.3256
16424TIP3    H170687   4.338   4.585   3.090  0.4659 -0.4643 -0.6622
16424TIP3    H270688   4.321   4.722   3.152  0.3650 -0.4283 -0.7690
16425TIP3   OH270689   2.437   3.566   5.274 -0.3057  0.0112  0.1853
16425TIP3    H170690   2.427   3.647   5.325 -0.0851 -0.3039  0.7235
16425TIP3    H270691   2.431   3.595   5.183  0.2935  0.7109  0.3643
16426TIP3   OH270692   1.014   2.769   4.629 -0.0406  0.0353  0.1556
16426TIP3    H170693   1.095   2.813   4.604  0.2061 -1.6309 -2.1328
16426TIP3    H270694   0.960   2.772   4.549 -0.3319 -3.0205  0.1804
16427TIP3   OH270695   0.924   4.987   2.077  0.1714  0.0186  0.0726
16427TIP3    H170696   0.991   4.950   2.019 -0.1206  1.1954 -1.0368
16427TIP3    H270697   0.932   4.937   2.158  1.1732 -1.0744 -0.6811
16428TIP3   OH270698   5.518   1.754  13.789 -0.5414  0.4586 -0.3714
16428TIP3    H170699   5.477   1.841  13.787  2.9779  2.2281  0.5750
16428TIP3    H270700   5.523   1.732  13.882  1.5982  0.7917 -0.3806
16429TIP3   OH270701   1.868   1.593   4.709  0.7038 -0.1979 -0.6183
16429TIP3    H170702   1.789   1.627   4.666  0.4378  0.0152  0.0365
16429TIP3    H270703   1.929   1.577   4.637  0.6618  1.2130 -0.9841
16430TIP3   OH270704   3.600   5.233  14.679  0.5323  0.5361 -0.0132
16430TIP3    H170705   3.506   5.221  14.690  0.5551  0.5544  0.2028
16430TIP3    H270706   3.623   5.177  14.605  0.5289 -0.3037  0.6068
16431TIP3   OH270707   1.922   2.110   0.522  0.2477  0.3682 -0.2115
16431TIP3    H170708   1.943   2.154   0.439  1.2536  0.6643  0.1975
16431TIP3    H270709   1.858   2.043   0.497  1.6864 -0.5829 -1.5078
16432TIP3   OH270710   2.356   4.373  12.340  0.1656 -0.0964  0.0229
16432TIP3    H170711   2.346   4.395  12.433  0.8686  2.2121 -0.4058
16432TIP3    H270712   2.451   4.375  12.326 -0.0019  0.9621 -1.0393
16433TIP3   OH270713   6.292   6.524  16.413  0.7235 -0.1602 -0.1866
16433TIP3    H170714   6.242   6.559  16.487 -0.5585  0.3756 -1.2943
16433TIP3    H270715   6.304   6.431  16.435 -1.5532 -0.5116 -0.3111
16434TIP3   OH270716   6.549   1.871  17.188  0.5600 -0.3076  0.4211
16434TIP3    H170717   6.546   1.780  17.156  0.2221 -0.2470  0.2794
16434TIP3    H270718   6.642   1.887  17.203  0.6580 -0.5636  0.1156
16435TIP3   OH270719   2.882   2.357  13.052 -0.2354 -0.9123  0.4257
16435TIP3    H170720   2.871   2.318  12.965 -0.5479  0.7621 -0.3093
16435TIP3    H270721   2.961   2.316  13.087  1.2624  0.1395 -1.6302
16436TIP3   OH270722   3.303   0.414  15.078 -0.6436  0.2395  0.1963
16436TIP3    H170723   3.270   0.465  15.003 -0.3129  0.4705  0.2023
16436TIP3    H270724   3.351   0.342  15.038 -0.5864  0.2840  0.1827
16437TIP3   OH270725   5.178   1.459  14.576  0.0781 -0.1307  0.3291
16437TIP3    H170726   5.237   1.520  14.620 -1.4184 -0.1664  2.4424
16437TIP3    H270727   5.107   1.514  14.544 -0.6910 -0.5830  1.2297
16438TIP3   OH270728   0.505   5.991  15.885  0.1983 -0.5061 -0.5130
16438TIP3    H170729   0.549   6.002  15.969  0.6963 -0.9564 -0.7109
16438TIP3    H270730   0.413   6.014  15.902  0.1585 -1.2582  0.3107
16439TIP3   OH270731   1.556   0.723  15.111  0.0907 -0.2192  0.1400
16439TIP3    H170732   1.613   0.707  15.187 -1.0674 -0.4521  0.9732
16439TIP3    H270733   1.573   0.649  15.053  0.5329 -0.3639  0.4451
16440TIP3   OH270734   0.861   1.670   3.535  0.5721 -0.3489 -0.0023
16440TIP3    H170735   0.810   1.746   3.509  0.2421 -0.5779 -0.0376
16440TIP3    H270736   0.803   1.595   3.518  1.8126 -0.8277 -2.4385
16441TIP3   OH270737   3.985   5.797   2.816  0.1087 -0.3543  0.7061
16441TIP3    H170738   4.029   5.748   2.886 -0.5319 -3.6949 -1.1450
16441TIP3    H270739   3.906   5.746   2.797 -0.3141  1.1315 -1.6859
16442TIP3   OH270740   6.290   3.340   0.665 -0.1683 -0.1869 -0.2785
16442TIP3    H170741   6.287   3.416   0.607 -1.4479  0.3763  0.4995
16442TIP3    H270742   6.247   3.270   0.616 -0.8133  0.1581 -0.2168
16443TIP3   OH270743   2.986   5.383  13.535  0.4749 -0.7351 -0.2806
16443TIP3    H170744   2.993   5.461  13.480  1.3863  0.4339  1.4397
16443TIP3    H270745   3.035   5.405  13.614  0.6850 -3.0313  0.2747
16444TIP3   OH270746   0.997   2.281   3.434  0.2174  0.4425 -0.3058
16444TIP3    H170747   0.967   2.254   3.348 -0.9847 -0.2429  0.3138
16444TIP3    H270748   1.051   2.208   3.465 -1.8932 -0.7260  0.7867
16445TIP3   OH270749   1.636   4.387  13.775  0.1172  0.5421  0.2759
16445TIP3    H170750   1.621   4.431  13.859 -0.2089  1.6833 -0.3617
16445TIP3    H270751   1.730   4.393  13.761  0.2997 -0.5556  1.0479
16446TIP3   OH270752   6.475   1.708  12.279  0.4349 -0.3502  0.4798
16446TIP3    H170753   6.412   1.776  12.305 -0.2144 -0.4195 -0.8625
16446TIP3    H270754   6.497   1.730  12.189  0.8072 -1.4877  0.2920
16447TIP3   OH270755   1.443   1.012   2.904  0.5996 -0.6874 -0.2234
16447TIP3    H170756   1.502   1.078   2.867 -0.4600  0.1710 -0.3992
16447TIP3    H270757   1.371   1.006   2.841 -0.5454 -0.2069  1.0059
16448TIP3   OH270758   1.599   3.623   4.454  0.1321 -0.0864  0.6376
16448TIP3    H170759   1.567   3.683   4.522 -1.3020 -0.6220  0.4511
16448TIP3    H270760   1.625   3.680   4.382 -1.8805  0.3006  0.1929
16449TIP3   OH270761   5.174   1.494  13.989 -0.2594 -0.2092 -0.3462
16449TIP3    H170762   5.136   1.510  14.076  0.6440 -2.7754  0.5739
16449TIP3    H270763   5.225   1.573  13.970 -2.0616  1.2065  0.5727
16450TIP3   OH270764   6.671   2.308   0.483 -0.0264  0.4136 -0.2377
16450TIP3    H170765   6.624   2.275   0.559  0.4835 -0.7655 -0.4135
16450TIP3    H270766   6.761   2.321   0.514  0.5525 -1.5646 -1.0160
16451TIP3   OH270767   1.190   0.200   2.312 -0.0292  0.8096 -0.1559
16451TIP3    H170768   1.149   0.208   2.398 -0.4084 -0.8508 -0.1807
16451TIP3    H270769   1.120   0.223   2.251  0.3093  2.2387 -0.0372
16452TIP3   OH270770   2.331   4.159  15.046 -0.2123 -0.2605 -0.0660
16452TIP3    H170771   2.352   4.166  14.953 -0.1795 -3.4927 -0.3541
16452TIP3    H270772   2.396   4.216  15.089  0.1740  0.7595 -1.9496
16453TIP3   OH270773   0.291   6.550  14.059 -0.3417 -0.5186 -0.6470
16453TIP3    H170774   0.330   6.545  13.972 -0.3727 -0.2253 -0.6761
16453TIP3    H270775   0.348   6.496  14.114 -1.0972 -1.8412 -1.1359
16454TIP3   OH270776   3.000   6.665  13.359 -0.2170 -0.2852 -0.0979
16454TIP3    H170777   3.060   6.592  13.377 -2.5790 -1.6166  3.0268
16454TIP3    H270778   3.012   6.724  13.433 -0.2826  1.1908 -1.2454
16455TIP3   OH270779   5.984   5.903  15.709  0.9404 -0.1416 -0.9674
16455TIP3    H170780   5.910   5.843  15.708  1.5285 -0.8794 -0.4872
16455TIP3    H270781   6.058   5.852  15.677  1.3944  0.3874 -0.7774
16456TIP3   OH270782   2.347   4.872   0.453  0.4810 -0.1254  0.5004
16456TIP3    H170783   2.351   4.941   0.518  2.9764 -0.7030  1.0250
16456TIP3    H270784   2.439   4.849   0.436 -0.1549 -1.0084 -2.1229
16457TIP3   OH270785   3.613   5.955  15.115 -0.3594 -0.7009 -0.3565
16457TIP3    H170786   3.595   5.919  15.203  2.3167  0.0875  0.5530
16457TIP3    H270787   3.707   5.942  15.103 -0.3027  1.2634 -2.1948
16458TIP3   OH270788   3.238   6.584  12.934 -0.3399  0.1271  0.0743
16458TIP3    H170789   3.258   6.612  12.845  1.4865  0.6701  0.6371
16458TIP3    H270790   3.176   6.512  12.923 -1.6266  1.4462 -1.5519
16459TIP3   OH270791   0.761   4.060   6.528 -0.7596 -0.3984  0.5752
16459TIP3    H170792   0.767   3.974   6.570 -0.4168 -0.9167 -0.5214
16459TIP3    H270793   0.689   4.104   6.573 -1.2241 -1.4209  0.8513
16460TIP3   OH270794   0.428   3.151  16.110 -0.2255  0.6568 -0.2392
16460TIP3    H170795   0.422   3.089  16.037  0.9897 -0.0011  0.1859
16460TIP3    H270796   0.441   3.236  16.069 -2.7118  0.7690 -0.8536
16461TIP3   OH270797   2.316   4.808   3.947  0.3397  0.1970  0.4890
16461TIP3    H170798   2.381   4.872   3.915 -1.5098  1.0219 -1.7313
16461TIP3    H270799   2.327   4.732   3.890 -0.9179  0.5146 -0.2022
16462TIP3   OH270800   3.411   1.370   5.517  0.2121 -0.0423 -0.1568
16462TIP3    H170801   3.466   1.417   5.454 -0.6196  0.4017 -0.5548
16462TIP3    H270802   3.323   1.375   5.480  0.0912 -1.8337 -0.1535
16463TIP3   OH270803   6.712   5.393  15.528  0.4078  0.0639 -0.0774
16463TIP3    H170804   6.730   5.346  15.446 -1.4384  0.6287 -0.8349
16463TIP3    H270805   6.618   5.413  15.523  0.9391  2.8488  0.7552
16464TIP3   OH270806   5.446   2.376   2.623  0.2206  0.1727  0.1952
16464TIP3    H170807   5.397   2.453   2.594  1.9212  0.7446 -1.2440
16464TIP3    H270808   5.384   2.303   2.612 -1.1164  1.1854  0.7853
16465TIP3   OH270809   4.419   1.676  15.265 -0.2670  0.3304  1.1321
16465TIP3    H170810   4.493   1.620  15.290 -0.1107 -0.7164 -1.4969
16465TIP3    H270811   4.457   1.763  15.255  0.6481 -0.2070 -0.2371
16466TIP3   OH270812   0.510   3.400   2.963  0.0509 -0.1850  0.4384
16466TIP3    H170813   0.449   3.382   3.034  1.4673 -2.7670  1.0958
16466TIP3    H270814   0.595   3.408   3.007  0.3348  2.4183 -0.5482
16467TIP3   OH270815   3.662   6.175  13.707 -0.2146  0.2353 -0.3395
16467TIP3    H170816   3.745   6.159  13.752  0.1529 -0.0970 -1.1229
16467TIP3    H270817   3.597   6.181  13.778  0.0181 -2.3491  0.1476
16468TIP3   OH270818   1.831   3.145  12.111 -0.1478  0.6101 -0.0567
16468TIP3    H170819   1.911   3.096  12.095 -0.2900  0.7504 -1.2322
16468TIP3    H270820   1.826   3.209  12.040 -1.8202 -0.0879 -0.6163
16469TIP3   OH270821   4.848   0.727   2.185 -0.7166  0.0610  0.1888
16469TIP3    H170822   4.760   0.698   2.162 -1.2517 -0.4714  2.8489
16469TIP3    H270823   4.836   0.781   2.263  0.9856  2.4371 -1.1307
16470TIP3   OH270824   4.564   2.831  11.740 -0.0007 -0.0393  0.2080
16470TIP3    H170825   4.591   2.885  11.666 -1.3150  0.0518 -0.2208
16470TIP3    H270826   4.485   2.873  11.772 -1.5914 -2.2091 -0.7202
16471TIP3   OH270827   2.483   1.438  13.897  0.2590  0.3801  0.4354
16471TIP3    H170828   2.508   1.523  13.860 -1.1899 -0.1376 -1.8817
16471TIP3    H270829   2.451   1.458  13.984 -0.3660  2.2719 -0.2024
16472TIP3   OH270830   6.772   0.343  13.123 -0.0754  0.3513 -0.1650
16472TIP3    H170831   6.804   0.377  13.207  0.2453 -0.2075 -0.0628
16472TIP3    H270832   6.717   0.269  13.147 -1.6121  1.4212 -0.3284
16473TIP3   OH270833   4.516   4.853  16.451 -0.5793 -0.3426  0.3277
16473TIP3    H170834   4.498   4.945  16.474 -0.2481 -0.4162  0.8948
16473TIP3    H270835   4.607   4.840  16.477 -0.0119 -0.2616 -1.5915
16474TIP3   OH270836   1.605   4.458   0.798  0.1155 -0.0473  0.0343
16474TIP3    H170837   1.602   4.420   0.710 -1.0679 -0.2632  0.1620
16474TIP3    H270838   1.682   4.514   0.797 -0.1196  0.2723 -1.2848
16475TIP3   OH270839   5.901   3.694   6.093 -0.1654  0.2276  0.4724
16475TIP3    H170840   5.949   3.733   6.166  0.2364  2.6845 -1.0550
16475TIP3    H270841   5.878   3.768   6.037 -0.4049 -1.6138 -1.9465
16476TIP3   OH270842   0.911   0.812  15.983 -0.1256 -0.4108 -0.1558
16476TIP3    H170843   1.003   0.831  15.964  0.0296  1.2059  2.0199
16476TIP3    H270844   0.895   0.726  15.943  3.0564 -1.9756  1.7611
16477TIP3   OH270845   3.321   0.599  11.329  0.0654 -0.3093 -0.0110
16477TIP3    H170846   3.403   0.595  11.379  0.1197  0.9308  0.0131
16477TIP3    H270847   3.348   0.580  11.239  0.3400 -0.2026  0.0457
16478TIP3   OH270848   5.193   4.302   5.591 -0.7709 -0.0498  0.0989
16478TIP3    H170849   5.271   4.324   5.540 -0.7088 -1.0722 -0.2510
16478TIP3    H270850   5.174   4.211   5.570 -2.8630  0.5658 -0.8641
16479TIP3   OH270851   1.250   5.960   4.136 -0.1143  0.5420 -0.2402
16479TIP3    H170852   1.311   6.033   4.128 -1.1237  1.6630  1.7745
16479TIP3    H270853   1.207   5.974   4.220 -0.0253 -2.6234  0.4067
16480TIP3   OH270854   4.671   5.959   5.824 -0.0567  0.1462  0.0884
16480TIP3    H170855   4.659   5.992   5.913 -0.1963  0.4382 -0.0367
16480TIP3    H270856   4.754   5.998   5.795 -0.1245  0.2345  0.0106
16481TIP3   OH270857   2.883   2.859  16.924 -0.6296  0.7629  0.0560
16481TIP3    H170858   2.838   2.839  17.006 -0.0980  2.1289  0.6844
16481TIP3    H270859   2.975   2.838  16.941 -0.5020  1.1529 -0.1573
16482TIP3   OH270860   6.289   3.557   3.325  0.3027 -0.5389 -0.0032
16482TIP3    H170861   6.264   3.493   3.392  0.2342  0.6790  1.1462
16482TIP3    H270862   6.361   3.607   3.365 -0.9208  1.3723 -0.1133
16483TIP3   OH270863   0.122   3.700  15.340  0.2199 -0.2642 -0.0611
16483TIP3    H170864   0.093   3.697  15.249 -1.3855 -3.2189  0.4936
16483TIP3    H270865   0.212   3.732  15.335  0.1957 -0.4989 -2.6890
16484TIP3   OH270866   6.124   5.082   4.179 -0.2162 -0.1403  0.2480
16484TIP3    H170867   6.093   4.995   4.205  2.6190 -1.5204 -0.7500
16484TIP3    H270868   6.102   5.139   4.252 -1.4341 -1.8720  1.2542
16485TIP3   OH270869   6.088   4.807   1.408 -0.0257 -0.1426 -0.5234
16485TIP3    H170870   6.006   4.841   1.374  0.3228  3.0937  1.6148
16485TIP3    H270871   6.074   4.800   1.503  0.8973 -3.3628 -0.5693
16486TIP3   OH270872   3.352   2.211   0.602  0.2052  0.4140 -0.3941
16486TIP3    H170873   3.347   2.116   0.589  0.0747  0.4620 -0.7088
16486TIP3    H270874   3.395   2.243   0.522 -0.1525  0.6643 -0.4846
16487TIP3   OH270875   1.950   3.194   5.924 -0.3502 -0.1657 -0.0262
16487TIP3    H170876   1.999   3.163   5.848 -1.2727  0.6776 -0.9774
16487TIP3    H270877   2.016   3.232   5.982  0.2675 -0.1599 -0.7327
16488TIP3   OH270878   1.861   2.555   3.349 -0.0662  0.2265  0.2799
16488TIP3    H170879   1.926   2.548   3.419 -0.4355  1.5914  0.7913
16488TIP3    H270880   1.866   2.647   3.322 -2.2821  0.5408  0.8347
16489TIP3   OH270881   2.883   0.899   3.135 -0.0764  0.3280  0.0147
16489TIP3    H170882   2.871   0.966   3.203 -1.7133 -2.1264  2.2550
16489TIP3    H270883   2.975   0.907   3.110  0.4542  1.6065  2.1997
16490TIP3   OH270884   0.299   3.909   3.107 -0.4951 -0.0195  0.2063
16490TIP3    H170885   0.316   3.830   3.158  3.7140  0.2735 -0.5433
16490TIP3    H270886   0.355   3.900   3.030 -0.9842  3.0572 -0.5758
16491TIP3   OH270887   2.527   6.271   0.265 -0.3803  0.1752 -0.0359
16491TIP3    H170888   2.524   6.266   0.169  1.1255  0.4600 -0.1094
16491TIP3    H270889   2.445   6.314   0.289  0.1842  2.0568 -1.3537
16492TIP3   OH270890   0.286   5.947  16.774  0.3659  0.3740 -0.6293
16492TIP3    H170891   0.238   6.024  16.743  0.3818  0.9589  0.7750
16492TIP3    H270892   0.219   5.891  16.814  0.4753  0.0211 -0.9365
16493TIP3   OH270893   6.629   4.402  14.923  0.5612  0.5836 -0.0115
16493TIP3    H170894   6.632   4.491  14.958  0.5386  0.3616  0.5554
16493TIP3    H270895   6.672   4.348  14.989 -2.1601 -0.3041  1.1436
16494TIP3   OH270896   1.902   2.707  16.116  0.4635  0.1288 -0.0978
16494TIP3    H170897   1.892   2.708  16.021 -0.5800 -1.1781 -0.0141
16494TIP3    H270898   1.992   2.677  16.130  0.0640 -1.3160 -0.6374
16495TIP3   OH270899   2.090   3.922  13.441 -0.4325  0.2972  0.1712
16495TIP3    H170900   2.139   4.002  13.464  1.9840 -0.2533 -2.8045
16495TIP3    H270901   2.000   3.953  13.429  0.6854  2.8685 -2.1678
16496TIP3   OH270902   0.893   0.324  15.693 -0.0995  0.5522  0.3992
16496TIP3    H170903   0.972   0.354  15.737  1.2882 -1.3686 -0.7140
16496TIP3    H270904   0.850   0.404  15.663  1.2276  1.6381  1.3522
16497TIP3   OH270905   3.379   0.874   2.099  0.1292  0.8217 -0.2920
16497TIP3    H170906   3.403   0.888   2.191 -0.7328  0.6290 -0.0306
16497TIP3    H270907   3.456   0.833   2.060 -0.6010 -1.9659  1.0973
16498TIP3   OH270908   0.390   1.757   3.130 -0.1908  0.2776 -0.6056
16498TIP3    H170909   0.338   1.793   3.058 -1.4792 -0.4181 -0.0343
16498TIP3    H270910   0.360   1.805   3.208  3.0723  2.9309 -0.8746
16499TIP3   OH270911   5.787   0.032   4.067  0.4044 -0.1137  0.6145
16499TIP3    H170912   5.825   0.082   3.995  2.1490 -1.5306  0.5294
16499TIP3    H270913   5.693   0.027   4.045  0.7249  0.4405 -0.9657
16500TIP3   OH270914   0.459   2.360   3.659  0.0586 -0.1852  0.0145
16500TIP3    H170915   0.508   2.343   3.579 -0.0786  0.2896 -0.1670
16500TIP3    H270916   0.518   2.333   3.730  0.0988 -0.8003 -0.2490
16501TIP3   OH270917   0.617   0.295   3.443 -0.2655 -0.0448  0.1419
16501TIP3    H170918   0.523   0.281   3.439  0.0425 -2.3090  0.0737
16501TIP3    H270919   0.644   0.255   3.526  1.0017 -1.9832 -1.1534
16502TIP3   OH270920   3.775   4.096   0.247  0.3392 -0.4348  0.0267
16502TIP3    H170921   3.830   4.019   0.230 -0.8327 -1.2805 -0.0415
16502TIP3    H270922   3.795   4.120   0.338  0.4980 -0.9986  0.1456
16503TIP3   OH270923   5.476   2.992   6.739  0.6705 -0.1440 -0.2354
16503TIP3    H170924   5.441   3.067   6.787 -2.6933 -0.5140 -1.9991
16503TIP3    H270925   5.569   3.012   6.728  0.2824  2.7081  1.2348
16504TIP3   OH270926   4.472   2.026  13.464  0.2449  0.1297  0.4850
16504TIP3    H170927   4.389   2.067  13.488  0.4484 -0.4581  2.3078
16504TIP3    H270928   4.451   1.971  13.388 -0.7350  1.0011  0.1179
16505TIP3   OH270929   2.692   0.741   1.120 -0.0336 -0.1216  0.2346
16505TIP3    H170930   2.731   0.821   1.087  0.5066 -0.1091  0.9076
16505TIP3    H270931   2.756   0.672   1.099 -0.2334 -0.2916  0.1763
16506TIP3   OH270932   0.602   5.117  15.197 -0.1956 -0.2559  0.2868
16506TIP3    H170933   0.661   5.192  15.182  0.2899 -1.0769 -2.1545
16506TIP3    H270934   0.652   5.058  15.253  0.0223  0.5380  0.9359
16507TIP3   OH270935   1.841   5.219   2.245 -0.0620 -0.2081 -0.3332
16507TIP3    H170936   1.889   5.224   2.162  0.9224  0.1349  0.2476
16507TIP3    H270937   1.908   5.236   2.312 -1.2295  1.5697  0.4129
16508TIP3   OH270938   0.942   2.924  11.932  0.2211  0.4215 -0.6661
16508TIP3    H170939   0.866   2.869  11.911  0.4749 -0.4082  0.5373
16508TIP3    H270940   0.944   2.989  11.861 -0.5307 -0.6560 -1.7066
16509TIP3   OH270941   5.137   3.893  15.371  0.0123  0.2833  0.2045
16509TIP3    H170942   5.127   3.928  15.459  1.3714  1.6928 -0.1681
16509TIP3    H270943   5.099   3.960  15.314  2.7277  1.2760 -0.5230
16510TIP3   OH270944   5.922   4.341   5.129 -0.4313  0.4102  0.2925
16510TIP3    H170945   5.896   4.366   5.040  0.1829 -0.4980 -0.1564
16510TIP3    H270946   5.949   4.423   5.170  1.6726  0.5094 -1.1870
16511TIP3   OH270947   1.335   5.268   4.137 -0.1584 -0.6742 -0.3569
16511TIP3    H170948   1.289   5.290   4.056 -1.3338  0.7995  0.6726
16511TIP3    H270949   1.265   5.257   4.201  0.7916 -1.2716  0.5917
16512TIP3   OH270950   3.272   3.311  12.345  0.2848 -0.6005 -0.1248
16512TIP3    H170951   3.251   3.253  12.419 -1.6476 -1.6361 -1.4236
16512TIP3    H270952   3.323   3.381  12.383 -1.7170 -0.4665  2.4570
16513TIP3   OH270953   2.151   0.287  12.165  0.5241 -0.6620  0.1305
16513TIP3    H170954   2.066   0.328  12.176  0.7726 -0.6753  2.3351
16513TIP3    H270955   2.165   0.284  12.070 -0.2743  2.7107 -0.1327
16514TIP3   OH270956   5.056   4.353  16.443 -1.1115  0.4480  0.1137
16514TIP3    H170957   5.014   4.283  16.494 -0.4678  0.0337  0.0905
16514TIP3    H270958   5.149   4.330  16.445 -1.0139  0.7742 -0.7290
16515TIP3   OH270959   4.738   3.066  13.816  0.4571  0.2199  0.3785
16515TIP3    H170960   4.758   3.107  13.733 -2.7561 -0.8707 -1.0110
16515TIP3    H270961   4.808   3.002  13.829  1.6211  1.2207 -0.8747
16516TIP3   OH270962   5.372   4.963  12.879  0.3538 -0.5072  0.8204
16516TIP3    H170963   5.399   4.872  12.864  0.4146 -0.7092  2.1371
16516TIP3    H270964   5.408   4.985  12.965  0.9479  1.0021  0.1976
16517TIP3   OH270965   4.199   5.550   4.844 -0.4286  0.2778 -0.5454
16517TIP3    H170966   4.155   5.571   4.761  1.5743  1.2549 -1.4027
16517TIP3    H270967   4.199   5.632   4.893 -1.1078 -0.1600  0.2051
16518TIP3   OH270968   6.410   2.361   3.950 -0.0959  0.2672  0.0154
16518TIP3    H170969   6.435   2.275   3.982  1.2940  0.5605 -0.2514
16518TIP3    H270970   6.356   2.398   4.019 -0.0169 -0.4830  0.4850
16519TIP3   OH270971   1.033   6.411   3.200  0.7854 -0.1759  0.2120
16519TIP3    H170972   1.061   6.444   3.285  0.5471  0.1858  0.1531
16519TIP3    H270973   0.945   6.448   3.188  1.4101  1.0002 -0.8618
16520TIP3   OH270974   6.608   3.504   2.853  0.1104 -0.0986 -0.1553
16520TIP3    H170975   6.692   3.542   2.877 -0.2321  0.3292  0.4126
16520TIP3    H270976   6.619   3.473   2.764  1.1308 -0.8255  0.2156
16521TIP3   OH270977   5.117   4.656  16.281 -0.4446  0.2327  0.6458
16521TIP3    H170978   5.207   4.626  16.297 -1.3483 -2.2074  1.4537
16521TIP3    H270979   5.065   4.611  16.349 -2.3835  0.8787 -0.3920
16522TIP3   OH270980   1.811   2.415   2.189  0.0054  0.4489 -0.1409
16522TIP3    H170981   1.790   2.322   2.188 -1.5221  0.7741  0.0385
16522TIP3    H270982   1.843   2.433   2.100 -0.5911 -0.0519 -0.4621
16523TIP3   OH270983   1.970   0.465  16.206  0.6022 -0.0160  0.7442
16523TIP3    H170984   1.949   0.548  16.248  0.2558  0.9334 -1.2203
16523TIP3    H270985   2.023   0.489  16.130  0.9294 -1.6405  0.4389
16524TIP3   OH270986   3.107   3.872  11.213  0.3482 -0.3147  0.4687
16524TIP3    H170987   3.077   3.785  11.187  1.0252  0.1977 -2.1664
16524TIP3    H270988   3.195   3.858  11.249  0.1119 -0.8070  0.8641
16525TIP3   OH270989   4.734   5.368   5.401 -0.3465 -0.7173  0.1005
16525TIP3    H170990   4.750   5.298   5.464 -0.3677  0.0752  0.9969
16525TIP3    H270991   4.820   5.385   5.362 -0.4400 -1.5968 -0.5043
16526TIP3   OH270992   1.163   3.403  12.907  0.1944  0.2438  0.2085
16526TIP3    H170993   1.114   3.343  12.851  0.4633  0.2326 -0.0141
16526TIP3    H270994   1.196   3.470  12.848 -1.2618  1.3885  0.6439
16527TIP3   OH270995   4.825   5.925  17.074 -0.6173 -0.1859  0.1578
16527TIP3    H170996   4.859   5.836  17.085  0.0077  0.0680  0.2809
16527TIP3    H270997   4.852   5.950  16.985  2.1891  1.1647  1.3437
16528TIP3   OH270998   1.714   1.354   2.952  0.0438  0.0449 -0.1823
16528TIP3    H170999   1.775   1.289   2.989  1.7664  1.2668 -0.8121
16528TIP3    H271000   1.732   1.434   3.001 -0.3556  0.6822 -1.0759
16529TIP3   OH271001   5.170   0.123   1.225  0.1988  0.3744  0.4020
16529TIP3    H171002   5.231   0.196   1.215  1.4680 -0.3865  2.3325
16529TIP3    H271003   5.205   0.073   1.299  0.4964 -3.3039 -2.1004
16530TIP3   OH271004   0.356   0.970  11.916 -0.2301 -0.1024  0.6156
16530TIP3    H171005   0.325   1.018  11.992  0.3983 -0.2455  0.9692
16530TIP3    H271006   0.340   0.878  11.937 -1.7574 -0.0409 -0.2080
16531TIP3   OH271007   3.936   0.523   5.548  0.4296 -0.2046 -0.1301
16531TIP3    H171008   3.931   0.453   5.612  0.0047  0.7618  0.9017
16531TIP3    H271009   4.030   0.537   5.534  0.5130 -1.0311 -0.4145
16532TIP3   OH271010   6.261   6.371  12.482 -0.4119 -0.0599 -0.1404
16532TIP3    H171011   6.210   6.388  12.403  0.6114  1.6524 -0.4627
16532TIP3    H271012   6.350   6.398  12.460 -0.0439  0.0860  1.4671
16533TIP3   OH271013   5.976   5.793   3.483  0.4272  0.4116  0.2935
16533TIP3    H171014   5.984   5.721   3.420  0.3728  0.6019  0.0677
16533TIP3    H271015   5.971   5.750   3.568  1.0492  0.1753  0.2115
16534TIP3   OH271016   5.324   5.009   2.458 -0.2687  0.2598  0.1328
16534TIP3    H171017   5.276   4.930   2.484  0.8795 -0.2589  0.7288
16534TIP3    H271018   5.386   4.978   2.393 -2.2646  1.3408 -2.3409
16535TIP3   OH271019   3.566   1.866   5.306  0.3943 -0.1343 -0.2435
16535TIP3    H171020   3.592   1.959   5.306  0.8401 -0.2461  0.7131
16535TIP3    H271021   3.529   1.851   5.219  1.8428  0.5183 -0.9951
16536TIP3   OH271022   1.587   6.650   0.565  0.2111 -0.8354 -0.0852
16536TIP3    H171023   1.560   6.560   0.578  0.9749 -0.9525  0.7248
16536TIP3    H271024   1.654   6.646   0.497  1.3630 -1.0689  1.0502
16537TIP3   OH271025   4.775   4.050   1.462  0.6141  0.8383 -0.2119
16537TIP3    H171026   4.870   4.048   1.469  0.3718 -0.8994  3.3956
16537TIP3    H271027   4.752   4.141   1.482  1.3468  0.5325  2.1690
16538TIP3   OH271028   5.096   1.664  15.826  0.2335  0.0193  0.1340
16538TIP3    H171029   5.135   1.727  15.766  0.8880 -0.1203  0.4018
16538TIP3    H271030   5.134   1.580  15.800  2.0862  0.2299  1.9912
16539TIP3   OH271031   4.320   6.384  15.675 -0.0357 -0.3888  0.0527
16539TIP3    H171032   4.379   6.309  15.668 -1.7891 -1.7350 -0.6175
16539TIP3    H271033   4.367   6.456  15.633  0.3330 -1.9291 -2.2584
16540TIP3   OH271034   2.747   1.460   1.224 -0.1793  0.4818  0.5392
16540TIP3    H171035   2.824   1.427   1.178 -1.4782 -0.2348 -1.1591
16540TIP3    H271036   2.676   1.401   1.199 -1.5540  1.8729  1.0756
16541TIP3   OH271037   2.379   4.453  13.102  0.2308 -0.2010  0.0097
16541TIP3    H171038   2.344   4.392  13.038  1.4873 -0.6013 -0.3034
16541TIP3    H271039   2.392   4.401  13.181  0.5686 -0.1752 -0.0254
16542TIP3   OH271040   4.125   5.557   3.379 -0.1138  0.6325 -0.2044
16542TIP3    H171041   4.078   5.523   3.303  1.2260 -0.1816 -0.6817
16542TIP3    H271042   4.116   5.490   3.446  0.1364  0.5851 -0.2146
16543TIP3   OH271043   3.441   0.784   1.785 -0.0214  0.3917  0.1517
16543TIP3    H171044   3.505   0.767   1.855  0.2642  0.5399 -0.0707
16543TIP3    H271045   3.372   0.720   1.800  0.7189 -0.5224 -0.2660
16544TIP3   OH271046   3.615   5.113  11.448 -0.4688 -0.6063 -0.0791
16544TIP3    H171047   3.573   5.034  11.415 -0.3364 -0.5446 -0.3934
16544TIP3    H271048   3.613   5.175  11.375 -1.6864  0.1116  0.5443
16545TIP3   OH271049   1.443   3.473  14.526  0.8748  0.5106  0.5186
16545TIP3    H171050   1.458   3.443  14.615  1.6075  1.4681  0.7298
16545TIP3    H271051   1.348   3.471  14.515  0.8668 -1.2543  0.7243
16546TIP3   OH271052   1.242   2.772  13.841 -0.1340  0.7947 -0.4912
16546TIP3    H171053   1.231   2.867  13.839 -0.1133  0.9044  2.1232
16546TIP3    H271054   1.292   2.756  13.921 -0.9090 -1.4951 -0.4299
16547TIP3   OH271055   3.562   6.410  14.885 -0.0527 -0.0818  0.2260
16547TIP3    H171056   3.537   6.320  14.906 -1.2635 -0.4756 -2.6949
16547TIP3    H271057   3.483   6.462  14.899 -0.7950 -0.3045 -2.8754
16548TIP3   OH271058   4.016   4.209   4.454  0.7821 -0.2017  0.1452
16548TIP3    H171059   4.013   4.203   4.358  3.2488  1.4183 -0.0550
16548TIP3    H271060   3.978   4.294   4.474 -2.5691 -1.7577  0.8774
16549TIP3   OH271061   5.929   2.229  12.837 -0.1222 -0.1800 -0.7295
16549TIP3    H171062   5.904   2.141  12.865  0.1136  0.0492  0.2001
16549TIP3    H271063   5.850   2.282  12.851  0.0361 -0.0381 -0.3667
16550TIP3   OH271064   2.750   6.521   3.528 -0.0289  0.2839  0.2567
16550TIP3    H171065   2.749   6.432   3.564  1.2923  0.4577  0.7459
16550TIP3    H271066   2.837   6.531   3.490 -0.3433  1.1979 -0.2480
16551TIP3   OH271067   4.842   0.152  11.756 -0.2658  0.3735 -0.5073
16551TIP3    H171068   4.811   0.091  11.689 -1.4239  0.8252 -0.3844
16551TIP3    H271069   4.771   0.158  11.819  0.2542  1.0523  0.0291
16552TIP3   OH271070   4.349   2.009   3.951  0.0089  0.2362 -0.2647
16552TIP3    H171071   4.442   1.996   3.972  0.2025 -0.0752 -1.2695
16552TIP3    H271072   4.324   2.086   4.002  0.6594 -0.0391  0.4825
16553TIP3   OH271073   0.137   2.264  14.513  0.2586 -0.0892 -0.0255
16553TIP3    H171074   0.198   2.239  14.444 -0.4503 -1.3965 -0.1994
16553TIP3    H271075   0.191   2.270  14.592  0.4730 -2.1790  0.0155
16554TIP3   OH271076   2.832   0.103  12.427 -0.3196 -0.4385 -0.0509
16554TIP3    H171077   2.821   0.175  12.488  0.4976 -0.6249  0.3301
16554TIP3    H271078   2.768   0.119  12.358 -0.3712  0.4630  0.2053
16555TIP3   OH271079   2.260   4.102  13.711  0.3615 -0.0632 -0.2059
16555TIP3    H171080   2.236   4.015  13.746  1.4396  0.1243  1.0237
16555TIP3    H271081   2.347   4.119  13.746 -0.2135  1.9367  0.3304
16556TIP3   OH271082   5.192   0.991   4.655 -0.6397  0.1784  0.7131
16556TIP3    H171083   5.145   1.021   4.733  1.3930  3.9737  0.6470
16556TIP3    H271084   5.181   1.062   4.592  2.3505 -0.3028 -0.4451
16557TIP3   OH271085   5.481   2.361   2.891  0.4900 -0.5305  0.1191
16557TIP3    H171086   5.526   2.283   2.923  1.7395  0.9819  2.1903
16557TIP3    H271087   5.494   2.359   2.797  1.0786 -2.4704  0.2174
16558TIP3   OH271088   6.141   5.231  16.364 -0.2565  0.4554  0.1632
16558TIP3    H171089   6.094   5.260  16.442 -0.6723 -0.4649  0.2696
16558TIP3    H271090   6.215   5.291  16.356  0.3115  0.0197  1.7993
16559TIP3   OH271091   0.459   6.613  11.848  0.2548 -0.0055 -0.1862
16559TIP3    H171092   0.390   6.574  11.793  0.4550 -2.5641  1.3132
16559TIP3    H271093   0.411   6.664  11.913 -0.1480 -0.4414 -0.1387
16560TIP3   OH271094   5.415   0.704   3.068  0.1655  0.5231  0.2462
16560TIP3    H171095   5.477   0.776   3.063  1.2319 -0.3639  0.4416
16560TIP3    H271096   5.329   0.745   3.067  0.7398  1.7268 -0.9985
16561TIP3   OH271097   5.846   3.465   3.314  0.1937  0.4149 -0.1985
16561TIP3    H171098   5.768   3.507   3.350 -0.7935 -0.2060 -1.5144
16561TIP3    H271099   5.815   3.379   3.286  1.5238 -0.0998 -0.1232
16562TIP3   OH271100   5.348   3.935  16.328 -0.6146 -0.3613  0.5180
16562TIP3    H171101   5.264   3.940  16.283  0.1721  0.6510 -0.8625
16562TIP3    H271102   5.386   4.022  16.318  0.9419 -1.0291  0.4524
16563TIP3   OH271103   3.690   2.884   4.692  0.0908  0.1812  0.0546
16563TIP3    H171104   3.646   2.852   4.614  2.6101  0.7655 -1.6664
16563TIP3    H271105   3.685   2.812   4.754 -1.3256 -0.5415 -0.8727
16564TIP3   OH271106   5.205   1.782   1.322 -0.1819 -0.4089 -0.2535
16564TIP3    H171107   5.214   1.825   1.407 -0.1077  0.4078 -0.6692
16564TIP3    H271108   5.249   1.841   1.261 -0.0473 -1.0968 -0.8246
16565TIP3   OH271109   4.344   5.060   2.566 -0.0485  0.0006  0.4410
16565TIP3    H171110   4.281   5.051   2.494  0.2737 -0.3295  0.1998
16565TIP3    H271111   4.429   5.067   2.522 -0.1440  2.9001  0.6666
16566TIP3   OH271112   2.547   5.482  15.522 -0.0821 -0.1226  0.1909
16566TIP3    H171113   2.559   5.410  15.460  1.6567  0.8893 -0.6810
16566TIP3    H271114   2.631   5.491  15.566 -0.6911  0.5075  1.2763
16567TIP3   OH271115   3.114   6.084  15.444  0.1597  0.2012  0.5998
16567TIP3    H171116   3.165   6.165  15.436 -0.2811  0.1996 -2.9662
16567TIP3    H271117   3.033   6.102  15.397 -1.9222 -0.8311  3.6776
16568TIP3   OH271118   5.176   1.157   5.985  0.0227 -0.0368  0.7987
16568TIP3    H171119   5.238   1.182   6.053  0.7572 -0.3227  0.2419
16568TIP3    H271120   5.180   1.229   5.922  0.0128 -0.1945  0.6165
16569TIP3   OH271121   3.924   3.137  13.936  0.2203  0.7694 -0.2940
16569TIP3    H171122   3.841   3.148  13.889 -0.4141  0.8543  0.8441
16569TIP3    H271123   3.954   3.226  13.954  1.1508  0.7590 -1.7225
16570TIP3   OH271124   0.762   3.879   2.560  0.1337 -0.0692 -0.5395
16570TIP3    H171125   0.844   3.917   2.527  1.9223 -1.8890  1.6241
16570TIP3    H271126   0.787   3.791   2.588 -2.6878 -0.8052 -0.2311
16571TIP3   OH271127   4.893   4.058  14.141 -0.0000  0.2433  0.1504
16571TIP3    H171128   4.862   4.102  14.061 -0.8961 -0.0128  0.3573
16571TIP3    H271129   4.867   3.967  14.130  3.6727 -0.7541 -1.2366
16572TIP3   OH271130   3.334   2.757   0.470  0.2221 -0.1384 -0.9849
16572TIP3    H171131   3.412   2.762   0.525 -1.6559  0.4962  1.7268
16572TIP3    H271132   3.353   2.688   0.406  1.8548 -2.0392  1.4824
16573TIP3   OH271133   2.552   6.455   4.964  0.0161  0.2294  0.1114
16573TIP3    H171134   2.592   6.539   4.942  2.0166 -0.7488 -0.1163
16573TIP3    H271135   2.559   6.449   5.059  0.0342  0.2638  0.1115
16574TIP3   OH271136   2.435   3.931   3.349  0.7460 -0.0758 -0.5614
16574TIP3    H171137   2.515   3.940   3.297  0.2283 -1.9074 -1.7058
16574TIP3    H271138   2.429   3.838   3.370 -0.9958  0.0624 -0.3587
16575TIP3   OH271139   1.266   2.257  14.668  0.3423 -0.2403  0.1719
16575TIP3    H171140   1.179   2.294  14.652  0.6022  0.4225  0.2747
16575TIP3    H271141   1.250   2.177  14.718 -0.1709  0.1756  0.6721
16576TIP3   OH271142   1.030   2.696  15.102  0.2324 -0.0000 -0.5695
16576TIP3    H171143   1.011   2.788  15.082 -2.1319 -0.7140 -1.6686
16576TIP3    H271144   1.005   2.686  15.194  2.3500  0.9180  0.1448
16577TIP3   OH271145   2.404   0.516  15.165  0.3408 -0.3633 -0.3523
16577TIP3    H171146   2.486   0.501  15.118 -0.4819  0.9230 -2.2645
16577TIP3    H271147   2.350   0.440  15.142 -0.0485  0.2471 -1.4613
16578TIP3   OH271148   5.698   3.670  12.696  0.0009 -0.5422  0.0716
16578TIP3    H171149   5.750   3.590  12.686 -1.7727 -1.8420  0.9140
16578TIP3    H271150   5.721   3.703  12.783 -0.1437 -0.8010  0.2096
16579TIP3   OH271151   5.675   2.832  12.833  0.4939 -1.1263 -0.4689
16579TIP3    H171152   5.641   2.781  12.759  0.6352  0.2922 -1.5339
16579TIP3    H271153   5.766   2.851  12.809  0.1773  0.4063 -0.5280
16580TIP3   OH271154   1.868   5.437  15.545 -0.2317 -0.3155 -0.3310
16580TIP3    H171155   1.899   5.489  15.471  0.3026 -2.3247 -1.5762
16580TIP3    H271156   1.931   5.453  15.614  0.4696 -0.0373 -1.0236
16581TIP3   OH271157   3.947   3.827   4.759 -0.0890 -0.1661  0.2413
16581TIP3    H171158   3.911   3.915   4.747 -0.2062 -0.3977 -1.2124
16581TIP3    H271159   3.958   3.794   4.670 -0.1809 -1.6747  0.7827
16582TIP3   OH271160   2.652   0.586  12.589  0.2934  0.2526  0.0429
16582TIP3    H171161   2.617   0.667  12.552  0.5850 -0.5644 -2.0723
16582TIP3    H271162   2.575   0.530  12.601  0.1049  0.7920  1.4067
16583TIP3   OH271163   3.272   5.474   0.720 -0.2560 -0.3921 -0.3584
16583TIP3    H171164   3.230   5.479   0.634  0.3531 -2.7853 -0.8261
16583TIP3    H271165   3.363   5.498   0.703 -0.5954  1.1989  0.0087
16584TIP3   OH271166   2.772   5.698   3.925 -0.0402  0.2364  0.6073
16584TIP3    H171167   2.828   5.759   3.974 -0.8553  0.9696  0.6572
16584TIP3    H271168   2.684   5.733   3.937 -0.7446 -1.9921  2.1536
16585TIP3   OH271169   2.414   2.675   4.700 -0.5911  0.2820  0.4834
16585TIP3    H171170   2.393   2.720   4.782 -0.6342 -0.2367  0.7627
16585TIP3    H271171   2.509   2.680   4.694 -0.7243  2.1711 -0.5149
16586TIP3   OH271172   2.190   4.396   0.172  0.0631 -0.1609 -0.3170
16586TIP3    H171173   2.201   4.467   0.109 -3.8154  0.9948  0.1812
16586TIP3    H271174   2.241   4.424   0.248 -0.0757  1.2612 -0.7304
16587TIP3   OH271175   0.723   5.590  11.181  0.1720 -0.0660  0.0987
16587TIP3    H171176   0.776   5.525  11.135 -1.7373 -0.7106 -1.2638
16587TIP3    H271177   0.633   5.573  11.152 -0.6909  1.5246  1.7105
16588TIP3   OH271178   6.273   2.520   3.366 -0.0548  0.4421  0.1921
16588TIP3    H171179   6.237   2.592   3.418 -0.8324 -0.1044  0.4269
16588TIP3    H271180   6.323   2.563   3.297 -1.9634  1.2886 -0.7262
16589TIP3   OH271181   5.188   4.821   2.626 -0.6596 -0.0606  0.3775
16589TIP3    H171182   5.099   4.849   2.605 -0.9283 -1.4116 -0.2694
16589TIP3    H271183   5.178   4.754   2.693 -0.2754 -2.0648 -1.5404
16590TIP3   OH271184   5.860   6.180   4.790  0.1702  0.4085  0.5729
16590TIP3    H171185   5.827   6.194   4.701  1.4918  2.0564  0.3404
16590TIP3    H271186   5.868   6.267   4.827  1.9161 -0.1136  1.4802
16591TIP3   OH271187   6.115   1.853   3.719  0.2425  0.3685  0.0179
16591TIP3    H171188   6.095   1.938   3.682  0.0090  0.0213 -0.6503
16591TIP3    H271189   6.207   1.859   3.745  0.6324  0.3589 -1.3279
16592TIP3   OH271190   0.252   0.375  10.935 -0.2519  0.1642 -0.5690
16592TIP3    H171191   0.250   0.465  10.967  2.0437  0.2338 -0.4996
16592TIP3    H271192   0.163   0.342  10.949 -0.8370  2.0768  0.3807
16593TIP3   OH271193   6.602   6.469   3.051  0.0391  0.3520  0.0479
16593TIP3    H171194   6.627   6.539   2.991  1.0094  0.1823  0.2388
16593TIP3    H271195   6.510   6.485   3.070 -0.2489  0.4261 -1.4358
16594TIP3   OH271196   3.742   4.513   0.103  0.6340 -0.2655 -0.0938
16594TIP3    H171197   3.782   4.597   0.082 -0.0862 -0.0735 -0.7134
16594TIP3    H271198   3.809   4.466   0.152  1.6097  0.0656 -1.0914
16595TIP3   OH271199   6.325   6.515  14.056  0.0815  0.2280 -0.2522
16595TIP3    H171200   6.303   6.493  14.146 -1.2105 -1.8721 -1.0562
16595TIP3    H271201   6.412   6.555  14.061 -0.8624  2.0795  2.1500
16596TIP3   OH271202   5.496   4.734  14.364  0.3534 -0.2295 -0.3608
16596TIP3    H171203   5.512   4.671  14.294 -0.2742  0.2944 -0.9700
16596TIP3    H271204   5.578   4.783  14.371  0.1499  0.2360 -1.2431
16597TIP3   OH271205   3.047   3.585  11.171  0.4836 -1.0060 -0.0559
16597TIP3    H171206   3.093   3.558  11.092  1.6220  0.0031  0.2263
16597TIP3    H271207   3.084   3.530  11.241  0.0078 -1.3954 -0.1146
16598TIP3   OH271208   2.310   0.519  16.175  0.0173  0.2613 -0.1670
16598TIP3    H171209   2.297   0.495  16.084 -1.0296  0.7763 -0.1577
16598TIP3    H271210   2.338   0.610  16.173  1.7144 -0.2437 -0.0651
16599TIP3   OH271211   4.977   5.442  12.288  0.6262  0.4415  0.4970
16599TIP3    H171212   5.025   5.499  12.229  1.6680  0.2213  1.1289
16599TIP3    H271213   4.886   5.449  12.259  1.3078 -0.9721 -2.2646
16600TIP3   OH271214   5.732   6.376   4.285 -0.1484  0.1803 -0.3281
16600TIP3    H171215   5.808   6.404   4.233  0.2097 -0.6320 -0.2400
16600TIP3    H271216   5.770   6.336   4.363 -0.6856  0.9692  0.3449
16601TIP3   OH271217   0.361   0.431  11.814 -1.1797 -0.0248 -0.4594
16601TIP3    H171218   0.359   0.522  11.844  0.8579 -0.0165 -0.3154
16601TIP3    H271219   0.429   0.389  11.867 -1.0866 -1.2858 -1.5391
16602TIP3   OH271220   3.585   1.307   0.449 -0.3636 -0.1877  0.0970
16602TIP3    H171221   3.620   1.335   0.364 -0.9224 -0.4822 -0.2359
16602TIP3    H271222   3.647   1.240   0.479  0.1591  0.3422  0.1965
16603TIP3   OH271223   3.957   4.669   4.127 -0.1739  0.7298 -0.4934
16603TIP3    H171224   3.929   4.622   4.048  2.0163 -0.0153 -0.8713
16603TIP3    H271225   3.918   4.756   4.118 -1.4712  0.0791 -1.4796
16604TIP3   OH271226   6.675   2.541   0.694  0.6548 -0.3312  0.0637
16604TIP3    H171227   6.728   2.543   0.614  0.8803 -2.3611  0.1500
16604TIP3    H271228   6.684   2.629   0.730  1.2996  0.3347 -1.6557
16605TIP3   OH271229   6.329   6.608  13.781  0.4233 -0.0324 -0.2442
16605TIP3    H171230   6.290   6.537  13.730 -0.9223  1.1686 -0.9494
16605TIP3    H271231   6.326   6.578  13.871  1.8815 -1.7716 -0.7414
16606TIP3   OH271232   1.348   6.295  15.718  0.4543  0.0984 -0.3188
16606TIP3    H171233   1.396   6.378  15.719  2.0059 -0.7742 -0.2753
16606TIP3    H271234   1.346   6.268  15.810  1.3842 -0.6852 -0.5098
16607TIP3   OH271235   4.529   4.673   0.601  0.3484  0.3041  0.0009
16607TIP3    H171236   4.551   4.586   0.635 -1.4665  0.5885  1.9924
16607TIP3    H271237   4.500   4.657   0.511 -3.1038 -1.5941  1.3748
16608TIP3   OH271238   5.800   5.420  16.004 -0.2230 -0.1277  0.0067
16608TIP3    H171239   5.885   5.426  15.961 -0.8071  0.8414 -1.0632
16608TIP3    H271240   5.777   5.511  16.024 -1.8773 -0.1746 -1.5233
16609TIP3   OH271241   3.843   5.509   5.507  0.6263 -0.4683  0.4150
16609TIP3    H171242   3.842   5.495   5.602  1.8788  0.9408  0.6650
16609TIP3    H271243   3.751   5.509   5.481  0.3458 -3.1701  1.2562
16610TIP3   OH271244   5.859   0.551  11.530  0.2306 -0.3807 -0.7695
16610TIP3    H171245   5.789   0.597  11.483 -1.2381 -2.4023 -0.5936
16610TIP3    H271246   5.894   0.490  11.466  1.5829  0.3424 -0.7317
16611TIP3   OH271247   4.398   3.669  14.725  0.0186 -0.4342 -0.1205
16611TIP3    H171248   4.382   3.637  14.814 -3.1885  1.4629  0.0588
16611TIP3    H271249   4.393   3.764  14.732  3.2189 -0.0628 -1.7599
16612TIP3   OH271250   6.151   6.557   3.693  0.1218 -0.3373 -0.1987
16612TIP3    H171251   6.237   6.585   3.725 -0.1479 -0.6353  0.8163
16612TIP3    H271252   6.131   6.479   3.745 -0.5342 -0.5614 -0.7892
16613TIP3   OH271253   5.827   5.347   5.204  0.2403  0.5730 -0.4536
16613TIP3    H171254   5.836   5.359   5.298 -1.8783 -3.9372  0.4639
16613TIP3    H271255   5.746   5.395   5.181 -1.7119 -1.9757  0.9091
16614TIP3   OH271256   1.456   6.502  13.906 -0.0951 -0.0848 -0.1257
16614TIP3    H171257   1.522   6.437  13.929 -1.3271 -0.5549  2.1339
16614TIP3    H271258   1.487   6.583  13.947 -1.1164 -0.3967  1.2776
16615TIP3   OH271259   3.622   2.285  15.440 -0.6426 -0.0593  0.1986
16615TIP3    H171260   3.603   2.374  15.410 -1.1845  0.2601  1.4376
16615TIP3    H271261   3.703   2.293  15.490 -2.1073  0.2697  2.6117
16616TIP3   OH271262   4.773   3.407   0.706  0.1950  0.5236  0.5279
16616TIP3    H171263   4.825   3.480   0.739  1.1522  1.1149 -2.1962
16616TIP3    H271264   4.690   3.447   0.678  0.1927  0.3575  0.2959
16617TIP3   OH271265   4.227   5.612   0.971  0.4499  0.1354  0.2022
16617TIP3    H171266   4.208   5.673   1.041  0.1307  0.0139  0.2247
16617TIP3    H271267   4.263   5.666   0.900 -0.6812  0.4796 -0.1140
16618TIP3   OH271268   3.119   5.268   6.777  0.6180  0.0374  0.1201
16618TIP3    H171269   3.104   5.193   6.720  0.1099 -0.5388  0.9895
16618TIP3    H271270   3.206   5.253   6.814  0.7494  0.1656 -0.1365
16619TIP3   OH271271   2.475   4.868   2.473  0.3149  0.1330 -0.9353
16619TIP3    H171272   2.442   4.779   2.460 -0.1777  0.3810 -1.3880
16619TIP3    H271273   2.407   4.924   2.435  0.1865  0.7363  0.1721
16620TIP3   OH271274   1.976   1.606  13.418 -0.0502  0.1762 -0.6195
16620TIP3    H171275   2.069   1.623  13.399  0.2216  0.2898  0.8027
16620TIP3    H271276   1.950   1.677  13.476 -1.2994  0.6843 -1.7901
16621TIP3   OH271277   3.190   3.635   1.268  0.7060  0.6049 -0.0532
16621TIP3    H171278   3.118   3.572   1.265  0.9698  0.2737  0.7141
16621TIP3    H271279   3.181   3.684   1.186  0.2464 -0.1418 -0.4555
16622TIP3   OH271280   5.495   4.133  13.013  0.0065 -0.3018  0.1712
16622TIP3    H171281   5.406   4.110  13.037 -0.5578  0.8159 -0.8283
16622TIP3    H271282   5.493   4.228  13.001  0.8842 -0.4998 -1.7049
16623TIP3   OH271283   3.664   5.489  16.579  0.0273 -0.1050  0.4754
16623TIP3    H171284   3.748   5.444  16.584 -0.4276 -1.2608 -1.7471
16623TIP3    H271285   3.654   5.530  16.665  2.0171 -1.4285  1.3811
16624TIP3   OH271286   4.903   1.761  16.624  0.7254 -0.1811 -0.2595
16624TIP3    H171287   4.831   1.789  16.568  0.2854  2.0395  1.3299
16624TIP3    H271288   4.966   1.722  16.564 -0.1717  1.2067 -2.1818
16625TIP3   OH271289   0.689   6.471  16.300 -0.8004 -0.2929 -0.5810
16625TIP3    H171290   0.783   6.483  16.285 -1.0875  1.7506 -1.0201
16625TIP3    H271291   0.675   6.501  16.390 -1.0337 -0.5801 -0.5211
16626TIP3   OH271292   4.304   3.702  17.061  0.3332 -0.1117 -0.4309
16626TIP3    H171293   4.380   3.709  17.119 -0.4603 -1.8368  0.8815
16626TIP3    H271294   4.282   3.609  17.062 -2.0013  0.4085 -0.5177
16627TIP3   OH271295   2.331   3.293   1.529 -0.1499  0.4230  0.3812
16627TIP3    H171296   2.384   3.215   1.542 -1.9432 -1.1230 -1.2096
16627TIP3    H271297   2.310   3.324   1.617  1.0285 -0.5624  1.0198
16628TIP3   OH271298   2.630   6.719   0.107  0.1043 -0.0661 -0.4241
16628TIP3    H171299   2.697   6.727   0.175 -0.0085  0.3630 -0.3607
16628TIP3    H271300   2.679   6.703   0.026  0.4020  1.9033 -0.6699
16629TIP3   OH271301   3.705   3.142   5.037  0.2593 -0.0643  0.1059
16629TIP3    H171302   3.751   3.198   5.099  0.6198 -0.3460  0.0976
16629TIP3    H271303   3.688   3.198   4.961 -0.8746  0.5014  0.7585
16630TIP3   OH271304   4.646   1.816   2.241  0.0332 -0.2108  0.6499
16630TIP3    H171305   4.711   1.838   2.174  0.2875 -1.6202  0.4241
16630TIP3    H271306   4.607   1.734   2.211 -1.5829  0.4117  0.9866
16631TIP3   OH271307   1.276   0.655  11.093  0.4226  0.2540 -0.3845
16631TIP3    H171308   1.363   0.654  11.054 -0.3532 -0.1499 -2.1204
16631TIP3    H271309   1.221   0.703  11.031 -0.4245  1.3070  1.1136
16632TIP3   OH271310   1.014   4.175   2.121 -0.0173  1.1581 -0.1212
16632TIP3    H171311   0.921   4.165   2.141  0.8032 -1.3206  2.8610
16632TIP3    H271312   1.049   4.223   2.195  1.7160 -1.1410  0.5845
16633TIP3   OH271313   0.870   2.604   4.369  0.2164 -0.2100  0.9188
16633TIP3    H171314   0.860   2.514   4.339  0.1851 -0.3781  1.4385
16633TIP3    H271315   0.926   2.645   4.303  0.7278 -0.7711  1.0043
16634TIP3   OH271316   3.061   6.344   5.645 -0.2835 -0.2989 -0.1436
16634TIP3    H171317   3.091   6.435   5.652 -0.1617 -0.4675  1.9733
16634TIP3    H271318   3.086   6.318   5.557  1.3361  1.1565 -0.1534
16635TIP3   OH271319   2.601   5.413  12.024 -0.6644 -0.1234  0.0386
16635TIP3    H171320   2.678   5.391  11.971 -0.9162 -0.7779 -0.0624
16635TIP3    H271321   2.635   5.427  12.112 -0.4857 -0.7946  0.0722
16636TIP3   OH271322   4.680   0.812   1.524 -0.0966 -0.4019  0.1744
16636TIP3    H171323   4.773   0.788   1.520 -0.2501 -0.7431 -1.9772
16636TIP3    H271324   4.674   0.893   1.474 -0.9706 -0.4081  0.2590
16637TIP3   OH271325   3.773   5.684  15.086  0.0784 -0.4339 -0.4078
16637TIP3    H171326   3.758   5.701  15.179  1.8568 -2.7073  0.3197
16637TIP3    H271327   3.859   5.643  15.082  0.8525  1.3055 -3.2590
16638TIP3   OH271328   3.945   0.454  16.089  0.2568 -0.2906 -0.0216
16638TIP3    H171329   3.871   0.514  16.096 -0.8171 -1.4172 -1.3285
16638TIP3    H271330   3.910   0.378  16.042  2.7712  0.0357 -2.5856
16639TIP3   OH271331   4.746   3.033   4.561  0.3812 -0.0089 -0.0491
16639TIP3    H171332   4.802   2.956   4.572  0.2638  0.1832  2.1162
16639TIP3    H271333   4.804   3.100   4.524  0.5366 -1.0360 -1.7274
16640TIP3   OH271334   4.335   5.125  17.034 -0.3510  0.5235 -0.1336
16640TIP3    H171335   4.380   5.209  17.027 -0.4344  0.4305 -2.2818
16640TIP3    H271336   4.370   5.085  17.113  1.1554  1.7273 -0.1638
16641TIP3   OH271337   3.282   0.668  15.394  0.3549  0.3559 -0.0118
16641TIP3    H171338   3.221   0.740  15.416 -0.0752 -0.8172  2.8159
16641TIP3    H271339   3.365   0.694  15.435  0.4973 -0.2287  0.0681
16642TIP3   OH271340   1.367   3.932   3.117 -0.1630  0.2417 -0.2215
16642TIP3    H171341   1.405   4.000   3.062  0.7440 -1.5980 -1.9541
16642TIP3    H271342   1.425   3.928   3.194 -0.0195  1.1758 -0.2772
16643TIP3   OH271343   6.327   4.884  14.709  0.5405  0.1014  0.2199
16643TIP3    H171344   6.268   4.887  14.634 -0.1819  1.4116  0.8170
16643TIP3    H271345   6.291   4.814  14.764 -0.9290  1.3978  0.9452
16644TIP3   OH271346   3.654   3.977   1.055  0.2037 -0.2168  0.2215
16644TIP3    H171347   3.570   4.021   1.040  0.4994 -0.3869 -2.2978
16644TIP3    H271348   3.631   3.887   1.079 -0.3503 -0.2312 -0.3437
16645TIP3   OH271349   5.827   1.549  14.004  0.0311  0.6710  0.5215
16645TIP3    H171350   5.841   1.515  13.915 -1.0594  0.7238  0.3154
16645TIP3    H271351   5.884   1.495  14.059  0.7341  0.6499 -0.2080
16646TIP3   OH271352   0.432   1.785   1.324 -0.0264  0.1200  0.7671
16646TIP3    H171353   0.337   1.780   1.334  0.0056  0.6111  1.3743
16646TIP3    H271354   0.455   1.707   1.275 -0.6373 -0.5013  1.4582
16647TIP3   OH271355   1.045   6.335  15.566 -0.0111 -0.6285 -0.1708
16647TIP3    H171356   1.028   6.344  15.660  2.0793  0.0466  0.1732
16647TIP3    H271357   1.035   6.241  15.548  0.5466 -0.9024  0.9321
16648TIP3   OH271358   4.638   0.252   4.575  0.8567  0.4843  0.0159
16648TIP3    H171359   4.564   0.300   4.538  0.3302 -0.6894 -0.5040
16648TIP3    H271360   4.688   0.222   4.498  0.8380 -0.3114  0.3034
16649TIP3   OH271361   1.867   5.237  15.344  0.0265  1.0004  0.5406
16649TIP3    H171362   1.874   5.304  15.413  0.1445  1.8452 -0.2864
16649TIP3    H271363   1.944   5.251  15.290 -1.3535  1.9919 -1.2176
16650TIP3   OH271364   2.823   3.012   3.309  0.5780 -0.4467 -0.7905
16650TIP3    H171365   2.907   2.982   3.274  0.7269  0.5988 -1.3569
16650TIP3    H271366   2.799   3.086   3.253 -0.7223 -0.7369 -0.6360
16651TIP3   OH271367   3.249   6.780   3.675  0.1041 -0.0068  0.2799
16651TIP3    H171368   3.327   6.837   3.675 -0.0414  0.1915  0.0609
16651TIP3    H271369   3.281   6.696   3.643 -0.1239  0.5571 -1.4918
16652TIP3   OH271370   4.395   4.009   2.082  0.1654 -0.0475  0.4067
16652TIP3    H171371   4.488   3.990   2.075  0.4741  1.1692  1.1759
16652TIP3    H271372   4.381   4.031   2.174 -0.6269  1.0540  0.0309
16653TIP3   OH271373   2.839   0.062  16.321 -0.4982 -0.0951  0.1847
16653TIP3    H171374   2.851  -0.028  16.350  0.8026  0.0516  0.0895
16653TIP3    H271375   2.758   0.060  16.269  0.0159 -1.3728 -0.5723
16654TIP3   OH271376   1.839   5.853   3.734 -0.0416 -0.3946  0.5680
16654TIP3    H171377   1.798   5.925   3.783  0.2174 -0.2295  0.5425
16654TIP3    H271378   1.787   5.846   3.654 -0.0935 -0.2658  0.5903
16655TIP3   OH271379   5.656   2.142   2.960 -0.4556 -0.5232 -0.0029
16655TIP3    H171380   5.714   2.133   3.036  0.5483  1.0512 -0.5616
16655TIP3    H271381   5.712   2.126   2.885 -1.5103 -2.3267 -0.4162
16656TIP3   OH271382   6.180   2.107   3.392 -0.2106 -0.4091 -0.4757
16656TIP3    H171383   6.117   2.177   3.408  0.9177  0.5600 -0.2358
16656TIP3    H271384   6.224   2.094   3.476  1.2040  0.2132 -1.1073
16657TIP3   OH271385   4.663   4.129  12.701  0.6513  0.2584  0.0671
16657TIP3    H171386   4.639   4.170  12.784  1.3412 -2.2043  1.5331
16657TIP3    H271387   4.612   4.177  12.635 -0.8155  1.4899  2.0308
16658TIP3   OH271388   6.772   5.061  16.847 -0.2365  0.4070  0.1341
16658TIP3    H171389   6.853   5.018  16.875 -1.6194 -1.1026  1.9046
16658TIP3    H271390   6.747   5.016  16.766  1.3601  1.7345 -1.1176
16659TIP3   OH271391   4.335   3.800  15.991 -0.0584  0.2926 -0.6821
16659TIP3    H171392   4.404   3.749  16.034 -0.9085 -1.0807 -0.9220
16659TIP3    H271393   4.354   3.891  16.014  0.5602 -0.2728  1.0812
16660TIP3   OH271394   3.445   2.567  16.248  0.2658  0.0144  0.3686
16660TIP3    H171395   3.415   2.561  16.158  0.4276 -2.2879  0.4317
16660TIP3    H271396   3.527   2.615  16.243  0.0551  0.2704 -0.6600
16661TIP3   OH271397   4.042   4.396   5.937 -0.6785 -0.3489  0.0782
16661TIP3    H171398   3.987   4.318   5.924 -0.6440 -0.4594  0.5702
16661TIP3    H271399   3.986   4.456   5.986  0.0610 -0.9651  1.7128
16662TIP3   OH271400   4.639   2.018   1.439  0.1396 -0.3390 -0.0557
16662TIP3    H171401   4.566   1.964   1.470 -0.1537  0.9012  1.4084
16662TIP3    H271402   4.603   2.106   1.431  0.8274 -0.1794 -1.7144
16663TIP3   OH271403   2.449   2.629  12.379 -0.6927  0.4113  0.3377
16663TIP3    H171404   2.358   2.607  12.397 -0.9893  1.1996 -0.1602
16663TIP3    H271405   2.452   2.725  12.386 -0.6267  0.6961 -2.8863
16664TIP3   OH271406   0.698   0.558  12.597  0.2594  0.1182 -0.4838
16664TIP3    H171407   0.673   0.538  12.506  1.1708 -0.4460 -0.6211
16664TIP3    H271408   0.723   0.650  12.595 -0.1601  0.2277 -0.7124
16665TIP3   OH271409   6.022   2.741   3.753  0.2549  0.2065  0.4193
16665TIP3    H171410   6.106   2.725   3.797  0.8997  0.6465 -0.6247
16665TIP3    H271411   5.987   2.819   3.796  1.2573  1.0988 -0.3606
16666TIP3   OH271412   0.739   1.801  12.162  0.0924 -0.1571 -0.2741
16666TIP3    H171413   0.717   1.797  12.069 -0.0145 -1.2414 -0.2105
16666TIP3    H271414   0.812   1.739  12.172 -0.4258 -0.6596  0.4939
16667TIP3   OH271415   2.671   4.406   4.641  0.1865  0.4390  0.5428
16667TIP3    H171416   2.694   4.468   4.710  0.1495 -1.6303  2.4592
16667TIP3    H271417   2.578   4.421   4.624  0.3442  1.3657  0.4849
16668TIP3   OH271418   5.406   2.721   1.297 -0.4381 -0.5220  0.0243
16668TIP3    H171419   5.491   2.703   1.337  0.8841  0.4251 -2.2936
16668TIP3    H271420   5.353   2.644   1.319  1.2795 -1.5346  0.7386
16669TIP3   OH271421   1.915   4.840   4.367  0.4062 -0.3829  0.7047
16669TIP3    H171422   1.979   4.856   4.298 -0.1989  0.4613  0.3326
16669TIP3    H271423   1.934   4.751   4.397  2.5652  0.3073  1.4760
16670TIP3   OH271424   2.173   3.361  16.309  0.6278  0.0017  0.0500
16670TIP3    H171425   2.110   3.311  16.362  2.6081 -0.1633  2.3083
16670TIP3    H271426   2.123   3.386  16.231 -1.8153 -1.3630  1.1051
16671TIP3   OH271427   5.476   4.164  10.854 -0.0477  0.0508 -0.3812
16671TIP3    H171428   5.433   4.250  10.855  1.3629  0.7943 -1.3551
16671TIP3    H271429   5.405   4.102  10.835 -1.1443  0.9499  0.7086
16672TIP3   OH271430   4.552   0.802  14.702  0.7419  0.0491 -0.2993
16672TIP3    H171431   4.627   0.861  14.691  1.0924 -0.3484 -0.0423
16672TIP3    H271432   4.477   0.861  14.713  0.8941  0.4457 -1.3323
16673TIP3   OH271433   4.641   5.072   3.648  0.4046  0.1980  0.2447
16673TIP3    H171434   4.695   5.147   3.624 -0.7447  1.0576  0.3146
16673TIP3    H271435   4.611   5.091   3.737 -0.0888 -0.2141  0.1699
16674TIP3   OH271436   4.011   2.475  13.365 -0.0770 -0.3488 -0.5291
16674TIP3    H171437   4.018   2.405  13.430 -0.8140 -1.4470 -1.6047
16674TIP3    H271438   3.967   2.547  13.411  1.6224 -0.1850  0.8799
16675TIP3   OH271439   1.221   3.036  13.911  0.9766 -0.0014  0.1820
16675TIP3    H171440   1.276   3.056  13.986  1.9852  3.5298 -1.4058
16675TIP3    H271441   1.181   3.119  13.887 -3.1595 -1.9752 -0.2766
16676TIP3   OH271442   3.231   6.219   1.092  0.0605 -0.3727 -0.1436
16676TIP3    H171443   3.274   6.281   1.150  0.5544 -1.0626  0.2288
16676TIP3    H271444   3.296   6.199   1.025  0.1112 -0.9529  0.0794
16677TIP3   OH271445   6.069   6.767   3.332  0.9081  0.1305 -0.1865
16677TIP3    H171446   6.102   6.856   3.345  0.6075  0.0638  1.0209
16677TIP3    H271447   6.142   6.721   3.290  0.4938  1.3639 -2.3316
16678TIP3   OH271448   5.996   0.419  11.717  0.1052 -0.2295  0.4974
16678TIP3    H171449   6.073   0.476  11.723 -0.1876  0.3181 -0.7830
16678TIP3    H271450   5.939   0.462  11.653  0.3243 -2.4573 -1.2558
16679TIP3   OH271451   5.875   5.009   1.425 -0.7056 -0.1505  0.1073
16679TIP3    H171452   5.807   4.985   1.487  0.2154  1.2525  1.7039
16679TIP3    H271453   5.850   5.096   1.394 -1.1983 -0.8613 -1.5746
16680TIP3   OH271454   0.915   1.984  16.088 -0.0789 -0.5092 -0.0303
16680TIP3    H171455   0.952   1.906  16.047 -0.2912  0.0891 -1.4167
16680TIP3    H271456   0.990   2.041  16.103 -0.2699  0.2761 -1.8833
16681TIP3   OH271457   3.052   2.183  10.564  0.0574  0.1005  0.3761
16681TIP3    H171458   3.087   2.102  10.525 -1.9198  0.0993 -1.4554
16681TIP3    H271459   3.042   2.162  10.657 -0.8799 -1.9174 -0.1613
16682TIP3   OH271460   1.750   6.051   6.588  0.4943  0.5112 -0.3879
16682TIP3    H171461   1.830   6.041   6.640 -0.2422  0.4203  0.7352
16682TIP3    H271462   1.772   6.010   6.504  1.2974 -0.4413  0.2637
16683TIP3   OH271463   3.043   5.785   2.914 -0.8494  0.1160  0.1253
16683TIP3    H171464   3.109   5.785   2.983 -0.0155  0.9691 -0.6483
16683TIP3    H271465   3.092   5.765   2.834 -1.3914  1.4687 -0.5589
16684TIP3   OH271466   3.604   4.692   4.843 -0.6198  0.1461  0.0210
16684TIP3    H171467   3.534   4.687   4.778 -0.0032  1.0207 -0.7272
16684TIP3    H271468   3.647   4.775   4.825  1.7300 -1.1660 -0.6871
16685TIP3   OH271469   6.475   4.619  15.277 -0.5484 -0.6800 -0.9852
16685TIP3    H171470   6.434   4.545  15.232  2.1544 -2.2132 -1.0381
16685TIP3    H271471   6.477   4.593  15.369 -2.6374  0.8265 -0.4758
16686TIP3   OH271472   0.994   4.813  12.379  0.0696 -0.7971  0.2087
16686TIP3    H171473   0.925   4.873  12.406 -0.0798 -1.2938  0.9445
16686TIP3    H271474   1.068   4.869  12.356  0.3669 -0.3755  2.1175
16687TIP3   OH271475   6.598   5.557  15.816  0.2271  0.2508 -0.1573
16687TIP3    H171476   6.580   5.465  15.797  2.6349 -0.7333  1.9585
16687TIP3    H271477   6.513   5.600  15.812 -0.9217 -2.0491 -1.2501
16688TIP3   OH271478   2.707   3.547   2.340  0.0958  0.3586  0.1452
16688TIP3    H171479   2.684   3.457   2.316  1.0635  0.3179 -0.6804
16688TIP3    H271480   2.651   3.567   2.415  0.0299 -1.0146  0.4779
16689TIP3   OH271481   5.355   0.969  12.482 -0.3206  0.1292 -0.0489
16689TIP3    H171482   5.284   0.916  12.519  0.0112  0.9160  1.7560
16689TIP3    H271483   5.315   1.015  12.409 -1.4289 -0.1495  0.3722
16690TIP3   OH271484   1.706   2.006  15.923 -0.1311 -0.0127 -0.0345
16690TIP3    H171485   1.747   2.024  16.008  1.3293  1.8636 -1.1027
16690TIP3    H271486   1.670   1.917  15.932  1.8354 -0.6498  1.8251
16691TIP3   OH271487   0.413   2.068   1.308 -0.0232  0.3083  0.6104
16691TIP3    H171488   0.506   2.085   1.292 -0.2347  0.2074 -0.7880
16691TIP3    H271489   0.408   1.974   1.321 -0.1521  0.0997 -0.9239
16692TIP3   OH271490   5.709   3.168   1.858  0.2249  0.0191  0.2851
16692TIP3    H171491   5.658   3.128   1.929 -1.6433  0.6380 -0.6546
16692TIP3    H271492   5.684   3.118   1.780 -1.2849  2.2595 -0.7046
16693TIP3   OH271493   1.956   4.852  12.544 -0.6991  0.0478 -0.0439
16693TIP3    H171494   1.932   4.761  12.564  0.7127 -0.3083  0.0941
16693TIP3    H271495   2.044   4.845  12.507  0.4307  1.5770  2.2468
16694TIP3   OH271496   4.576   4.923  13.235  0.0087  0.0754  0.5772
16694TIP3    H171497   4.535   4.986  13.176 -0.0479 -0.9169 -0.4683
16694TIP3    H271498   4.604   4.975  13.310  2.6140  1.8933 -1.5258
16695TIP3   OH271499   3.742   0.534   5.099 -0.1412 -0.6013 -0.1651
16695TIP3    H171500   3.810   0.561   5.160  0.9336 -0.1487 -1.5514
16695TIP3    H271501   3.690   0.613   5.084  0.7665 -0.2200 -1.3364
16696TIP3   OH271502   2.047   5.130  14.857 -0.1149  0.8474 -0.0532
16696TIP3    H171503   2.140   5.152  14.852 -0.1851  1.2315  0.3212
16696TIP3    H271504   2.035   5.096  14.946 -0.3743  0.9962 -0.0295
16697TIP3   OH271505   2.905   6.611  17.079 -0.2818 -0.0494 -0.1208
16697TIP3    H171506   2.834   6.590  17.018  1.0698  2.0802 -2.4876
16697TIP3    H271507   2.965   6.666  17.030  1.9778 -0.0177  2.4957
16698TIP3   OH271508   2.314   5.789  10.754  0.6755 -0.5495  0.0008
16698TIP3    H171509   2.403   5.754  10.764  0.2552 -1.0289  2.3475
16698TIP3    H271510   2.263   5.715  10.721  1.1083 -0.3116 -1.2164
16699TIP3   OH271511   5.645   2.374  15.819  0.4682  0.1803 -0.3719
16699TIP3    H171512   5.722   2.329  15.853  0.0045 -0.8507 -0.6523
16699TIP3    H271513   5.571   2.327  15.858 -0.0505 -0.3826 -1.9682
16700TIP3   OH271514   6.647   0.428  12.487 -0.1291  0.1851  0.4737
16700TIP3    H171515   6.577   0.478  12.444  0.7294  0.1728 -1.0097
16700TIP3    H271516   6.606   0.390  12.564 -1.0834  2.3529  1.0970
16701TIP3   OH271517   4.613   5.478   3.611 -0.4044 -0.2936 -0.0800
16701TIP3    H171518   4.533   5.438   3.577 -0.7108 -1.8800  2.3439
16701TIP3    H271519   4.682   5.415   3.594 -0.4171 -0.7410  1.3967
16702TIP3   OH271520   0.309   4.561   3.380 -0.1512 -0.3466  0.0741
16702TIP3    H171521   0.274   4.566   3.291 -2.0851  1.3803  0.9108
16702TIP3    H271522   0.387   4.618   3.378 -1.1947  1.0959 -0.0616
16703TIP3   OH271523   5.392   6.114   2.215 -0.2219 -1.0699 -0.0733
16703TIP3    H171524   5.419   6.067   2.137 -0.0110 -1.3249  0.1507
16703TIP3    H271525   5.444   6.075   2.286  0.9577  0.4124 -0.0878
16704TIP3   OH271526   1.203   3.579  15.021 -0.0246 -0.1211 -0.2868
16704TIP3    H171527   1.228   3.660  15.066  0.8119 -1.0276  0.9269
16704TIP3    H271528   1.280   3.522  15.030 -1.0777 -1.5189  0.0193
16705TIP3   OH271529   3.297   0.264   5.481 -0.0229  0.2792 -0.4931
16705TIP3    H171530   3.354   0.197   5.443  0.2270 -0.5429  1.2873
16705TIP3    H271531   3.258   0.222   5.557  0.6878  2.3808  1.0700
16706TIP3   OH271532   6.207   0.548   2.897  0.1057 -0.1563 -0.5491
16706TIP3    H171533   6.287   0.496   2.902 -0.6992 -1.2582  1.0269
16706TIP3    H271534   6.236   0.638   2.914  1.2086 -0.3389 -1.4030
16707TIP3   OH271535   5.613   4.089   4.307 -0.2357  0.4145 -0.3696
16707TIP3    H171536   5.686   4.116   4.364 -0.4656  0.2171  0.0182
16707TIP3    H271537   5.572   4.016   4.353  0.2859 -0.5076 -1.3538
16708TIP3   OH271538   4.809   5.176  15.858  0.3804 -0.3131  0.1592
16708TIP3    H171539   4.792   5.240  15.789  1.8887  1.8569  1.7431
16708TIP3    H271540   4.840   5.098  15.812  0.0624  0.6350 -1.6888
16709TIP3   OH271541   4.603   2.534  14.847  0.1607 -0.3015 -0.3548
16709TIP3    H171542   4.637   2.615  14.807  0.4757 -0.4719 -0.4304
16709TIP3    H271543   4.512   2.530  14.818 -0.0239  0.3346  0.1267
16710TIP3   OH271544   0.964   6.692  15.607 -0.4291  0.1813  0.9065
16710TIP3    H171545   1.045   6.660  15.647 -0.1822  0.4532  0.6291
16710TIP3    H271546   0.895   6.639  15.647 -0.0940 -0.1994  0.9932
16711TIP3   OH271547   3.665   6.072  10.858 -0.4717  0.3779  0.2826
16711TIP3    H171548   3.602   6.007  10.887 -0.5157  0.9248  1.4391
16711TIP3    H271549   3.662   6.140  10.924  0.3242  1.0692 -0.3751
16712TIP3   OH271550   2.449   1.996  16.996  0.0855  0.2985  0.7599
16712TIP3    H171551   2.368   1.987  16.946  0.7639 -0.9168 -0.1248
16712TIP3    H271552   2.496   1.914  16.982  1.7794  1.2440  0.7353
16713TIP3   OH271553   3.417   5.335   5.328 -0.0940 -0.4745  0.1724
16713TIP3    H171554   3.373   5.255   5.357 -0.9428 -0.0576  0.0470
16713TIP3    H271555   3.348   5.402   5.327  0.6530  0.3249  0.5211
16714TIP3   OH271556   1.430   5.179   5.039  0.0547 -0.1959 -0.3063
16714TIP3    H171557   1.504   5.120   5.029 -0.1089 -0.2357 -1.3913
16714TIP3    H271558   1.466   5.266   5.026  0.2333 -0.0707  0.9573
16715TIP3   OH271559   4.490   1.658  15.743 -0.8102 -0.6001 -0.1447
16715TIP3    H171560   4.462   1.745  15.771  0.1403 -0.4032  0.2078
16715TIP3    H271561   4.553   1.674  15.673 -1.3902 -1.0372 -0.7794
16716TIP3   OH271562   5.353   2.405   0.117 -0.0632  0.2661  0.2137
16716TIP3    H171563   5.426   2.388   0.177 -1.7050 -1.5867  1.7688
16716TIP3    H271564   5.315   2.487   0.149  1.3827  1.3155 -0.6923
16717TIP3   OH271565   2.138   6.735  12.127 -0.1845  0.1409  0.2881
16717TIP3    H171566   2.158   6.826  12.147 -1.0890  0.5726 -0.7534
16717TIP3    H271567   2.042   6.730  12.129 -0.0995 -1.2761  2.4584
16718TIP3   OH271568   1.319   3.670   1.838 -0.0367  0.1073  0.2519
16718TIP3    H171569   1.368   3.746   1.807  2.7196 -0.9122  1.8617
16718TIP3    H271570   1.297   3.690   1.929 -0.9096 -0.2636  0.1328
16719TIP3   OH271571   1.964   5.840   5.792 -0.7109 -0.0725  0.3934
16719TIP3    H171572   1.962   5.872   5.882 -3.6153  2.0151 -0.3494
16719TIP3    H271573   1.901   5.768   5.791 -1.5519  0.6598 -0.2032
16720TIP3   OH271574   4.862   5.501  13.517  0.3191  0.6950  0.4040
16720TIP3    H171575   4.780   5.523  13.562  0.2958  1.2688  0.0869
16720TIP3    H271576   4.844   5.520  13.425  0.5112 -0.0560  0.2081
16721TIP3   OH271577   1.217   6.158  16.554  0.0632 -0.1693 -0.0445
16721TIP3    H171578   1.312   6.149  16.546  0.2497  1.8156 -0.1209
16721TIP3    H271579   1.187   6.069  16.575  2.1734 -0.3772  2.4030
16722TIP3   OH271580   3.949   5.748  13.257  0.3217 -0.3854 -0.1249
16722TIP3    H171581   3.952   5.843  13.249  1.0088 -0.4239 -0.3574
16722TIP3    H271582   3.889   5.719  13.187 -2.5420  0.1070  2.0141
16723TIP3   OH271583   1.520   4.341   1.154  0.2558  0.4591 -0.1705
16723TIP3    H171584   1.563   4.282   1.092 -1.9515 -1.9071  0.4608
16723TIP3    H271585   1.538   4.303   1.240 -1.7803  0.2687  0.1981
16724TIP3   OH271586   4.719   2.656   0.365  0.2649 -0.3471 -0.1710
16724TIP3    H171587   4.631   2.681   0.396 -0.1029 -1.3907 -0.3697
16724TIP3    H271588   4.774   2.730   0.391 -0.8476  0.7621 -0.8928
16725TIP3   OH271589   0.689   1.821   1.933  0.1808 -0.2617 -0.1458
16725TIP3    H171590   0.708   1.803   1.841  1.1535 -0.8627  0.1619
16725TIP3    H271591   0.688   1.916   1.939  1.1676 -0.2123 -0.5793
16726TIP3   OH271592   3.103   1.873   4.606  0.1780 -0.1928 -0.0930
16726TIP3    H171593   3.169   1.871   4.675 -0.2808  1.4773  0.4199
16726TIP3    H271594   3.051   1.794   4.621 -0.2043  0.3637  1.7965
16727TIP3   OH271595   0.118   4.630  17.148  0.1886 -0.4292  0.7061
16727TIP3    H171596   0.197   4.606  17.196  0.7770  1.2975  0.6395
16727TIP3    H271597   0.103   4.556  17.088  3.6993  0.6499 -1.6693
16728TIP3   OH271598   1.431   4.910   0.148 -0.2720 -0.3448 -0.5318
16728TIP3    H171599   1.506   4.921   0.206 -0.5239 -1.3803  0.0053
16728TIP3    H271600   1.415   4.997   0.112 -0.3307  0.3841  1.2252
16729TIP3   OH271601   2.383   1.677   5.762 -0.2014 -0.5631 -0.1818
16729TIP3    H171602   2.476   1.678   5.742 -0.5486 -1.6958 -1.8980
16729TIP3    H271603   2.366   1.589   5.796 -0.3599  0.1395  1.6575
16730TIP3   OH271604   4.781   5.630  11.146  0.4647  0.1121 -0.0617
16730TIP3    H171605   4.768   5.545  11.186 -1.1696  1.3363  2.0853
16730TIP3    H271606   4.843   5.675  11.204  0.7863  0.6547 -0.8068
16731TIP3   OH271607   6.490   4.995  14.888  0.0671  0.9018 -0.1809
16731TIP3    H171608   6.508   4.932  14.958 -0.1681  0.3299 -0.6237
16731TIP3    H271609   6.456   4.941  14.816 -0.6753  1.6158 -0.3682
16732TIP3   OH271610   3.286   4.397   5.402 -0.2101  0.3117  0.0965
16732TIP3    H171611   3.303   4.426   5.313  0.0928  0.0302  0.0618
16732TIP3    H271612   3.297   4.302   5.398  1.6923  0.4869  0.8611
16733TIP3   OH271613   1.651   4.143   6.023 -1.3871  0.3765 -0.7957
16733TIP3    H171614   1.654   4.062   6.073  0.0272  0.8820 -0.0533
16733TIP3    H271615   1.605   4.205   6.079  1.7330  1.4523  0.6723
16734TIP3   OH271616   2.561   5.298  12.371 -0.2307  0.0454  0.3203
16734TIP3    H171617   2.578   5.393  12.373  0.7572 -0.1388  1.0496
16734TIP3    H271618   2.636   5.260  12.416 -0.0573 -1.1599 -0.9709
16735TIP3   OH271619   2.698   6.411  10.802 -0.1565  0.0233 -0.4110
16735TIP3    H171620   2.651   6.492  10.822  3.1306  2.0457 -0.5364
16735TIP3    H271621   2.775   6.413  10.858 -0.1932 -3.2717 -0.1120
16736TIP3   OH271622   4.353   1.237  16.100 -0.1521 -0.1577  0.2119
16736TIP3    H171623   4.402   1.202  16.174  0.7858 -1.7158 -1.1052
16736TIP3    H271624   4.268   1.193  16.104 -0.3231  0.2102  0.6930
16737TIP3   OH271625   2.387   1.989   3.562 -0.0602 -0.0254  0.1312
16737TIP3    H171626   2.309   2.029   3.602  0.9489  0.3828  1.7109
16737TIP3    H271627   2.361   1.974   3.471 -2.1847 -0.4244  0.7709
16738TIP3   OH271628   3.341   5.245   1.862 -0.2246  0.1861 -0.2800
16738TIP3    H171629   3.354   5.330   1.904 -0.3007 -0.0754  0.2866
16738TIP3    H271630   3.260   5.211   1.901  0.1084 -0.3937 -0.0842
16739TIP3   OH271631   6.344   2.178  12.403  0.1291 -0.4702 -0.1464
16739TIP3    H171632   6.256   2.192  12.440 -0.1344  1.6293 -1.4752
16739TIP3    H271633   6.364   2.261  12.359  2.3367 -1.3266 -0.7762
16740TIP3   OH271634   3.598   1.737   1.068  0.1530  0.1149  0.0917
16740TIP3    H171635   3.548   1.799   1.016  1.2707  1.0721  0.1397
16740TIP3    H271636   3.586   1.653   1.024  0.1442  0.7034 -1.0329
16741TIP3   OH271637   2.356   6.587   1.331 -0.3547  1.1299  0.2587
16741TIP3    H171638   2.437   6.589   1.382 -1.4119 -0.2761  2.0682
16741TIP3    H271639   2.364   6.660   1.270  2.1137  1.2196  0.6431
16742TIP3   OH271640   3.716   3.536   5.486 -0.4182 -0.0971 -0.2200
16742TIP3    H171641   3.713   3.632   5.491  1.3482 -0.1263  2.5008
16742TIP3    H271642   3.807   3.517   5.461 -0.8576 -1.0767 -1.1136
16743TIP3   OH271643   5.705   1.414   6.017  0.4620  0.1586 -0.3562
16743TIP3    H171644   5.727   1.321   6.019  0.1731  0.0068 -2.7495
16743TIP3    H271645   5.660   1.429   6.100  0.2931 -1.8961 -0.0292
16744TIP3   OH271646   1.745   0.287  11.165 -0.7858 -0.2320 -0.4605
16744TIP3    H171647   1.654   0.260  11.177 -1.7358  1.2888 -3.6303
16744TIP3    H271648   1.753   0.300  11.071  2.1389  1.6893  0.0092
16745TIP3   OH271649   6.590   6.224   0.966  0.9317 -0.2971  0.0722
16745TIP3    H171650   6.539   6.302   0.944  0.9949 -0.1590  0.4097
16745TIP3    H271651   6.597   6.226   1.061  1.8639 -0.1305  0.0028
16746TIP3   OH271652   0.648   5.972  12.821  0.3070 -0.0608 -0.0269
16746TIP3    H171653   0.675   5.919  12.746 -0.1459  0.3540 -0.4887
16746TIP3    H271654   0.727   6.021  12.845  0.4981 -0.3195 -0.1240
16747TIP3   OH271655   5.402   1.190  12.310  0.1367  0.0013  0.4028
16747TIP3    H171656   5.468   1.163  12.374 -1.2547  0.5689  2.1573
16747TIP3    H271657   5.367   1.272  12.346 -1.1033 -0.0020 -0.7729
16748TIP3   OH271658   1.897   0.711  16.339 -0.0011  0.4551 -0.6986
16748TIP3    H171659   1.847   0.782  16.299  0.1874  0.8625 -0.2309
16748TIP3    H271660   1.831   0.654  16.378 -0.1356  0.6128 -0.6944
16749TIP3   OH271661   1.963   0.806  11.413  0.5605 -0.2341 -0.1229
16749TIP3    H171662   2.006   0.773  11.334 -0.5333 -0.9811 -0.4091
16749TIP3    H271663   1.902   0.736  11.438  1.0381 -0.0960  1.4926
16750TIP3   OH271664   6.238   2.021   2.807 -0.0955 -0.4855 -0.0026
16750TIP3    H171665   6.172   1.956   2.782  0.3938 -1.4161  1.1133
16750TIP3    H271666   6.191   2.104   2.803 -0.8851 -0.9525 -0.8615
16751TIP3   OH271667   3.154   0.154   5.215  0.2671 -0.0333  0.1422
16751TIP3    H171668   3.246   0.162   5.240  0.3154 -1.0419  0.3148
16751TIP3    H271669   3.137   0.060   5.216 -0.1558 -0.0182 -2.1367
16752TIP3   OH271670   5.615   6.591   1.533 -0.0712  0.3057 -0.0751
16752TIP3    H171671   5.666   6.522   1.491 -1.7129 -0.1396 -1.3686
16752TIP3    H271672   5.628   6.668   1.478  0.7248  0.7020  0.6550
16753TIP3   OH271673   4.844   0.386  16.393  0.1781 -0.2219 -0.1744
16753TIP3    H171674   4.871   0.326  16.463  2.0841  1.5498  0.6838
16753TIP3    H271675   4.910   0.373  16.324 -1.7874 -2.0838 -1.7533
16754TIP3   OH271676   2.984   1.992   4.061 -0.7111  0.0227  0.2809
16754TIP3    H171677   2.985   1.916   4.003  0.2728  0.3432 -0.1385
16754TIP3    H271678   3.062   1.982   4.116  0.7720  1.9228 -1.3843
16755TIP3   OH271679   0.067   0.250  15.119 -0.2335  0.5011 -0.0158
16755TIP3    H171680   0.052   0.322  15.058  0.1079 -0.2863 -1.0401
16755TIP3    H271681   0.097   0.293  15.200 -1.0470  1.5664 -0.2724
16756TIP3   OH271682   6.002   1.589   1.069 -0.0520 -0.1777 -0.2236
16756TIP3    H171683   6.027   1.570   0.978 -1.4468 -2.1919 -0.2302
16756TIP3    H271684   5.939   1.660   1.062  1.1909  0.9105 -0.6676
16757TIP3   OH271685   6.180   0.338   5.369 -0.4096  0.2410 -0.4688
16757TIP3    H171686   6.258   0.394   5.373 -0.1037 -0.2594  0.9041
16757TIP3    H271687   6.122   0.382   5.308 -0.9187  2.9983  1.9159
16758TIP3   OH271688   5.575   5.187   5.303 -0.2546 -0.1314  0.5908
16758TIP3    H171689   5.668   5.166   5.298 -0.4074 -0.9135  0.9679
16758TIP3    H271690   5.531   5.112   5.263 -0.7327  0.2060  0.4722
16759TIP3   OH271691   5.151   5.829   3.590 -0.0151 -0.4186 -0.0799
16759TIP3    H171692   5.097   5.887   3.643 -0.3537 -2.5222  1.9472
16759TIP3    H271693   5.215   5.793   3.652  0.8454 -1.4073 -1.5188
16760TIP3   OH271694   1.723   3.579  14.164 -0.4095 -0.5773  0.4314
16760TIP3    H171695   1.808   3.553  14.129  0.4681  0.1430  1.9893
16760TIP3    H271696   1.660   3.524  14.118  0.8116 -0.4561 -1.4362
16761TIP3   OH271697   2.715   3.998  11.970 -0.0749  0.0052 -0.0908
16761TIP3    H171698   2.637   3.946  11.989 -1.1988  2.1187  1.2118
16761TIP3    H271699   2.710   4.012  11.875  0.0759 -1.9413 -0.4177
16762TIP3   OH271700   2.664   0.173   4.343 -0.3399  0.5604 -0.3384
16762TIP3    H171701   2.578   0.131   4.336 -1.5619  2.9632 -0.3111
16762TIP3    H271702   2.690   0.190   4.253  0.6403 -1.1626 -0.3956
16763TIP3   OH271703   2.766   1.383   3.332 -0.4159 -0.5840  0.3838
16763TIP3    H171704   2.737   1.426   3.252 -1.0277  0.9882  1.4072
16763TIP3    H271705   2.696   1.401   3.395  1.3571  0.7033  2.0716
16764TIP3   OH271706   3.570   0.876   2.530  0.1773 -0.3879  0.1057
16764TIP3    H171707   3.500   0.904   2.471 -1.9728 -3.9383  0.8363
16764TIP3    H271708   3.633   0.831   2.474  0.2934  0.0424 -0.1071
16765TIP3   OH271709   6.341   0.020   5.115  0.5069 -0.5013  0.4413
16765TIP3    H171710   6.306  -0.039   5.181  0.9024 -0.0982  1.0217
16765TIP3    H271711   6.315  -0.018   5.031  0.1171 -1.0857  0.8292
16766TIP3   OH271712   1.396   1.493  12.586 -0.2259 -0.0374  0.1305
16766TIP3    H171713   1.427   1.576  12.551 -0.2672 -0.2583 -0.4319
16766TIP3    H271714   1.466   1.464  12.644  0.5091 -0.3976 -0.9237
16767TIP3   OH271715   2.056   2.497   2.756 -0.1813 -0.1125 -0.5588
16767TIP3    H171716   2.135   2.532   2.798  1.8771 -1.8592 -2.7744
16767TIP3    H271717   2.082   2.410   2.727 -3.3709 -1.2146 -0.2430
16768TIP3   OH271718   3.870   1.874   1.037  0.1654 -0.1654 -0.3728
16768TIP3    H171719   3.784   1.834   1.022  0.6744 -0.8800 -1.4645
16768TIP3    H271720   3.926   1.801   1.064  1.0459 -0.1858 -2.1668
16769TIP3   OH271721   6.105   5.650  15.704  0.0991 -0.1372 -0.0458
16769TIP3    H171722   6.103   5.610  15.791 -0.5731 -0.3003 -0.1276
16769TIP3    H271723   6.128   5.579  15.645 -0.0908 -0.1751 -0.0742
16770TIP3   OH271724   6.057   3.020   5.159  0.1214  0.4070 -0.1468
16770TIP3    H171725   6.094   3.108   5.172  3.0408 -0.8225  0.2901
16770TIP3    H271726   6.025   3.021   5.068  0.6402  1.7317 -0.3317
16771TIP3   OH271727   3.893   3.243   2.738  0.2189 -0.2970 -0.5690
16771TIP3    H171728   3.889   3.158   2.781  1.3702 -0.9500 -1.7005
16771TIP3    H271729   3.801   3.266   2.721 -0.0665 -1.6318 -0.8737
16772TIP3   OH271730   3.754   0.623  15.514 -0.8631 -0.0769 -0.7359
16772TIP3    H171731   3.803   0.562  15.459  1.4945  0.7707  0.3568
16772TIP3    H271732   3.767   0.591  15.603 -1.7071  0.5767 -0.3712
16773TIP3   OH271733   1.373   3.446   2.267  0.1799 -0.2704 -0.1174
16773TIP3    H171734   1.325   3.364   2.251  0.2882  0.1129 -2.6133
16773TIP3    H271735   1.308   3.504   2.305  0.1017 -1.5051  1.6911
16774TIP3   OH271736   1.399   4.292   2.439 -0.2662 -0.3890  0.3060
16774TIP3    H171737   1.339   4.318   2.369 -1.8426 -1.5895  1.1962
16774TIP3    H271738   1.455   4.368   2.452  1.3171 -0.7512 -3.5483
16775TIP3   OH271739   4.302   2.380   4.763  0.1431  0.0067 -0.2729
16775TIP3    H171740   4.335   2.391   4.674 -0.3025 -0.6050 -0.5166
16775TIP3    H271741   4.344   2.300   4.794 -0.7097 -0.5000 -0.4071
16776TIP3   OH271742   0.817   0.785   3.287  0.1519  0.4523  0.2770
16776TIP3    H171743   0.747   0.805   3.225 -1.0549 -0.8350  1.1730
16776TIP3    H271744   0.898   0.796   3.237 -0.6238  2.9038 -0.5095
16777TIP3   OH271745   0.982   5.065   4.988  0.3995  0.2820 -0.3098
16777TIP3    H171746   1.028   5.136   5.033  2.7873 -1.0770 -0.5241
16777TIP3    H271747   1.038   5.043   4.914 -0.8328 -1.1314 -0.8422
16778TIP3   OH271748   1.886   3.357   0.931  0.0286  0.2798  0.1347
16778TIP3    H171749   1.819   3.303   0.972  1.3598 -1.2639  0.3292
16778TIP3    H271750   1.846   3.388   0.850 -0.8784 -0.6686  0.2154
16779TIP3   OH271751   3.422   1.146   5.685  0.4260  0.0547 -0.3136
16779TIP3    H171752   3.432   1.219   5.623  3.3052 -0.7233 -0.8333
16779TIP3    H271753   3.474   1.171   5.761  0.0545 -0.7128  0.1983
16780TIP3   OH271754   2.951   5.097  15.986 -0.4396  0.3160 -0.3678
16780TIP3    H171755   3.011   5.158  16.029  0.7773 -0.7928 -0.4593
16780TIP3    H271756   2.931   5.138  15.902 -0.6380  1.1821  0.0981
16781TIP3   OH271757   2.923   2.756   1.670  0.0510 -0.1884 -0.2203
16781TIP3    H171758   2.914   2.705   1.751  1.5844 -2.2217 -1.2677
16781TIP3    H271759   3.012   2.738   1.640 -0.0208  1.6511 -1.6455
16782TIP3   OH271760   2.485   5.621  11.864 -0.0631 -0.2712  0.6412
16782TIP3    H171761   2.397   5.630  11.828  0.2893 -0.0531 -0.1822
16782TIP3    H271762   2.488   5.532  11.898  0.4007 -1.3776 -2.1262
16783TIP3   OH271763   0.749   6.532  15.728  0.4700  0.5806 -0.5627
16783TIP3    H171764   0.689   6.520  15.654  1.2680  0.1240 -1.1471
16783TIP3    H271765   0.722   6.615  15.768 -0.5877  0.3432 -0.7785
16784TIP3   OH271766   0.453   4.086   2.827  0.0808 -0.0279  0.5221
16784TIP3    H171767   0.443   3.991   2.829  0.6797 -0.0757  1.5226
16784TIP3    H271768   0.417   4.116   2.910  3.2269  0.2622  1.8332
16785TIP3   OH271769   6.236   0.574  15.165  0.1657 -0.5485 -0.0703
16785TIP3    H171770   6.143   0.576  15.185  0.2565  2.3298  0.2985
16785TIP3    H271771   6.258   0.481  15.159 -2.2566 -1.2897  2.0128
16786TIP3   OH271772   1.186   3.335  12.618 -0.2188  0.2672 -0.0504
16786TIP3    H171773   1.252   3.302  12.556  0.3101  1.9410 -0.3992
16786TIP3    H271774   1.133   3.258  12.639  1.2795 -0.9133 -0.4697
16787TIP3   OH271775   3.857   2.569   3.509  0.1952  0.3821  0.1114
16787TIP3    H171776   3.793   2.628   3.550  1.5949  1.8854  0.1470
16787TIP3    H271777   3.876   2.504   3.577 -1.0385  0.0989  0.2091
16788TIP3   OH271778   4.565   4.812   1.214  0.1888 -0.1523  0.2177
16788TIP3    H171779   4.643   4.802   1.158  0.8484  0.8185  0.9486
16788TIP3    H271780   4.493   4.824   1.152  0.4085 -2.3204 -0.5022
16789TIP3   OH271781   0.710   2.279  11.359  0.5264  0.8150  0.1262
16789TIP3    H171782   0.731   2.340  11.430  0.0656 -0.0141  0.9987
16789TIP3    H271783   0.619   2.254  11.375  0.3314  0.8383 -0.9270
16790TIP3   OH271784   1.078   6.266  16.265 -0.0301 -0.0752  0.0620
16790TIP3    H171785   1.128   6.208  16.322 -1.2954 -0.7083  0.5324
16790TIP3    H271786   1.015   6.210  16.221 -1.7291  1.0222  1.0317
16791TIP3   OH271787   2.552   4.908  16.955  0.2734  0.1219  0.1509
16791TIP3    H171788   2.571   4.853  16.879 -0.0021 -0.3279  0.4115
16791TIP3    H271789   2.457   4.905  16.964  0.3127  0.1099  0.5661
16792TIP3   OH271790   6.601   3.329   0.216 -0.3819  0.1428  0.5157
16792TIP3    H171791   6.619   3.319   0.310 -0.1871 -0.6928  0.3961
16792TIP3    H271792   6.686   3.348   0.177 -0.6603  1.7209  0.6649
16793TIP3   OH271793   3.557   6.031  16.433 -0.4824  0.2248 -0.0763
16793TIP3    H171794   3.485   6.068  16.382 -0.2176  0.5651 -0.2098
16793TIP3    H271795   3.521   5.950  16.470 -1.6726  1.5177  1.7176
16794TIP3   OH271796   3.136   6.304   0.729  0.9058  0.5433 -0.4089
16794TIP3    H171797   3.216   6.272   0.771  0.2894 -0.1719  0.2193
16794TIP3    H271798   3.082   6.337   0.801 -1.8125 -4.1801 -0.0996
16795TIP3   OH271799   2.574   0.590   4.096 -0.4441  0.1347  0.0768
16795TIP3    H171800   2.659   0.559   4.127  0.2089  1.0836 -0.7186
16795TIP3    H271801   2.553   0.532   4.022 -1.5519 -1.5173  1.6462
16796TIP3   OH271802   4.216   6.667   0.130  0.2385 -0.3289  0.1582
16796TIP3    H171803   4.180   6.741   0.080  2.5013  2.0615  1.9197
16796TIP3    H271804   4.151   6.650   0.198  0.2253  0.8523  0.4569
16797TIP3   OH271805   2.208   0.660  11.198  0.1899  0.0582  0.2512
16797TIP3    H171806   2.223   0.748  11.162  1.4247 -0.9236 -1.7719
16797TIP3    H271807   2.120   0.636  11.169  0.4600  0.0147 -0.5400
16798TIP3   OH271808   2.180   4.468  16.362  0.7788 -0.3842 -0.4254
16798TIP3    H171809   2.169   4.476  16.268 -1.1413 -1.4659 -0.3046
16798TIP3    H271810   2.202   4.557  16.391  0.0767  0.2161 -1.6975
16799TIP3   OH271811   2.532   1.749   3.568 -0.0354 -0.0729 -0.6597
16799TIP3    H171812   2.460   1.739   3.630 -0.3120  0.1010 -0.9541
16799TIP3    H271813   2.538   1.844   3.555  0.6786 -0.0391 -0.1217
16800TIP3   OH271814   3.639   2.021  13.565  0.8108  0.0795 -0.2240
16800TIP3    H171815   3.727   1.984  13.559 -0.1493 -2.2415 -0.6659
16800TIP3    H271816   3.599   2.002  13.480 -0.6910 -0.4943  0.5937
16801TIP3   OH271817   3.979   4.399  12.572  0.4239  0.1970  0.2064
16801TIP3    H171818   3.897   4.368  12.534 -0.7875  0.2315  2.7219
16801TIP3    H271819   4.040   4.401  12.498 -2.0294  0.9704 -1.8759
16802TIP3   OH271820   2.537   3.603   2.542  0.0589 -0.1999 -0.4548
16802TIP3    H171821   2.508   3.694   2.539  1.3941  0.3420  1.5773
16802TIP3    H271822   2.579   3.595   2.628  0.8049 -2.4640 -1.0108
16803TIP3   OH271823   1.789   0.646  13.874 -0.0130 -0.0847 -0.8110
16803TIP3    H171824   1.770   0.572  13.817  0.2512  0.8325 -2.0940
16803TIP3    H271825   1.753   0.722  13.829 -0.6744  0.5290  0.7030
16804TIP3   OH271826   0.754   1.784  13.839 -0.5638 -0.3759 -0.2421
16804TIP3    H171827   0.814   1.832  13.897 -1.7500 -0.1546  0.8112
16804TIP3    H271828   0.751   1.837  13.759  0.8621 -0.5382 -0.4228
16805TIP3   OH271829   6.719   6.624   2.840 -0.7295  0.3778  0.1655
16805TIP3    H171830   6.805   6.584   2.825 -1.2061 -0.7069  0.2910
16805TIP3    H271831   6.736   6.719   2.836  0.4333  0.1746  0.0008
16806TIP3   OH271832   4.304   5.451  15.008 -0.3927 -0.2242  0.7716
16806TIP3    H171833   4.292   5.361  15.036  0.3673 -1.0189 -1.3748
16806TIP3    H271834   4.325   5.499  15.088 -1.0335 -1.8976  1.9527
16807TIP3   OH271835   3.768   5.620   2.847 -0.1086  0.0128 -0.6793
16807TIP3    H171836   3.684   5.621   2.801  0.1239 -0.6502 -1.1325
16807TIP3    H271837   3.790   5.527   2.854 -1.0103 -0.0033  2.3936
16808TIP3   OH271838   3.850   6.764   3.135  0.1667 -0.4505  0.3844
16808TIP3    H171839   3.898   6.802   3.209  0.6943  3.7109 -1.9174
16808TIP3    H271840   3.778   6.715   3.175  1.5224  0.1497  3.6870
16809TIP3   OH271841   4.982   4.092   3.162 -0.0642  0.1755 -0.2160
16809TIP3    H171842   4.906   4.077   3.218 -0.1396 -0.4726 -0.4888
16809TIP3    H271843   4.949   4.083   3.073  0.5376 -1.1956 -0.3239
16810TIP3   OH271844   0.136   1.727   4.168  1.0837 -0.2176 -0.2582
16810TIP3    H171845   0.231   1.712   4.169  0.8680 -1.5939  1.3491
16810TIP3    H271846   0.108   1.712   4.259 -0.7059  0.0083 -0.7505
16811TIP3   OH271847   0.073   4.446  12.599 -0.3439  0.0598  0.2479
16811TIP3    H171848   0.039   4.528  12.636 -3.0655 -2.0855  2.8062
16811TIP3    H271849   0.071   4.384  12.673  1.2659 -2.4133 -1.7078
16812TIP3   OH271850   2.194   1.593  13.675  0.2400  0.2249 -0.1647
16812TIP3    H171851   2.181   1.555  13.588  1.4942  0.4291 -0.4498
16812TIP3    H271852   2.179   1.520  13.735  0.6879 -0.2435 -0.6165
16813TIP3   OH271853   0.134   1.139  14.912  0.1247 -0.1908  0.0337
16813TIP3    H171854   0.230   1.136  14.912  0.1142 -0.5433 -0.6288
16813TIP3    H271855   0.108   1.064  14.859 -0.5567 -1.4339  2.0956
16814TIP3   OH271856   0.677   0.934  10.806  0.2901 -0.5181 -0.1611
16814TIP3    H171857   0.633   1.000  10.861  1.6763 -0.1241  0.4852
16814TIP3    H271858   0.640   0.851  10.836 -0.7828 -0.1226 -0.3412
16815TIP3   OH271859   5.599   2.971   4.657  0.4659  1.0910 -0.0186
16815TIP3    H171860   5.552   3.036   4.710 -2.5948 -0.5498 -0.5955
16815TIP3    H271861   5.656   2.926   4.720  0.9104  2.7566  0.8102
16816TIP3   OH271862   2.774   1.345  14.537 -0.0153  0.3144  0.1586
16816TIP3    H171863   2.867   1.339  14.512 -0.2220  3.4275 -1.4617
16816TIP3    H271864   2.727   1.351  14.454 -1.4296  1.8252  1.0577
16817TIP3   OH271865   5.559   1.100   0.474 -0.9935 -0.2963 -0.0908
16817TIP3    H171866   5.650   1.119   0.453 -1.5900  0.2876 -2.3753
16817TIP3    H271867   5.556   1.095   0.569  1.2570  0.4990  0.0501
16818TIP3   OH271868   5.720   0.854  16.897  0.2454  0.1954  0.1853
16818TIP3    H171869   5.662   0.815  16.962 -1.1376 -0.7167 -1.5583
16818TIP3    H271870   5.805   0.812  16.913 -0.1584 -0.2798  1.1526
16819TIP3   OH271871   3.117   4.470  12.464  0.1444  0.1192  0.1751
16819TIP3    H171872   3.156   4.431  12.385 -0.7373 -0.9173  0.2294
16819TIP3    H271873   3.118   4.564  12.447  1.5301  0.0217 -0.3407
16820TIP3   OH271874   3.810   2.406  16.620 -0.1372 -0.2263  0.1949
16820TIP3    H171875   3.726   2.442  16.647 -1.3852 -0.3170 -3.3657
16820TIP3    H271876   3.865   2.483  16.606 -0.3016 -0.0706  0.4053
16821TIP3   OH271877   4.336   6.639   2.017  0.5823 -0.5313  0.0291
16821TIP3    H171878   4.411   6.613   2.071  0.4951 -0.7183  0.0624
16821TIP3    H271879   4.306   6.721   2.055  2.0260  0.6079 -1.2360
16822TIP3   OH271880   4.720   5.795   4.082  0.4502  0.0752 -0.2006
16822TIP3    H171881   4.640   5.844   4.099  0.6380  0.2939  0.0496
16822TIP3    H271882   4.789   5.846   4.124  0.6710 -0.3141 -0.0901
16823TIP3   OH271883   6.354   3.099  15.196  0.4109 -0.0410 -0.0213
16823TIP3    H171884   6.344   3.176  15.252 -0.9100 -0.7193  0.6938
16823TIP3    H271885   6.339   3.025  15.254  1.9570 -0.8689 -0.6399
16824TIP3   OH271886   1.760   6.349  15.623  0.1794 -0.1654 -0.1710
16824TIP3    H171887   1.790   6.277  15.567  1.7919 -0.7393  1.3763
16824TIP3    H271888   1.744   6.308  15.708 -0.0532  1.0932  0.4065
16825TIP3   OH271889   6.364   0.077   0.397 -0.5162 -0.0747  0.2679
16825TIP3    H171890   6.358  -0.018   0.387 -1.0585  0.1139 -1.3478
16825TIP3    H271891   6.352   0.092   0.491 -1.8297 -1.4994  0.3511
16826TIP3   OH271892   3.231   0.407  15.466 -0.2833  0.4744  0.2421
16826TIP3    H171893   3.271   0.494  15.468  0.2150  0.3140 -1.7525
16826TIP3    H271894   3.302   0.349  15.438 -1.1973 -0.2318 -0.6490
16827TIP3   OH271895   3.338   6.667   4.627 -0.2764  0.1343 -0.2584
16827TIP3    H171896   3.282   6.740   4.600 -0.1052  0.6576  0.7550
16827TIP3    H271897   3.330   6.665   4.723 -0.9513 -1.7225 -0.3371
16828TIP3   OH271898   1.121   4.086   1.043 -0.5215 -0.4160  0.1435
16828TIP3    H171899   1.203   4.114   1.003 -0.4112  0.1043  0.7283
16828TIP3    H271900   1.143   4.064   1.133 -0.7950 -1.4681 -0.0401
16829TIP3   OH271901   1.134   2.007  12.922 -0.0076  0.3672 -0.1597
16829TIP3    H171902   1.166   1.978  13.007  1.3472  1.4340 -0.2940
16829TIP3    H271903   1.202   2.066  12.889 -0.7507  0.3595 -1.7591
16830TIP3   OH271904   1.361   4.356   0.261  0.1382  0.5976  0.9776
16830TIP3    H171905   1.311   4.385   0.338 -0.7992  1.8724 -0.0830
16830TIP3    H271906   1.294   4.328   0.199  0.6799  2.6065 -0.5879
16831TIP3   OH271907   0.340   3.080  16.615  0.7159 -0.0157  0.1066
16831TIP3    H171908   0.278   3.027  16.665  2.2343  0.8336  2.9555
16831TIP3    H271909   0.410   3.101  16.676  1.9865  2.2087 -1.9976
16832TIP3   OH271910   0.747   3.827   5.092 -0.4089  0.1016 -0.6237
16832TIP3    H171911   0.690   3.890   5.048  0.6067  2.6327  1.5982
16832TIP3    H271912   0.689   3.778   5.149 -0.9780 -0.0315 -1.3076
16833TIP3   OH271913   2.397   1.772  14.212  0.8522 -0.4160  0.1709
16833TIP3    H171914   2.433   1.795  14.298  0.8287 -3.1839  0.9644
16833TIP3    H271915   2.473   1.762  14.155  1.0806 -1.5671  0.6601
16834TIP3   OH271916   1.436   2.778  16.017  0.2149 -1.4875  0.1122
16834TIP3    H171917   1.498   2.787  16.090 -0.6111 -0.9266  0.7588
16834TIP3    H271918   1.395   2.692  16.030 -1.1917 -0.6648  1.3355
16835TIP3   OH271919   5.193   6.490  11.093 -0.8019  0.1112  0.5017
16835TIP3    H171920   5.129   6.555  11.122  0.0197  1.0747  0.1915
16835TIP3    H271921   5.145   6.433  11.034 -1.2759  1.0790 -0.0604
16836TIP3   OH271922   2.226   4.123  12.339 -0.5972 -0.2110 -0.3194
16836TIP3    H171923   2.190   4.152  12.255  0.5856  0.2434 -0.6863
16836TIP3    H271924   2.268   4.202  12.375  0.7609 -0.9287 -0.3051
16837TIP3   OH271925   1.046   3.758  13.612 -0.2707  0.1881 -0.0812
16837TIP3    H171926   0.986   3.825  13.581 -1.6814 -1.4453 -0.9486
16837TIP3    H271927   1.104   3.804  13.673 -4.7621  1.0824  3.7628
16838TIP3   OH271928   6.656   2.493   0.261  0.2890  0.1258 -0.3631
16838TIP3    H171929   6.570   2.536   0.250  0.6182  0.8708 -0.0914
16838TIP3    H271930   6.656   2.463   0.352  0.6124  0.7986 -0.1375
16839TIP3   OH271931   0.836   3.648  15.694  0.4090  0.5820 -0.4491
16839TIP3    H171932   0.819   3.594  15.617 -0.2040  0.8904 -0.5330
16839TIP3    H271933   0.925   3.682  15.680  1.2555 -1.3023  0.1526
16840TIP3   OH271934   0.771   4.803  14.087 -0.5162 -0.0804 -0.5092
16840TIP3    H171935   0.713   4.779  14.015 -0.5987 -0.8550 -0.1847
16840TIP3    H271936   0.858   4.806  14.047 -0.4677 -1.2003 -0.4901
16841TIP3   OH271937   1.558   6.532  15.582 -0.3860 -0.2314  0.3537
16841TIP3    H171938   1.573   6.527  15.488  2.8359  2.3962  0.6371
16841TIP3    H271939   1.619   6.469  15.619  0.7557  1.1334  0.8351
16842TIP3   OH271940   2.732   3.022  12.002 -0.5834  0.5955  0.1305
16842TIP3    H171941   2.751   3.089  12.068  0.2684 -0.4858  0.9895
16842TIP3    H271942   2.817   2.999  11.965 -0.7302 -0.8739  0.6812
16843TIP3   OH271943   4.322   3.118  13.827 -0.1431 -0.2325 -0.4283
16843TIP3    H171944   4.390   3.059  13.860  1.2926  2.2982  1.3430
16843TIP3    H271945   4.328   3.112  13.732  0.4987 -2.3153 -0.2761
16844TIP3   OH271946   1.851   2.907   0.360 -0.5064  0.2262 -0.7235
16844TIP3    H171947   1.911   2.970   0.401  0.2163 -1.5258  0.9837
16844TIP3    H271948   1.907   2.837   0.329 -1.6670 -1.6321  1.2496
16845TIP3   OH271949   0.780   6.223   4.662 -0.3164 -0.0333  0.4272
16845TIP3    H171950   0.814   6.144   4.704  3.2148  0.3535 -1.4483
16845TIP3    H271951   0.769   6.199   4.570 -0.7051  1.2005  0.1326
16846TIP3   OH271952   5.417   0.638   3.543  0.1713  0.6424  0.2153
16846TIP3    H171953   5.426   0.587   3.462 -0.2799 -0.2668  0.7332
16846TIP3    H271954   5.502   0.632   3.585 -0.1404 -0.4703  0.7225
16847TIP3   OH271955   4.115   2.062  14.287 -1.0074 -0.1039  0.3819
16847TIP3    H171956   4.042   2.114  14.320 -1.8803 -0.7058 -0.5707
16847TIP3    H271957   4.075   1.981  14.256 -0.2529  0.5652 -2.4410
16848TIP3   OH271958   3.692   0.648  15.799 -0.7967 -0.3107 -0.0165
16848TIP3    H171959   3.680   0.742  15.793 -1.4555 -0.4088 -0.2151
16848TIP3    H271960   3.735   0.635  15.884  0.6642  0.2912 -0.6440
16849TIP3   OH271961   1.403   5.711   5.708 -0.6499  0.0670  0.1491
16849TIP3    H171962   1.359   5.703   5.792 -0.7126 -2.1347 -0.0531
16849TIP3    H271963   1.482   5.761   5.726 -0.4396 -0.7714  1.6127
16850TIP3   OH271964   2.102   4.315   3.585 -0.4646 -0.3006  0.3104
16850TIP3    H171965   2.108   4.235   3.637  0.8076 -0.4656 -0.0738
16850TIP3    H271966   2.182   4.316   3.533 -0.1041  1.5972  0.8466
16851TIP3   OH271967   0.562   5.265   4.754 -0.3205  0.8347 -0.6649
16851TIP3    H171968   0.525   5.217   4.680  1.1484  1.4909 -1.8308
16851TIP3    H271969   0.495   5.257   4.823 -2.1588  1.0887 -2.3696
16852TIP3   OH271970   0.937   6.669  13.589 -0.2420 -0.3864 -0.0142
16852TIP3    H171971   0.918   6.576  13.575 -1.6055  0.2210 -2.3182
16852TIP3    H271972   0.859   6.715  13.560  0.6313  1.5302  0.5786
16853TIP3   OH271973   4.013   5.023   5.631  0.2293 -0.1235  0.2994
16853TIP3    H171974   3.939   4.984   5.678  1.3425  0.0153  2.2384
16853TIP3    H271975   3.973   5.081   5.566 -1.3584  1.5154  2.6564
16854TIP3   OH271976   3.214   4.305  13.073 -0.1921 -0.5610 -0.8352
16854TIP3    H171977   3.178   4.389  13.101 -1.2649 -1.3111  0.1005
16854TIP3    H271978   3.238   4.318  12.981  0.0862  0.8941 -0.5695
16855TIP3   OH271979   4.634   5.455  16.735  0.0264 -0.0761  0.0996
16855TIP3    H171980   4.700   5.494  16.678  0.3045 -1.1035 -0.2924
16855TIP3    H271981   4.567   5.523  16.744  0.6162  0.5726 -0.3827
16856TIP3   OH271982   4.454   0.349   6.264 -0.1361 -0.6097  0.0972
16856TIP3    H171983   4.425   0.439   6.280 -2.3717 -1.1693 -0.7049
16856TIP3    H271984   4.481   0.350   6.172  0.7299 -0.5421  0.3463
16857TIP3   OH271985   2.172   0.681  12.524  0.6102  1.2209 -0.7572
16857TIP3    H171986   2.208   0.770  12.526 -0.0289  1.4601  0.3674
16857TIP3    H271987   2.128   0.675  12.439 -2.3355  3.1680  0.5728
16858TIP3   OH271988   1.281   6.505   5.595 -0.5657 -0.2325  0.3812
16858TIP3    H171989   1.349   6.541   5.537 -0.3223 -0.1590  0.7139
16858TIP3    H271990   1.199   6.531   5.554 -0.3932 -0.2214  0.0389
16859TIP3   OH271991   2.198   6.261  11.541  0.1479 -0.2704 -0.3560
16859TIP3    H171992   2.188   6.342  11.490  2.0731 -0.0842 -0.4662
16859TIP3    H271993   2.158   6.193  11.486 -0.5565  0.4283 -0.7228
16860TIP3   OH271994   1.894   6.756   1.913 -0.5198 -0.8107 -0.4352
16860TIP3    H171995   1.825   6.693   1.892  0.7857 -2.2940 -0.3468
16860TIP3    H271996   1.877   6.779   2.005 -0.3180 -1.9434 -0.1014
16861TIP3   OH271997   1.632   4.890  12.475  0.0232 -0.2694  0.2379
16861TIP3    H171998   1.551   4.858  12.434  0.0244 -1.0704  0.8572
16861TIP3    H271999   1.702   4.849  12.424  0.1308  3.0445 -2.4613
16862TIP3   OH272000   0.635   3.710   3.100  0.2244 -0.4134  0.3313
16862TIP3    H172001   0.686   3.629   3.095 -0.1504 -0.5169 -2.7212
16862TIP3    H272002   0.544   3.680   3.108  0.1721 -0.2582  0.3099
16863TIP3   OH272003   1.693   6.446   3.834  0.1742  0.1281  0.2087
16863TIP3    H172004   1.685   6.395   3.753  1.8618 -2.6630  1.6874
16863TIP3    H272005   1.785   6.473   3.835 -0.4671  2.3714 -0.0434
16864TIP3   OH272006   1.413   4.438   1.506  0.1216  0.6964 -0.5620
16864TIP3    H172007   1.338   4.421   1.563  0.8469 -1.2227 -0.1517
16864TIP3    H272008   1.375   4.450   1.419 -0.8249  1.7714 -0.0189
16865TIP3   OH272009   0.765   1.825   1.671  0.4463  0.2457 -0.1154
16865TIP3    H172010   0.853   1.863   1.669  0.0225  1.2477 -0.3794
16865TIP3    H272011   0.758   1.778   1.588  0.0791  1.7393 -0.9610
16866TIP3   OH272012   5.187   0.536  16.416 -0.2637  0.1953  1.2055
16866TIP3    H172013   5.159   0.511  16.504 -1.8027 -0.7439  0.4538
16866TIP3    H272014   5.126   0.604  16.390 -0.4757 -0.2920  0.4306
16867TIP3   OH272015   0.445   5.632  15.925 -0.0257  0.0344 -0.0071
16867TIP3    H172016   0.362   5.674  15.900 -0.5531 -0.7662  0.3606
16867TIP3    H272017   0.457   5.656  16.017 -0.2609 -0.4975  0.1654
16868TIP3   OH272018   1.123   5.409   5.647  0.1330  0.4281 -0.2872
16868TIP3    H172019   1.128   5.384   5.739  1.1537  2.0992  0.1213
16868TIP3    H272020   1.211   5.441   5.626 -0.5139  1.5063 -1.4115
16869TIP3   OH272021   4.563   4.865  14.814 -0.1006 -1.3682 -0.2246
16869TIP3    H172022   4.474   4.879  14.780  0.2886 -0.4953 -0.8800
16869TIP3    H272023   4.600   4.953  14.823  1.3207 -1.8061 -1.6125
16870TIP3   OH272024   3.567   3.181   2.210  0.0252  0.3681 -0.2771
16870TIP3    H172025   3.560   3.276   2.222  0.6538  0.2211  1.5114
16870TIP3    H272026   3.515   3.162   2.132  2.1459  2.5407 -2.3157
16871TIP3   OH272027   6.414   4.876   3.354  0.1095 -0.1824  0.2043
16871TIP3    H172028   6.389   4.861   3.446  0.7373  1.1734  0.5963
16871TIP3    H272029   6.342   4.928   3.318  0.9397  1.1970  0.5329
16872TIP3   OH272030   3.204   5.418  15.325 -0.4287  0.3112  0.3552
16872TIP3    H172031   3.223   5.355  15.256 -1.7110  0.2331  0.0673
16872TIP3    H272032   3.203   5.503  15.280  3.9046  0.9074  1.1733
16873TIP3   OH272033   4.616   3.735   1.315 -0.1656  0.1273  0.0451
16873TIP3    H172034   4.587   3.674   1.384  1.4982  1.1981  1.7310
16873TIP3    H272035   4.701   3.702   1.288 -0.2643  0.4231 -0.6321
16874TIP3   OH272036   1.843   4.886   0.667  0.2358 -0.3322  0.2718
16874TIP3    H172037   1.757   4.845   0.658  0.0759 -0.4623  2.2519
16874TIP3    H272038   1.829   4.978   0.644  0.2478 -0.9561 -2.5115
16875TIP3   OH272039   0.973   6.527  16.288  0.5145 -0.3180 -0.3363
16875TIP3    H172040   1.011   6.585  16.222 -1.0228 -0.0331 -0.9850
16875TIP3    H272041   1.013   6.441  16.270  0.0559 -0.2535 -1.6863
16876TIP3   OH272042   4.114   6.042   1.256  0.8726  0.3696  0.2840
16876TIP3    H172043   4.041   6.073   1.202  1.9246  0.3709 -1.1591
16876TIP3    H272044   4.170   6.118   1.267  1.7623 -0.1708 -0.4496
16877TIP3   OH272045   2.303   2.564   0.023 -0.3676 -1.1687  0.7597
16877TIP3    H172046   2.223   2.614   0.010 -0.9134 -2.3380 -0.4341
16877TIP3    H272047   2.339   2.551  -0.065  1.1385 -0.6681  1.2758
16878TIP3   OH272048   0.558   3.316  17.053 -0.1687 -0.2251 -0.3854
16878TIP3    H172049   0.651   3.324  17.033  0.3464 -0.8924  1.6370
16878TIP3    H272050   0.529   3.405  17.071  0.1621 -0.0610 -0.6684
16879TIP3   OH272051   6.360   6.332   2.189 -0.2812 -0.4322  0.3493
16879TIP3    H172052   6.350   6.237   2.187  0.1430 -0.4802  0.4383
16879TIP3    H272053   6.274   6.365   2.215 -0.4737 -0.7831  0.1615
16880TIP3   OH272054   0.280   5.141   5.859 -0.7204 -0.8536  0.1471
16880TIP3    H172055   0.213   5.138   5.927  1.0841 -1.4039  1.9688
16880TIP3    H272056   0.359   5.170   5.905  0.2148  0.1405 -2.0080
16881TIP3   OH272057   2.669   2.497   1.235 -0.7931 -0.5135 -0.1884
16881TIP3    H172058   2.744   2.521   1.180 -1.0359 -0.3023 -0.4344
16881TIP3    H272059   2.706   2.484   1.322 -0.6863  1.0886  0.0343
16882TIP3   OH272060   1.941   5.355  14.243  0.3918 -0.0071 -0.3151
16882TIP3    H172061   1.904   5.402  14.169 -3.4580 -0.2051  1.3528
16882TIP3    H272062   1.973   5.273  14.206  0.0978  0.6335 -2.0411
16883TIP3   OH272063   0.312   2.212  16.375 -0.3748  0.0425  0.1359
16883TIP3    H172064   0.271   2.200  16.289  0.5680 -4.2416  0.1936
16883TIP3    H272065   0.239   2.209  16.437 -0.7483  0.0126 -0.3021
16884TIP3   OH272066   0.128   4.012  16.636  0.4429  0.2125  0.3644
16884TIP3    H172067   0.110   3.942  16.573 -1.2202  0.0091  1.0283
16884TIP3    H272068   0.179   4.077  16.587 -0.1908 -0.2852 -0.9712
16885TIP3   OH272069   4.856   0.440  17.083 -0.0729 -0.3335 -0.2723
16885TIP3    H172070   4.771   0.409  17.052  0.1354 -0.1999 -0.9890
16885TIP3    H272071   4.885   0.372  17.145 -1.5933  0.6088  1.5322
16886TIP3   OH272072   6.071   6.719  11.694  0.7462 -0.2042  0.4780
16886TIP3    H172073   6.032   6.805  11.680  0.5338 -0.4450 -0.4003
16886TIP3    H272074   6.014   6.678  11.760 -0.5911 -0.6166 -0.9153
16887TIP3   OH272075   2.516   3.128  11.372 -0.3266  0.3314 -0.3472
16887TIP3    H172076   2.609   3.142  11.355 -0.2902 -0.0617 -0.4528
16887TIP3    H272077   2.473   3.159  11.293 -0.1440 -1.7061 -1.2772
16888TIP3   OH272078   0.436   2.736   1.456 -0.1729  0.4591  0.0473
16888TIP3    H172079   0.476   2.726   1.370 -0.4666  2.0569 -0.3000
16888TIP3    H272080   0.458   2.656   1.502  2.1244  0.6275 -0.6622
16889TIP3   OH272081   1.382   3.075   2.391 -0.0110  0.0806 -0.0071
16889TIP3    H172082   1.392   3.126   2.310 -0.9153 -0.2711 -0.3549
16889TIP3    H272083   1.469   3.040   2.409 -0.1444 -1.2615 -1.7966
16890TIP3   OH272084   5.016   0.198  14.725 -0.1413  0.2521 -0.3784
16890TIP3    H172085   4.932   0.232  14.695  0.3672  1.7059 -0.2237
16890TIP3    H272086   5.076   0.211  14.651  0.2496  0.4442 -0.0331
16891TIP3   OH272087   5.353   4.073  11.399  0.0065  0.0391 -0.4245
16891TIP3    H172088   5.257   4.076  11.401 -0.0448 -1.0855 -0.7367
16891TIP3    H272089   5.377   4.044  11.487  0.0057 -0.7021 -0.6631
16892TIP3   OH272090   4.430   3.743   4.354 -0.2527 -0.2850 -0.1237
16892TIP3    H172091   4.347   3.789   4.339  1.0294  1.9656 -0.5772
16892TIP3    H272092   4.451   3.704   4.269 -0.3754 -0.0456 -0.2650
16893TIP3   OH272093   4.009   6.614  11.103  0.5200  0.1076  0.0785
16893TIP3    H172094   3.923   6.591  11.068  0.9258 -2.5229  0.6979
16893TIP3    H272095   4.067   6.609  11.027  0.5493 -0.5741  0.1461
16894TIP3   OH272096   1.805   2.724   2.893 -0.1330  0.6198 -0.3873
16894TIP3    H172097   1.745   2.696   2.962 -0.6554  0.8978 -0.7299
16894TIP3    H272098   1.812   2.649   2.835 -1.6140  1.2199 -1.3632
16895TIP3   OH272099   5.492   6.057  12.611 -0.4568 -0.2520 -0.1797
16895TIP3    H172100   5.510   5.977  12.560  1.5403  0.5731 -0.8017
16895TIP3    H272101   5.493   6.127  12.546 -0.8943  0.4450  0.5678
16896TIP3   OH272102   6.367   6.520  13.490  0.1934  0.1555  0.5610
16896TIP3    H172103   6.358   6.509  13.396  1.0560  0.4623  0.4333
16896TIP3    H272104   6.282   6.495  13.526 -0.5153  1.1541 -0.3934
16897TIP3   OH272105   2.525   0.408   4.887 -1.0315  0.1035 -0.2328
16897TIP3    H172106   2.567   0.421   4.972  0.0194  1.0161 -0.8880
16897TIP3    H272107   2.431   0.417   4.906 -0.8595 -0.4539  0.9592
16898TIP3   OH272108   1.035   5.507  11.155  0.5221  0.6076  0.1554
16898TIP3    H172109   1.114   5.455  11.143 -0.3749 -0.6273 -0.6104
16898TIP3    H272110   0.990   5.465  11.229 -0.9099 -0.6271 -1.3792
16899TIP3   OH272111   1.703   2.770  11.269 -0.6308  0.2034 -0.0534
16899TIP3    H172112   1.644   2.736  11.202 -1.5764 -0.9800  1.3584
16899TIP3    H272113   1.646   2.791  11.343  0.5219  0.5800  0.7433
16900TIP3   OH272114   0.015   6.301  15.792  0.1204  0.6072 -0.4460
16900TIP3    H172115  -0.059   6.354  15.761 -0.0911 -0.1023 -1.1514
16900TIP3    H272116  -0.025   6.224  15.831  0.5201 -0.1063 -1.4473
16901TIP3   OH272117   3.793   6.549  16.010 -0.1195  0.1234  0.3860
16901TIP3    H172118   3.707   6.587  15.990  1.0719  0.8783 -3.8751
16901TIP3    H272119   3.853   6.623  16.006  1.0364 -0.7771  0.9851
16902TIP3   OH272120   4.280   1.721  15.538 -0.0863 -0.2244  0.3081
16902TIP3    H172121   4.346   1.743  15.473 -0.3403  2.8662  1.0244
16902TIP3    H272122   4.329   1.681  15.610  0.4759 -1.5242 -0.7750
16903TIP3   OH272123   5.249   6.320   0.876 -0.0771  0.0925  0.0463
16903TIP3    H172124   5.247   6.225   0.873 -1.4244  0.1072  0.6351
16903TIP3    H272125   5.160   6.346   0.900 -0.1629  1.5493 -1.7371
16904TIP3   OH272126   0.081   5.658   4.158  0.3957  0.1378 -0.0471
16904TIP3    H172127   0.151   5.658   4.224  1.0933 -0.5824 -0.7818
16904TIP3    H272128   0.120   5.701   4.082 -0.0563  0.0079 -0.3519
16905TIP3   OH272129   3.581   0.631   3.895  0.1570 -0.5901  0.3930
16905TIP3    H172130   3.538   0.558   3.939  0.0883  0.0289  1.3557
16905TIP3    H272131   3.603   0.597   3.808 -0.7544 -1.4393  0.4925
16906TIP3   OH272132   6.388   3.960  14.768 -0.0289 -0.3861  0.2520
16906TIP3    H172133   6.395   3.896  14.839 -2.5535 -0.8665  0.1231
16906TIP3    H272134   6.465   3.944  14.714  1.7993 -0.1965  2.7212
16907TIP3   OH272135   5.634   5.286  14.040  0.0564  0.6196  0.5517
16907TIP3    H172136   5.549   5.315  14.007 -0.1709  0.3784  0.9246
16907TIP3    H272137   5.697   5.348  14.002 -0.4445  1.6865  1.4351
16908TIP3   OH272138   2.264   4.375   6.219  0.5594 -0.1841  0.3190
16908TIP3    H172139   2.283   4.377   6.125 -1.0779 -1.1187 -0.0509
16908TIP3    H272140   2.272   4.283   6.244  0.5993 -0.0001  1.0168
16909TIP3   OH272141   4.211   2.184   3.615  0.2239 -0.3280 -0.0900
16909TIP3    H172142   4.118   2.161   3.624 -0.7620  2.0570 -3.1799
16909TIP3    H272143   4.243   2.127   3.546  1.1513 -1.2963  1.1200
16910TIP3   OH272144   6.520   6.640  14.376 -0.1221  0.0233  0.9873
16910TIP3    H172145   6.546   6.588  14.452  1.3701 -0.8458 -0.0992
16910TIP3    H272146   6.432   6.609  14.354 -0.2670 -0.2237  1.9236
16911TIP3   OH272147   5.051   0.275   0.467  0.0419  0.6327  0.6358
16911TIP3    H172148   5.087   0.253   0.553 -1.6695  1.1355  1.4977
16911TIP3    H272149   4.995   0.200   0.445  1.9733 -0.4149 -0.9610
16912TIP3   OH272150   5.155   2.368  17.161  0.1808 -0.0357 -0.5266
16912TIP3    H172151   5.237   2.382  17.208  0.1005  0.0574 -0.4136
16912TIP3    H272152   5.139   2.274  17.168  1.0387 -0.2884 -1.8170
16913TIP3   OH272153   5.602   2.560  12.316  0.2118  0.4865  0.3007
16913TIP3    H172154   5.546   2.619  12.265  0.9316  3.9959  3.3167
16913TIP3    H272155   5.691   2.585  12.292  0.5432 -1.6532 -0.7825
16914TIP3   OH272156   0.865   2.185  12.205  0.0463  0.1048 -0.5621
16914TIP3    H172157   0.911   2.131  12.140 -0.5811 -1.8154  0.5374
16914TIP3    H272158   0.800   2.233  12.155  1.4534  0.8061 -1.7521
16915TIP3   OH272159   6.061   2.538  14.044  0.0054  0.2328  0.0529
16915TIP3    H172160   6.144   2.572  14.077 -0.7174 -0.2754  2.5365
16915TIP3    H272161   6.027   2.607  13.987  2.3796  0.2002 -1.4492
16916TIP3   OH272162   1.506   3.725   2.089  0.1598 -0.3699 -0.2740
16916TIP3    H172163   1.426   3.775   2.099  0.5804  0.2760 -0.0755
16916TIP3    H272164   1.509   3.669   2.166 -0.1436 -0.4551 -0.3248
16917TIP3   OH272165   6.150   1.011   0.430 -0.5263  0.4899  0.5042
16917TIP3    H172166   6.136   1.012   0.525  0.6769  1.3199  0.6827
16917TIP3    H272167   6.109   1.092   0.399 -0.0731  0.6942  0.4398
16918TIP3   OH272168   4.610   6.191  14.625  0.1539 -0.1794 -0.0121
16918TIP3    H172169   4.678   6.127  14.607 -0.3762 -0.3098 -1.6392
16918TIP3    H272170   4.540   6.141  14.667 -0.2693 -0.6929 -1.3014
16919TIP3   OH272171   6.595   3.163   0.826 -0.0359 -0.0117 -0.5435
16919TIP3    H172172   6.556   3.101   0.888  1.0308 -1.6004 -1.4108
16919TIP3    H272173   6.591   3.118   0.741  0.9829  1.0079 -1.1432
16920TIP3   OH272174   5.637   6.236  12.092  0.2671 -0.2544  0.0540
16920TIP3    H172175   5.681   6.232  12.007 -1.5402  0.3516 -0.9504
16920TIP3    H272176   5.560   6.180  12.081 -1.2566  1.7075  0.5095
16921TIP3   OH272177   0.603   6.032   4.051 -0.1249 -0.0473 -0.8393
16921TIP3    H172178   0.556   5.964   4.002 -1.5751  0.2474  0.1210
16921TIP3    H272179   0.627   5.990   4.134  1.8106 -0.3565 -1.5173
16922TIP3   OH272180   4.726   5.847   2.264  0.1284 -0.4337 -0.4436
16922TIP3    H172181   4.686   5.800   2.337  0.9827  0.6508  0.7451
16922TIP3    H272182   4.653   5.895   2.224  0.2645  1.8695  1.9670
16923TIP3   OH272183   0.215   0.273   2.026 -0.2582  0.2529  0.2098
16923TIP3    H172184   0.234   0.182   2.002  0.0035 -0.3470  2.6040
16923TIP3    H272185   0.300   0.307   2.055 -0.0261  1.7494 -2.1142
16924TIP3   OH272186   3.928   3.827  14.245 -0.0365 -0.2458  0.1648
16924TIP3    H172187   3.926   3.736  14.215 -1.2829 -0.6383  1.3602
16924TIP3    H272188   3.961   3.822  14.334  0.1735  0.5113  0.1354
16925TIP3   OH272189   3.279   3.001  13.930 -0.2871 -0.2534 -0.0225
16925TIP3    H172190   3.319   3.006  13.843 -0.0657 -0.7688  0.0445
16925TIP3    H272191   3.296   3.086  13.969  2.7297 -1.1651  0.8415
16926TIP3   OH272192   4.965   2.505   0.983  0.0004  0.0219 -0.0190
16926TIP3    H172193   4.985   2.594   0.955 -0.0637  0.0941  0.1657
16926TIP3    H272194   5.042   2.454   0.957  0.1783  0.1934  0.1649
16927TIP3   OH272195   3.979   3.680   5.180  0.4130  0.0382  0.1720
16927TIP3    H172196   3.985   3.766   5.138 -0.1936  0.6190  1.2516
16927TIP3    H272197   3.967   3.618   5.108  0.3903  0.9142 -0.5773
16928TIP3   OH272198   5.375   2.241   1.586 -0.2324 -0.3745  0.2432
16928TIP3    H172199   5.371   2.334   1.609 -2.4874 -0.5295  0.5841
16928TIP3    H272200   5.325   2.234   1.505  0.6777 -1.1643 -0.2608
16929TIP3   OH272201   0.473   3.369  16.654 -0.3124 -0.4937 -0.9467
16929TIP3    H172202   0.510   3.336  16.572  1.5612 -0.9284  0.0321
16929TIP3    H272203   0.503   3.306  16.721 -0.4015  0.7472  0.2956
16930TIP3   OH272204   5.543   6.664   5.529 -0.4650 -0.4702 -0.2787
16930TIP3    H172205   5.499   6.618   5.601  0.2600 -2.8903 -1.3486
16930TIP3    H272206   5.630   6.684   5.562 -1.1083  1.1254  0.5487
16931TIP3   OH272207   6.264   2.259  13.128 -0.5390 -0.1697  0.0629
16931TIP3    H172208   6.229   2.296  13.047 -0.9453  0.8223  0.6764
16931TIP3    H272209   6.224   2.172  13.135 -0.5124 -0.2472 -0.7952
16932TIP3   OH272210   3.504   4.305  11.925  0.3066 -0.5009 -0.0418
16932TIP3    H172211   3.532   4.388  11.963  1.9609 -0.4239 -1.3589
16932TIP3    H272212   3.495   4.324  11.831  0.6333 -1.7915 -0.3368
16933TIP3   OH272213   4.572   6.753   5.596  0.1931 -0.0433 -0.1277
16933TIP3    H172214   4.521   6.824   5.557  1.6035  1.1576  0.2083
16933TIP3    H272215   4.568   6.770   5.690  2.1863  0.7365 -0.1683
16934TIP3   OH272216   2.985   5.792   3.191 -0.2204 -0.3251  0.5143
16934TIP3    H172217   2.980   5.699   3.213 -1.3556 -0.2315  0.7231
16934TIP3    H272218   2.923   5.802   3.118 -0.5154  0.3547  0.8508
16935TIP3   OH272219   3.171   2.284  16.028  0.2325  0.0042 -0.0574
16935TIP3    H172220   3.183   2.379  16.019  0.4556 -0.0138  0.0488
16935TIP3    H272221   3.089   2.275  16.076  1.1200  0.1868  1.5305
16936TIP3   OH272222   4.957   6.432  16.714 -0.5108  0.1848 -0.3664
16936TIP3    H172223   4.977   6.374  16.787  1.3717  0.5258 -0.6023
16936TIP3    H272224   4.901   6.500  16.752  1.1747  0.8670  0.9817
16937TIP3   OH272225   6.169   0.550   4.994  0.1457 -0.4055  0.1056
16937TIP3    H172226   6.197   0.462   5.019 -1.8160 -0.6140  1.7138
16937TIP3    H272227   6.250   0.601   4.992  1.0475 -1.7260  1.4075
16938TIP3   OH272228   3.643   1.200  11.904 -0.3537 -0.4233 -0.0106
16938TIP3    H172229   3.639   1.178  11.811  0.1150  1.0265 -0.3918
16938TIP3    H272230   3.649   1.116  11.949  1.1401 -1.0753 -1.3867
16939TIP3   OH272231   2.632   1.863   1.170  0.1194 -0.3432 -0.3366
16939TIP3    H172232   2.677   1.840   1.252 -1.2205  0.5535  0.6908
16939TIP3    H272233   2.567   1.929   1.197  0.0748  0.4113 -2.2374
16940TIP3   OH272234   4.245   6.398  12.859 -0.1553  0.3241  0.5816
16940TIP3    H172235   4.299   6.371  12.784 -0.1097  1.4236  0.2083
16940TIP3    H272236   4.276   6.344  12.931  1.2761  0.7509  0.3019
16941TIP3   OH272237   5.626   3.826  13.777 -0.3784  0.2691  0.1353
16941TIP3    H172238   5.623   3.920  13.758  3.1637  0.5686  0.7708
16941TIP3    H272239   5.685   3.819  13.852 -0.1586 -2.5426 -0.2541
16942TIP3   OH272240   5.206   5.783   1.587 -0.1787 -0.9156 -0.1170
16942TIP3    H172241   5.198   5.862   1.533  0.5935  0.2403  1.4045
16942TIP3    H272242   5.144   5.721   1.549 -0.1898  0.1333 -1.8474
16943TIP3   OH272243   2.102   2.304  16.092  0.1635 -0.5768  0.3000
16943TIP3    H172244   2.166   2.234  16.103  0.0421 -0.7186  0.1094
16943TIP3    H272245   2.067   2.291  16.004 -0.8263 -1.0908  0.7591
16944TIP3   OH272246   5.559   1.296  13.749 -0.6989  0.2722 -0.1004
16944TIP3    H172247   5.550   1.322  13.841 -0.0086  1.3211 -0.3218
16944TIP3    H272248   5.644   1.332  13.722 -1.0026  0.1692 -1.2142
16945TIP3   OH272249   0.741   1.045  12.666  0.5291 -0.5098 -0.3321
16945TIP3    H172250   0.710   1.134  12.650  1.2778 -0.1147  0.4256
16945TIP3    H272251   0.661   0.992  12.663 -0.0968  0.3593  0.5153
16946TIP3   OH272252   0.739   2.336  13.415  0.6634  0.1872 -0.2333
16946TIP3    H172253   0.835   2.340  13.415  0.6575  0.8958 -2.5219
16946TIP3    H272254   0.712   2.419  13.455  1.0188  1.4775 -2.5467
16947TIP3   OH272255   3.442   2.478   1.040 -0.0395 -0.2810  0.5952
16947TIP3    H172256   3.442   2.458   1.134  2.5714  0.5817  0.8120
16947TIP3    H272257   3.534   2.475   1.015 -0.6177  0.5795 -1.7302
16948TIP3   OH272258   5.650   6.170  16.148  0.0344  0.8171 -0.0859
16948TIP3    H172259   5.618   6.139  16.063 -0.0466  0.7827 -0.0435
16948TIP3    H272260   5.572   6.206  16.191 -0.3660 -1.1382  0.8593
16949TIP3   OH272261   1.521   6.581   0.192  0.0684  0.3538 -0.2565
16949TIP3    H172262   1.448   6.519   0.200  0.5607 -0.1519  0.3965
16949TIP3    H272263   1.513   6.616   0.104 -0.2283 -0.6322 -0.6332
16950TIP3   OH272264   1.245   4.836   1.618  0.3205  0.0602  0.3154
16950TIP3    H172265   1.235   4.741   1.612  2.4911 -0.2780  1.3359
16950TIP3    H272266   1.273   4.852   1.708  2.0126  1.4343 -0.4194
16951TIP3   OH272267   3.531   3.941   2.357  0.2287  0.3893  0.0540
16951TIP3    H172268   3.525   3.921   2.264 -1.7694  0.5625  0.1230
16951TIP3    H272269   3.577   3.866   2.395 -2.1781 -1.4219 -0.5315
16952TIP3   OH272270   6.516   4.971  16.061  0.0197  0.0728 -0.0831
16952TIP3    H172271   6.475   5.054  16.085 -3.6050 -1.5852 -0.2653
16952TIP3    H272272   6.487   4.909  16.129 -0.6696 -1.9594 -2.1804
16953TIP3   OH272273   5.173   1.138   2.933 -0.0659  0.2621  0.4661
16953TIP3    H172274   5.090   1.173   2.964  0.3834  1.5311  0.2462
16953TIP3    H272275   5.205   1.086   3.007 -0.8697  0.0657  0.6868
16954TIP3   OH272276   6.739   6.305  11.242  0.7769  0.0398 -0.4628
16954TIP3    H172277   6.819   6.358  11.237 -0.0472  1.5203  1.4405
16954TIP3    H272278   6.751   6.251  11.320 -0.0856  0.2838 -0.1642
16955TIP3   OH272279   5.498   5.515  15.107  0.3734 -0.0154  0.0339
16955TIP3    H172280   5.553   5.542  15.181 -1.0996  1.2671  0.7047
16955TIP3    H272281   5.447   5.442  15.142 -0.8951  1.0977  0.5851
16956TIP3   OH272282   4.395   3.473   1.841 -0.0925 -0.1097  0.3427
16956TIP3    H172283   4.441   3.529   1.904  1.2279  0.2121 -0.8877
16956TIP3    H272284   4.369   3.532   1.771  0.0354 -0.7755 -0.2722
16957TIP3   OH272285   5.609   2.354   0.558 -0.1314  0.3798  0.2018
16957TIP3    H172286   5.704   2.365   0.566  0.0715 -1.1568 -0.0579
16957TIP3    H272287   5.595   2.260   0.558 -1.5770  0.5756 -0.8399
16958TIP3   OH272288   4.003   1.952  11.893 -1.0445 -0.1330 -0.2206
16958TIP3    H172289   4.061   2.027  11.878 -1.7417  1.0022  2.3962
16958TIP3    H272290   3.926   1.970  11.839 -0.9062  0.6714 -0.1523
16959TIP3   OH272291   0.607   3.907   4.527  0.7370  0.3069  0.0161
16959TIP3    H172292   0.635   3.849   4.455  0.1058  0.0448 -0.0192
16959TIP3    H272293   0.622   3.995   4.493 -0.3847  0.2062 -0.7864
16960TIP3   OH272294   3.940   4.866   1.312 -0.5708  0.6030  0.5084
16960TIP3    H172295   3.896   4.820   1.383  0.8576  1.4320  1.9670
16960TIP3    H272296   3.959   4.953   1.347 -0.3819  1.2461 -1.1061
16961TIP3   OH272297   0.426   5.802  13.452  0.0077 -0.1411  0.2747
16961TIP3    H172298   0.365   5.853  13.505 -0.4787 -0.6392  0.2000
16961TIP3    H272299   0.502   5.789  13.509  0.0496  0.4806  0.3669
16962TIP3   OH272300   1.867   2.393  17.065 -0.3583 -0.1597  0.3256
16962TIP3    H172301   1.852   2.424  16.976 -2.7139  1.4812  1.2482
16962TIP3    H272302   1.849   2.469  17.120  1.5354 -1.0216  2.1985
16963TIP3   OH272303   1.029   2.425   1.613 -0.5931  0.1613  0.3640
16963TIP3    H172304   1.084   2.475   1.552 -2.2534  0.9061 -0.5304
16963TIP3    H272305   0.999   2.350   1.562 -4.0157  2.0844 -0.5467
16964TIP3   OH272306   3.234   2.569  16.551 -0.3469  0.4402 -0.0336
16964TIP3    H172307   3.270   2.512  16.484  1.5249  0.9150  0.5224
16964TIP3    H272308   3.144   2.587  16.523 -0.2378 -0.9867 -1.3372
16965TIP3   OH272309   1.250   4.967   3.616 -0.0361 -0.1978 -0.3946
16965TIP3    H172310   1.167   4.924   3.637  0.2577 -0.5412  0.0802
16965TIP3    H272311   1.278   5.007   3.699  0.3932 -0.2925 -0.4921
16966TIP3   OH272312   2.277   2.415  12.721 -0.0740  0.1053  0.3640
16966TIP3    H172313   2.332   2.391  12.647  0.1282  0.2495  0.4697
16966TIP3    H272314   2.297   2.350  12.789 -1.4107 -0.9860 -0.2598
16967TIP3   OH272315   4.414   1.558  11.868 -0.1965 -0.3364  0.0669
16967TIP3    H172316   4.415   1.528  11.778 -3.0731 -0.4437  0.0438
16967TIP3    H272317   4.378   1.485  11.918 -1.5426  0.8339  0.8494
16968TIP3   OH272318   1.492   6.430  14.225  0.1522 -0.2493  0.0807
16968TIP3    H172319   1.445   6.356  14.264 -0.3321 -0.3255 -0.6423
16968TIP3    H272320   1.535   6.473  14.300 -0.0242 -0.9281  0.5759
16969TIP3   OH272321   4.585   4.570  13.410 -0.9258  0.3301 -0.1416
16969TIP3    H172322   4.586   4.532  13.498  1.7857 -1.1246 -0.7605
16969TIP3    H272323   4.637   4.651  13.419 -1.0799  0.4462 -0.2961
16970TIP3   OH272324   3.295   6.645   3.132  0.6227  0.3822  0.3133
16970TIP3    H172325   3.243   6.724   3.124  0.5005  0.2659 -0.0141
16970TIP3    H272326   3.352   6.662   3.208 -0.2470  0.2979  0.9936
16971TIP3   OH272327   2.024   6.607  17.236 -0.2797  0.2499 -0.3966
16971TIP3    H172328   1.987   6.662  17.305 -0.6698 -0.0978 -0.3211
16971TIP3    H272329   1.968   6.529  17.237  2.2269 -1.6203  1.7728
16972TIP3   OH272330   5.112   5.523   1.091  0.1682 -0.2404  0.1111
16972TIP3    H172331   5.077   5.471   1.019  0.4409  1.1626 -1.0778
16972TIP3    H272332   5.201   5.545   1.063  0.9790 -1.2907  1.7646
16973TIP3   OH272333   0.078   4.129   1.734  0.4462 -0.0510  0.1158
16973TIP3    H172334   0.130   4.201   1.699  0.8777  0.1730  1.1950
16973TIP3    H272335   0.140   4.057   1.744  0.5246  0.1628  1.2452
16974TIP3   OH272336   4.663   0.987  13.705 -0.5216  0.1793  0.6871
16974TIP3    H172337   4.745   0.941  13.689  0.3236  1.2340  1.8630
16974TIP3    H272338   4.639   0.962  13.795  0.1027  2.2114  1.4517
16975TIP3   OH272339   3.171   2.088   1.978  0.1731  0.8918 -0.2888
16975TIP3    H172340   3.223   2.016   2.014  0.3368  0.8278 -0.6476
16975TIP3    H272341   3.180   2.078   1.883 -1.4492  0.1717 -0.3814
16976TIP3   OH272342   4.053   0.773  15.054  0.7155 -0.3141 -0.2167
16976TIP3    H172343   4.047   0.867  15.039  1.5320 -0.2777 -0.3384
16976TIP3    H272344   4.007   0.735  14.979  0.6656 -0.0148 -0.3403
16977TIP3   OH272345   1.631   2.009   3.960 -0.7870 -0.1107 -0.2439
16977TIP3    H172346   1.554   1.986   4.012 -1.7769  0.6986 -1.3272
16977TIP3    H272347   1.684   2.062   4.019 -2.5814  2.0152 -0.4718
16978TIP3   OH272348   5.834   6.506   1.695  0.4818 -0.4559 -0.2628
16978TIP3    H172349   5.799   6.449   1.764  0.2724  0.2472  0.2152
16978TIP3    H272350   5.757   6.544   1.653  0.5267 -2.6667 -2.4264
16979TIP3   OH272351   5.260   0.521   4.292  0.0604 -0.0540 -0.3642
16979TIP3    H172352   5.298   0.484   4.212 -0.2952 -1.1719 -0.0182
16979TIP3    H272353   5.326   0.583   4.323  1.0132 -0.9626 -0.5280
16980TIP3   OH272354   4.125   6.735  11.974  0.1831  0.2648  0.4996
16980TIP3    H172355   4.156   6.670  12.037 -0.8392 -1.0074 -0.2682
16980TIP3    H272356   4.059   6.785  12.021 -0.7599 -0.8427  0.3868
16981TIP3   OH272357   1.380   2.940  16.692 -0.2004  0.1904 -0.7510
16981TIP3    H172358   1.428   2.864  16.723 -0.6175  0.7536  1.3481
16981TIP3    H272359   1.358   2.919  16.601  0.2251 -1.9059 -0.3948
16982TIP3   OH272360   5.261   3.556   5.062 -0.0410 -0.5441 -0.4986
16982TIP3    H172361   5.339   3.510   5.032 -0.7128 -0.7046 -2.0528
16982TIP3    H272362   5.209   3.569   4.982 -1.9857 -1.1742  0.6381
16983TIP3   OH272363   5.105   1.372  15.804  0.3140 -0.6639 -0.4314
16983TIP3    H172364   5.104   1.360  15.899 -1.6135  0.7236 -0.2504
16983TIP3    H272365   5.112   1.283  15.770  0.6312 -1.2133  0.9986
16984TIP3   OH272366   4.760   2.323  13.317 -0.4027 -0.4611 -0.0907
16984TIP3    H172367   4.849   2.324  13.282 -0.5612  0.0185 -0.4771
16984TIP3    H272368   4.703   2.327  13.240 -0.7643 -1.2841  0.1294
16985TIP3   OH272369   5.459   4.882  17.136 -1.1164  1.0015 -0.3247
16985TIP3    H172370   5.479   4.857  17.046 -2.0083  0.3726 -0.3563
16985TIP3    H272371   5.544   4.883  17.180 -0.9495 -1.4490 -0.4980
16986TIP3   OH272372   2.897   6.058   0.831 -0.1816 -0.0503  0.2193
16986TIP3    H172373   2.914   5.964   0.829  0.9774  0.1386  0.8927
16986TIP3    H272374   2.965   6.096   0.776 -0.9384  0.3649 -0.4434
16987TIP3   OH272375   5.170   3.307   1.786  0.4215 -0.0613  0.2884
16987TIP3    H172376   5.094   3.290   1.841  0.8650 -0.8342  0.6672
16987TIP3    H272377   5.224   3.229   1.794 -0.3365 -0.9424 -2.6684
16988TIP3   OH272378   3.667   4.727   4.464 -0.0671  0.0297 -0.1437
16988TIP3    H172379   3.639   4.651   4.413  0.5112  0.3955 -1.0144
16988TIP3    H272380   3.630   4.802   4.418 -1.2100  0.2443  1.1011
16989TIP3   OH272381   6.520   4.213   4.648 -0.5638  0.5000 -0.5111
16989TIP3    H172382   6.465   4.220   4.727  0.9520  2.9299  0.3578
16989TIP3    H272383   6.563   4.298   4.641  0.5876 -0.2607 -3.0599
16990TIP3   OH272384   4.262   2.554  15.152 -0.1383 -0.0102  0.3094
16990TIP3    H172385   4.175   2.592  15.159  0.1318  0.6549  0.0756
16990TIP3    H272386   4.247   2.466  15.118 -0.6739  0.2912 -0.2411
16991TIP3   OH272387   5.599   3.075   6.421 -0.4418 -0.1066  0.2237
16991TIP3    H172388   5.525   3.131   6.443 -2.9404 -3.3667  0.4214
16991TIP3    H272389   5.639   3.054   6.506  0.8973  1.7879  0.1040
16992TIP3   OH272390   0.900   1.837  11.213 -0.7745  0.1795  0.2822
16992TIP3    H172391   0.921   1.923  11.249 -1.1579 -0.2193  1.4798
16992TIP3    H272392   0.951   1.832  11.132  1.4694  0.4084  1.6276
16993TIP3   OH272393   1.704   6.641  16.362  0.3353 -0.4201  0.6920
16993TIP3    H172394   1.643   6.680  16.425 -0.9496 -1.6513  0.2477
16993TIP3    H272395   1.712   6.549  16.389 -1.3566 -1.3495 -1.6955
16994TIP3   OH272396   0.975   1.125   0.136  0.4051  0.1560  0.5488
16994TIP3    H172397   1.048   1.166   0.182  1.6883 -0.8649 -0.5356
16994TIP3    H272398   0.984   1.155   0.046 -0.5498  0.0604  0.4172
16995TIP3   OH272399   2.716   3.425   4.662 -0.4017  0.3131 -0.1100
16995TIP3    H172400   2.710   3.509   4.616 -0.3397 -1.1342 -2.8896
16995TIP3    H272401   2.769   3.443   4.739 -0.0092  2.7283 -0.9191
16996TIP3   OH272402   3.741   4.447  10.948  0.0315 -0.3447  0.4661
16996TIP3    H172403   3.723   4.519  10.887  0.4425 -0.9051 -0.3120
16996TIP3    H272404   3.836   4.442  10.952  0.0047 -0.5747  0.8486
16997TIP3   OH272405   3.903   4.101  13.569 -0.5304  0.4317  0.6569
16997TIP3    H172406   3.875   4.010  13.561  1.6072 -0.1592 -0.4209
16997TIP3    H272407   3.984   4.097  13.620 -0.1575  1.6771  0.1671
16998TIP3   OH272408   4.754   5.595   2.954 -0.2998  0.1432  0.0161
16998TIP3    H172409   4.715   5.570   3.038 -0.8010  0.4385 -0.1298
16998TIP3    H272410   4.700   5.552   2.888 -0.3090  0.4573 -0.1824
16999TIP3   OH272411   5.205   3.150  11.613  0.6062  0.1166  0.1149
16999TIP3    H172412   5.148   3.199  11.672 -0.1672  0.1358 -0.6242
16999TIP3    H272413   5.291   3.191  11.622  0.6355 -0.2715  1.6631
17000TIP3   OH272414   5.398   2.413   5.582 -0.0557  0.0055  0.2056
17000TIP3    H172415   5.319   2.463   5.560  1.6501  1.9718 -1.7057
17000TIP3    H272416   5.458   2.429   5.509  2.0480 -1.6066  1.5105
17001TIP3   OH272417   4.646   1.301  14.492  0.2706  0.0871  0.1764
17001TIP3    H172418   4.573   1.340  14.442  0.4664  0.7018  0.3613
17001TIP3    H272419   4.717   1.365  14.482  0.5441 -0.1524  0.6263
17002TIP3   OH272420   2.387   4.743   4.297 -0.3992 -0.2265 -0.8279
17002TIP3    H172421   2.470   4.723   4.340 -2.2259  0.2125  3.1547
17002TIP3    H272422   2.393   4.836   4.274 -0.6571  0.4462  1.6866
17003TIP3   OH272423   5.042   5.764   0.648 -0.1158 -0.0744  0.4516
17003TIP3    H172424   5.055   5.674   0.679  0.2721 -0.1723  0.0089
17003TIP3    H272425   4.975   5.756   0.580 -1.6737  0.2689  1.8994
17004TIP3   OH272426   4.470   3.899   2.437 -0.4261  0.7038 -0.0372
17004TIP3    H172427   4.399   3.948   2.396  1.6005  1.2768 -3.0017
17004TIP3    H272428   4.544   3.960   2.440  0.6914 -0.6392  0.7692
17005TIP3   OH272429   5.955   4.601  15.104 -0.3477  0.0679  0.3275
17005TIP3    H172430   5.948   4.559  15.189 -1.6426  2.7113  1.5977
17005TIP3    H272431   6.003   4.682  15.121  1.9551 -0.7559 -2.0090
17006TIP3   OH272432   5.003   5.869   5.496 -0.0246 -0.4311  0.5179
17006TIP3    H172433   5.074   5.922   5.532 -0.2565 -0.7006  1.3904
17006TIP3    H272434   4.924   5.918   5.517 -0.3559 -1.8374  2.6707
17007TIP3   OH272435   2.688   4.852  11.208 -0.1430  0.5193 -0.2293
17007TIP3    H172436   2.675   4.850  11.113 -0.5902  0.7168 -0.1733
17007TIP3    H272437   2.760   4.791  11.223 -1.5011 -1.1951 -0.4766
17008TIP3   OH272438   4.349   3.321  11.962  0.7812 -0.0559  0.4938
17008TIP3    H172439   4.287   3.354  11.897 -0.5668 -1.6744  0.9207
17008TIP3    H272440   4.307   3.338  12.046  0.3964 -2.0972  0.7492
17009TIP3   OH272441   3.113   4.717  15.452 -0.0308  1.0745 -0.2189
17009TIP3    H172442   3.167   4.792  15.429  0.2592  0.5208 -1.4081
17009TIP3    H272443   3.049   4.751  15.515 -0.0513  2.3672 -0.9249
17010TIP3   OH272444   0.501   4.625   1.454 -0.4184 -0.7031  0.1376
17010TIP3    H172445   0.572   4.621   1.518 -1.4252  0.0997  1.3379
17010TIP3    H272446   0.544   4.635   1.370  0.9363 -1.7921  0.6895
17011TIP3   OH272447   2.886   3.343  11.860  0.4419 -0.3471  0.5290
17011TIP3    H172448   2.950   3.273  11.849  0.7075 -0.3406  1.8558
17011TIP3    H272449   2.938   3.418  11.890  0.0974  0.2870 -0.4131
17012TIP3   OH272450   1.806   0.744   3.229 -0.4503  0.2372 -0.3311
17012TIP3    H172451   1.765   0.681   3.171  0.4825  0.6869 -1.5148
17012TIP3    H272452   1.844   0.691   3.300 -2.4540 -0.2256  0.4267
17013TIP3   OH272453   1.059   0.303  16.206 -0.3802  0.1468 -0.8467
17013TIP3    H172454   1.065   0.224  16.259 -1.4477  0.6172  0.0006
17013TIP3    H272455   1.126   0.292  16.139  0.0118 -1.1132 -0.2661
17014TIP3   OH272456   1.681   3.985   0.616 -0.6003  0.6421 -0.0914
17014TIP3    H172457   1.699   3.961   0.707 -0.0113 -0.8278 -0.5881
17014TIP3    H272458   1.622   3.917   0.584  2.1164 -0.9546 -1.8900
17015TIP3   OH272459   3.213   5.654   4.100  0.2488  0.0888  0.0105
17015TIP3    H172460   3.217   5.743   4.134  0.2872  0.6490 -1.4533
17015TIP3    H272461   3.182   5.663   4.010 -1.3629 -1.5133  0.3735
17016TIP3   OH272462   0.340   5.855  12.940 -0.1856 -0.0717 -0.4576
17016TIP3    H172463   0.423   5.808  12.953 -0.6386 -0.6914  0.2295
17016TIP3    H272464   0.367   5.945  12.919  0.6552 -0.1396  0.2939
17017TIP3   OH272465   3.034   5.697  13.916  0.4007  0.2368 -0.2584
17017TIP3    H172466   2.946   5.666  13.898  1.0022 -1.4911 -0.2528
17017TIP3    H272467   3.025   5.750  13.995 -0.5097 -0.4833  0.1185
17018TIP3   OH272468   3.118   4.294  14.971 -0.0895 -0.2778 -0.1162
17018TIP3    H172469   3.104   4.304  15.065 -3.4380  0.0387 -0.6057
17018TIP3    H272470   3.165   4.211  14.962  0.3873 -0.2317  1.8224
17019TIP3   OH272471   4.279   3.151  13.562 -1.1284 -0.4434 -0.0430
17019TIP3    H172472   4.196   3.196  13.545 -1.0310 -0.2192  0.0697
17019TIP3    H272473   4.264   3.061  13.534 -1.1829 -0.2329 -0.7090
17020TIP3   OH272474   1.183   1.318  15.807 -0.3562 -0.2884  0.0836
17020TIP3    H172475   1.115   1.255  15.784 -1.3570  0.6670  0.3752
17020TIP3    H272476   1.145   1.368  15.880  0.1583  1.0792 -0.5755
17021TIP3   OH272477   3.045   4.650   3.219  0.0777  0.1106  0.1179
17021TIP3    H172478   2.997   4.674   3.140 -0.0974 -1.6150 -0.3370
17021TIP3    H272479   3.019   4.559   3.236  0.9965  0.0875  1.4989
17022TIP3   OH272480   3.786   0.110   4.178  0.1156  0.3255 -0.1045
17022TIP3    H172481   3.859   0.051   4.161  0.6525  0.7583  0.6588
17022TIP3    H272482   3.710   0.067   4.138  0.4750 -0.9390  0.5547
17023TIP3   OH272483   4.485   3.624   5.378  0.1905  0.2296  0.2104
17023TIP3    H172484   4.516   3.582   5.459 -0.1269 -0.0491  0.1877
17023TIP3    H272485   4.536   3.580   5.309 -0.6951 -0.6659  0.1187
17024TIP3   OH272486   5.887   2.323   5.014  0.0923  1.0297  0.1362
17024TIP3    H172487   5.979   2.300   5.001 -0.5530 -0.7061 -1.4893
17024TIP3    H272488   5.859   2.270   5.089  0.4749  1.7484  0.7925
17025TIP3   OH272489   5.599   5.237  15.470  0.0494 -0.5207 -0.5493
17025TIP3    H172490   5.574   5.146  15.487 -1.5912  0.1462  0.6179
17025TIP3    H272491   5.625   5.272  15.555 -0.5741  0.4950 -0.7692
17026TIP3   OH272492   3.703   0.904  10.751  0.2548  0.6147 -0.3467
17026TIP3    H172493   3.732   0.922  10.662  0.4589  1.2162 -0.1651
17026TIP3    H272494   3.618   0.861  10.741  1.2725 -1.3462 -0.8959
17027TIP3   OH272495   5.423   5.756   0.531 -0.2502  0.1423 -0.2831
17027TIP3    H172496   5.358   5.809   0.485  1.5648  1.2388 -1.6746
17027TIP3    H272497   5.480   5.724   0.461  2.1774  1.2788  1.1238
17028TIP3   OH272498   0.905   1.441  16.492  0.4997  0.3990  0.0728
17028TIP3    H172499   0.892   1.527  16.452  0.7838 -0.5163 -2.0574
17028TIP3    H272500   0.868   1.379  16.429  1.3860 -1.1230  1.0116
17029TIP3   OH272501   5.824   2.196  15.499  0.0266  0.0137 -0.4847
17029TIP3    H172502   5.840   2.277  15.547  3.1838 -0.8242 -0.0566
17029TIP3    H272503   5.833   2.221  15.407  0.0551  0.3086 -0.4048
17030TIP3   OH272504   3.831   2.109   4.914 -0.3725 -0.3686  0.3378
17030TIP3    H172505   3.900   2.113   4.980  1.1479 -2.1891 -1.0888
17030TIP3    H272506   3.788   2.024   4.929  0.2096 -0.9486 -1.2199
17031TIP3   OH272507   1.911   0.896  11.854  0.0067 -0.0726 -0.3937
17031TIP3    H172508   1.894   0.806  11.882 -0.0210 -0.4694 -1.6603
17031TIP3    H272509   1.884   0.950  11.928 -0.5024 -1.0727  0.1554
17032TIP3   OH272510   2.794   3.786  13.529 -0.0064 -0.2473 -0.1108
17032TIP3    H172511   2.888   3.788  13.509  0.2375  0.4844  1.0900
17032TIP3    H272512   2.753   3.826  13.452  0.8466  1.5120  0.3111
17033TIP3   OH272513   3.424   3.082   1.994  0.3903 -0.2179 -0.0149
17033TIP3    H172514   3.342   3.033   1.991 -0.2226  0.8435 -0.8315
17033TIP3    H272515   3.418   3.144   1.922 -0.0327  2.8770  2.5427
17034TIP3   OH272516   3.704   4.830   1.499  0.2972  0.7429 -0.1833
17034TIP3    H172517   3.736   4.792   1.581 -0.1871  0.4358 -0.1377
17034TIP3    H272518   3.714   4.925   1.512  1.0123  0.6571 -0.0983
17035TIP3   OH272519   0.818   4.277  15.406 -0.0524 -0.8081 -0.2318
17035TIP3    H172520   0.912   4.265  15.419  0.0368  0.6040  0.5233
17035TIP3    H272521   0.812   4.344  15.338 -0.5025  0.3109  0.8980
17036TIP3   OH272522   0.657   2.523  14.750 -0.1348  0.2680  0.1631
17036TIP3    H172523   0.743   2.561  14.771  1.2879 -3.0042  0.5933
17036TIP3    H272524   0.601   2.548  14.823  0.9300  1.0274  0.7290
17037TIP3   OH272525   5.870   2.183  11.927  0.5658  0.0339 -0.4593
17037TIP3    H172526   5.803   2.143  11.983 -0.8801  2.2198 -0.5556
17037TIP3    H272527   5.851   2.149  11.840  0.7676 -0.8066 -0.1856
17038TIP3   OH272528   1.084   6.107  12.619 -0.1589 -0.3901 -0.2733
17038TIP3    H172529   1.075   6.037  12.683  1.8067  0.5543  1.1147
17038TIP3    H272530   1.167   6.089  12.575 -0.2321  0.3839 -0.7513
17039TIP3   OH272531   0.464   0.057   4.059 -0.2008  0.2508 -0.2867
17039TIP3    H172532   0.551   0.068   4.098  0.9434 -0.1459 -2.6135
17039TIP3    H272533   0.429  -0.023   4.098  0.1091  0.8998  1.3211
17040TIP3   OH272534   0.925   4.849  16.424  0.2402 -0.1355 -0.0605
17040TIP3    H172535   0.861   4.903  16.378  0.1010  0.9297  1.3593
17040TIP3    H272536   0.934   4.889  16.510  1.8857 -1.0112  0.2084
17041TIP3   OH272537   4.597   2.092  15.821  0.2926  0.5141  0.4508
17041TIP3    H172538   4.599   2.185  15.844  1.2330  0.0322  2.3984
17041TIP3    H272539   4.633   2.088  15.732  0.5162  1.9843  0.4744
17042TIP3   OH272540   3.277   6.757  13.858 -0.1920  0.1712 -0.0215
17042TIP3    H172541   3.272   6.803  13.774  0.3836 -0.2162 -0.2720
17042TIP3    H272542   3.239   6.671  13.840 -1.1463  0.5007  0.4141
17043TIP3   OH272543   6.608   6.224   5.241  0.2429  0.1770  0.3267
17043TIP3    H172544   6.530   6.238   5.188  0.6862 -1.7564 -0.9109
17043TIP3    H272545   6.601   6.287   5.312 -2.3641  0.1399  0.1466
17044TIP3   OH272546   2.177   0.454  14.184 -0.2096  0.3794 -0.6378
17044TIP3    H172547   2.168   0.360  14.202  0.4165  0.5533  0.6379
17044TIP3    H272548   2.122   0.469  14.107 -3.1013 -0.3633  1.2140
17045TIP3   OH272549   4.457   3.552  16.483 -0.2375  0.0743  0.0089
17045TIP3    H172550   4.370   3.539  16.521  0.2462 -1.9222  0.5098
17045TIP3    H272551   4.501   3.611  16.545 -0.1720 -1.4684  1.4883
17046TIP3   OH272552   1.095   3.175  15.573 -0.2260 -0.0585 -0.9759
17046TIP3    H172553   1.172   3.120  15.560  0.3021  0.9346 -2.2213
17046TIP3    H272554   1.130   3.264  15.576 -1.0589  0.2142  1.0730
17047TIP3   OH272555   6.673   2.738  11.422  0.0773  0.2219 -0.1487
17047TIP3    H172556   6.739   2.749  11.491 -0.0952  1.7314 -0.2117
17047TIP3    H272557   6.706   2.789  11.348 -0.6834  0.1898 -0.5202
17048TIP3   OH272558   4.691   6.670  16.546 -0.3678  0.3344 -0.8333
17048TIP3    H172559   4.750   6.614  16.495 -1.5421 -0.4290 -1.3955
17048TIP3    H272560   4.668   6.617  16.622 -1.9259 -0.2022 -1.6452
17049TIP3   OH272561   4.823   1.745  12.337  0.7652  0.3351  0.7004
17049TIP3    H172562   4.885   1.724  12.407  0.7926  0.3891  0.6928
17049TIP3    H272563   4.776   1.663  12.322  1.7676 -0.0989 -0.2350
17050TIP3   OH272564   1.852   3.131  14.009 -0.3107  0.2154  0.2004
17050TIP3    H172565   1.811   3.139  14.095  1.4356 -1.5832  1.2268
17050TIP3    H272566   1.889   3.043  14.007 -0.1655  0.2909 -2.3272
17051TIP3   OH272567   2.665   3.977   1.924 -0.3156 -0.1035  0.0367
17051TIP3    H172568   2.622   4.057   1.957  1.9355  0.4034  1.8829
17051TIP3    H272569   2.757   3.989   1.946  0.4349 -2.1912 -1.8080
17052TIP3   OH272570   1.989   1.839   5.111  0.4132  0.2035 -0.1394
17052TIP3    H172571   1.930   1.789   5.055  1.5123  1.8957 -2.9166
17052TIP3    H272572   1.933   1.902   5.156 -0.3056 -0.3124 -0.3072
17053TIP3   OH272573   2.181   2.295   3.234  0.5087  0.1245 -0.5166
17053TIP3    H172574   2.219   2.282   3.147  1.9259 -0.4663  0.1699
17053TIP3    H272575   2.092   2.326   3.217  1.0709  0.9048 -2.1775
17054TIP3   OH272576   6.443   0.913   0.325 -0.0518 -0.1742  0.5751
17054TIP3    H172577   6.414   0.964   0.249  0.3376 -1.7653 -0.6774
17054TIP3    H272578   6.395   0.830   0.318  1.2079 -0.9633  1.1641
17055TIP3   OH272579   1.283   6.609  14.153 -0.3416  0.1603  0.4293
17055TIP3    H172580   1.242   6.613  14.240  0.7042 -0.3312  0.9556
17055TIP3    H272581   1.356   6.548  14.164 -1.3142 -1.3469 -1.2693
17056TIP3   OH272582   4.604   0.660   2.913 -0.1533 -0.1748 -0.0972
17056TIP3    H172583   4.525   0.620   2.877 -0.5065  1.4760 -1.1848
17056TIP3    H272584   4.675   0.601   2.884 -0.7180 -0.2997 -1.2595
17057TIP3   OH272585   3.716   5.028  15.301 -0.7494 -0.4025 -0.1361
17057TIP3    H172586   3.698   4.994  15.213  0.2160 -0.9651 -0.1153
17057TIP3    H272587   3.811   5.019  15.311 -0.4802  2.1629 -0.0771
17058TIP3   OH272588   2.494   0.283   3.738 -0.1784  0.2557  0.1793
17058TIP3    H172589   2.530   0.292   3.649  2.1059 -0.5587  0.9966
17058TIP3    H272590   2.511   0.368   3.779  0.2394  0.0761  0.3731
17059TIP3   OH272591   4.985   4.068   6.218  0.0126  0.5303 -0.1468
17059TIP3    H172592   4.944   3.981   6.219  1.4505 -0.2154 -1.9927
17059TIP3    H272593   5.046   4.066   6.292  1.4764 -0.8022 -1.3454
17060TIP3   OH272594   4.432   6.110   1.488 -0.3534 -0.1056 -0.2341
17060TIP3    H172595   4.432   6.195   1.533 -0.4819  0.7483 -1.8109
17060TIP3    H272596   4.383   6.052   1.546  0.1407  0.7695  1.0901
17061TIP3   OH272597   0.717   4.101  13.260  0.0143  0.3029  0.0635
17061TIP3    H172598   0.740   4.194  13.264  1.6116 -0.1180  1.0459
17061TIP3    H272599   0.624   4.098  13.284  0.0916  1.5909  0.5442
17062TIP3   OH272600   6.752   5.918   5.002 -0.5040  0.5478 -0.1514
17062TIP3    H172601   6.792   6.000   5.031  0.3920  0.3446 -0.7861
17062TIP3    H272602   6.669   5.944   4.963 -0.7984  1.0240  0.7891
17063TIP3   OH272603   2.355   1.661   3.087 -0.1731  0.1703 -0.1665
17063TIP3    H172604   2.380   1.623   3.171 -0.7689  0.4364  0.1300
17063TIP3    H272605   2.423   1.726   3.069  0.1982 -0.2003 -0.1047
17064TIP3   OH272606   4.806   4.832  14.563 -0.2244  0.0500 -0.2796
17064TIP3    H172607   4.716   4.847  14.536  0.0490  1.9626 -0.2036
17064TIP3    H272608   4.801   4.811  14.656 -0.5207  0.9089 -0.1046
17065TIP3   OH272609   4.430   6.677   2.299  0.3887  0.4180 -0.6214
17065TIP3    H172610   4.393   6.642   2.380 -1.1439  0.2149 -1.3812
17065TIP3    H272611   4.409   6.771   2.302 -0.1335  0.3172 -1.0180
17066TIP3   OH272612   4.681   2.397   1.858  0.7607  0.3324  0.2691
17066TIP3    H172613   4.621   2.442   1.799  1.3336  0.7776  0.0144
17066TIP3    H272614   4.643   2.408   1.945  0.9984  1.4893  0.2297
17067TIP3   OH272615   3.931   3.637  13.985  0.3035 -0.1767 -0.4491
17067TIP3    H172616   3.973   3.666  13.904 -0.6601  0.2618 -0.7974
17067TIP3    H272617   3.967   3.550  14.001  1.4488  0.2545 -0.6604
17068TIP3   OH272618   0.517   4.617   4.989  0.4121 -0.0531 -0.3679
17068TIP3    H172619   0.591   4.638   5.047  1.0588  0.1161 -1.2506
17068TIP3    H272620   0.449   4.678   5.016  1.0123  0.6328 -0.3744
17069TIP3   OH272621   2.222   2.399   3.968 -0.1375 -0.1966 -0.4355
17069TIP3    H172622   2.138   2.352   3.971 -0.4070  0.2025 -1.5779
17069TIP3    H272623   2.279   2.342   3.916  0.2941 -0.4354  0.2861
17070TIP3   OH272624   0.013   5.579  11.205 -0.1802 -0.0487 -0.3551
17070TIP3    H172625   0.063   5.646  11.158 -1.2279 -0.6275 -2.3519
17070TIP3    H272626  -0.078   5.594  11.178 -0.5674 -1.5475  0.0606
17071TIP3   OH272627   3.683   5.004   2.598  0.6315 -0.2655 -0.2862
17071TIP3    H172628   3.726   4.933   2.645  2.1801  1.5129  1.0168
17071TIP3    H272629   3.752   5.047   2.549  0.0488  1.4632  0.3584
17072TIP3   OH272630   0.767   2.591  15.492 -0.1251  0.1691  0.2772
17072TIP3    H172631   0.763   2.681  15.527  0.7054 -0.0095  0.8368
17072TIP3    H272632   0.699   2.544  15.541 -1.2621  0.7236 -0.7308
17073TIP3   OH272633   1.620   1.946   6.017 -0.1087 -0.2570 -0.3008
17073TIP3    H172634   1.653   1.949   5.928  0.2578  0.6916 -0.1289
17073TIP3    H272635   1.535   1.901   6.009 -0.2888  0.2339 -1.1803
17074TIP3   OH272636   5.340   5.343  14.695  0.0366  0.2815  0.4376
17074TIP3    H172637   5.350   5.248  14.691  0.2125  0.1576  2.9384
17074TIP3    H272638   5.425   5.378  14.668  0.8521 -0.3505  2.1164
17075TIP3   OH272639   3.193   2.975   1.297 -0.1897  0.1245  0.1615
17075TIP3    H172640   3.111   2.964   1.345  0.6236 -0.9137  1.3369
17075TIP3    H272641   3.179   2.928   1.214 -0.8404  0.1225  0.2697
17076TIP3   OH272642   4.753   3.085   6.185  0.5464 -0.4873  0.0876
17076TIP3    H172643   4.667   3.073   6.145  1.5417 -1.7591 -1.7296
17076TIP3    H272644   4.735   3.133   6.266 -1.9003 -1.0064 -0.1082
17077TIP3   OH272645   6.285   3.406   2.483  0.2542 -0.3004 -0.0668
17077TIP3    H172646   6.350   3.447   2.427 -0.0903 -1.5247 -1.3816
17077TIP3    H272647   6.324   3.409   2.571  0.8812  1.4252 -0.3822
17078TIP3   OH272648   4.230   4.473   5.748  0.3352 -0.7351  0.5466
17078TIP3    H172649   4.270   4.552   5.785 -0.0030 -1.9246  3.4986
17078TIP3    H272650   4.159   4.451   5.808 -0.9767 -2.0757 -1.4370
17079TIP3   OH272651   5.888   5.066  15.091 -0.2150 -0.0365  0.1206
17079TIP3    H172652   5.879   5.033  15.180 -0.2881 -1.0205 -0.2455
17079TIP3    H272653   5.802   5.103  15.070 -0.8685 -1.7421 -0.3065
17080TIP3   OH272654   1.791   1.995  14.631 -0.5516 -0.1700 -0.6903
17080TIP3    H172655   1.863   1.943  14.597 -0.6959 -0.2037 -0.9435
17080TIP3    H272656   1.828   2.041  14.707 -0.5047 -0.8723 -0.2881
17081TIP3   OH272657   2.919   1.434   4.067 -0.1907 -0.1031 -0.7395
17081TIP3    H172658   2.998   1.451   4.119 -1.9357  5.4872  0.4624
17081TIP3    H272659   2.951   1.430   3.977  1.7284  0.1466 -0.1050
17082TIP3   OH272660   2.606   1.399  15.944 -0.4029 -0.0179 -0.2965
17082TIP3    H172661   2.546   1.449  15.889  0.8959  1.3666 -0.4936
17082TIP3    H272662   2.688   1.397  15.894  0.2662 -0.2814  0.7993
17083TIP3   OH272663   4.099   4.341  16.473  0.0856 -0.2350 -0.0544
17083TIP3    H172664   4.007   4.334  16.497  0.4647 -2.7504  0.8102
17083TIP3    H272665   4.147   4.324  16.555  1.3500  2.2512 -0.2034
17084TIP3   OH272666   3.312   1.509   1.609 -0.2141  0.4302 -0.0939
17084TIP3    H172667   3.316   1.418   1.638  2.5726  1.0718  1.8180
17084TIP3    H272668   3.369   1.513   1.533  0.1868  0.6857  0.2154
17085TIP3   OH272669   5.380   3.915   5.448  0.2638  0.0187 -0.4610
17085TIP3    H172670   5.444   3.984   5.464  0.4188 -0.2451  0.0806
17085TIP3    H272671   5.424   3.835   5.477 -0.3110 -0.1588 -0.0673
17086TIP3   OH272672   2.237   4.512  14.249  0.0948 -0.3427  0.0778
17086TIP3    H172673   2.219   4.523  14.343 -0.0449  3.4961 -0.3354
17086TIP3    H272674   2.152   4.522  14.207  0.1307 -2.2125 -0.5115
17087TIP3   OH272675   1.047   5.591   4.919 -0.4098  0.2082  0.3513
17087TIP3    H172676   1.082   5.502   4.909 -0.3838  0.0761  1.5036
17087TIP3    H272677   1.059   5.611   5.012  0.1898  1.6832 -0.0321
17088TIP3   OH272678   6.126   4.695   1.020 -1.0378  0.0563  0.2507
17088TIP3    H172679   6.066   4.733   0.955 -0.3149 -0.8695 -0.9746
17088TIP3    H272680   6.165   4.770   1.063  1.0579  0.7886 -2.7715
17089TIP3   OH272681   3.281   3.337   3.059 -0.1168 -0.3758 -0.4280
17089TIP3    H172682   3.275   3.432   3.062 -0.7215 -0.4517  1.3546
17089TIP3    H272683   3.191   3.307   3.064  0.1682 -1.0755  0.6177
17090TIP3   OH272684   2.125   5.050   1.602  0.3708 -0.9340 -0.0547
17090TIP3    H172685   2.155   5.089   1.684  0.4439 -2.8628  0.8711
17090TIP3    H272686   2.030   5.039   1.613 -0.0732  1.3681 -1.3514
17091TIP3   OH272687   3.938   4.229   2.058 -0.6086 -0.2607  0.0072
17091TIP3    H172688   4.030   4.232   2.031 -0.9281  0.6116 -0.9773
17091TIP3    H272689   3.910   4.321   2.061 -1.6480 -0.5524 -0.3957
17092TIP3   OH272690   4.049   6.260   0.847  0.5899 -0.6325 -0.0989
17092TIP3    H172691   4.067   6.309   0.767 -1.0027 -0.7642 -0.5506
17092TIP3    H272692   4.047   6.327   0.916  0.7696 -0.3737 -0.3436
17093TIP3   OH272693   1.387   5.167   0.083 -0.6018 -0.3163  0.0105
17093TIP3    H172694   1.464   5.208   0.045 -0.1591 -0.3591  0.8677
17093TIP3    H272695   1.342   5.237   0.130 -0.6695 -0.4718  0.1773
17094TIP3   OH272696   5.556   1.261  12.990 -0.1580 -0.4223 -0.0396
17094TIP3    H172697   5.518   1.330  12.936  0.1213 -0.1029  0.1717
17094TIP3    H272698   5.492   1.248  13.061  0.1209  0.1154  0.3170
17095TIP3   OH272699   6.761   1.163   5.719 -0.0003 -0.4692 -0.4226
17095TIP3    H172700   6.835   1.112   5.686 -0.9975 -0.6409 -2.5348
17095TIP3    H272701   6.748   1.132   5.808  1.2602 -1.8129 -0.6876
17096TIP3   OH272702   1.829   5.821   2.803 -0.8468  0.0807  0.2911
17096TIP3    H172703   1.821   5.902   2.852 -0.9521 -0.0382  0.4729
17096TIP3    H272704   1.864   5.758   2.866  1.1265  0.4890 -0.3902
17097TIP3   OH272705   4.323   2.437   5.625 -0.2923  0.2987 -0.3555
17097TIP3    H172706   4.347   2.447   5.717  0.6210  1.2292 -0.6773
17097TIP3    H272707   4.322   2.526   5.591  0.4674 -0.1178 -1.5043
17098TIP3   OH272708   4.706   4.223  11.244  0.3440 -0.5240 -0.3566
17098TIP3    H172709   4.750   4.138  11.238 -0.2007 -0.8137 -0.3494
17098TIP3    H272710   4.633   4.208  11.305  0.6561  0.1334  0.1909
17099TIP3   OH272711   4.294   0.210   4.839 -0.2452  0.2841  0.2230
17099TIP3    H172712   4.278   0.301   4.815 -1.6589 -0.1012 -0.3778
17099TIP3    H272713   4.299   0.164   4.755  0.0702 -0.2472  0.5319
17100TIP3   OH272714   0.787   0.376   2.061 -0.1581  0.8372  0.9170
17100TIP3    H172715   0.798   0.461   2.017  0.8357 -0.3999 -1.3255
17100TIP3    H272716   0.715   0.334   2.014  0.2418 -0.1048  1.1435
17101TIP3   OH272717   0.939   2.401  12.384  0.3103 -0.8097  0.2835
17101TIP3    H172718   1.029   2.421  12.358 -0.2038  0.4107 -0.5761
17101TIP3    H272719   0.897   2.369  12.304 -0.1693 -0.8983  0.5696
17102TIP3   OH272720   3.163   4.200   3.333 -0.5117 -1.4062  0.1266
17102TIP3    H172721   3.176   4.166   3.422  2.1528 -0.6679  0.0675
17102TIP3    H272722   3.249   4.235   3.308 -1.5379 -0.4986 -2.2804
17103TIP3   OH272723   0.058   3.688   1.543 -0.3099  0.4137  0.4374
17103TIP3    H172724   0.117   3.746   1.590  0.5022 -0.1380  0.1131
17103TIP3    H272725  -0.021   3.740   1.529  1.4414  2.4810 -2.4049
17104TIP3   OH272726   4.138   4.802  12.316  0.2022  0.2283 -0.0384
17104TIP3    H172727   4.055   4.754  12.312  0.2969  0.1633 -1.6703
17104TIP3    H272728   4.136   4.846  12.401 -0.9224 -0.8036  0.4964
17105TIP3   OH272729   5.549   3.325  13.623  0.1151 -0.0579  0.3382
17105TIP3    H172730   5.611   3.358  13.559 -0.8038 -0.8069 -0.9497
17105TIP3    H272731   5.553   3.230  13.614 -1.0071 -0.1260  0.4495
17106TIP3   OH272732   1.793   3.027  16.715 -0.5114 -0.4595 -0.0263
17106TIP3    H172733   1.764   3.031  16.624 -0.7788  0.6175  0.0955
17106TIP3    H272734   1.837   3.111  16.730 -1.5963 -0.1044  1.2105
17107TIP3   OH272735   6.715   2.974   4.873  0.0047  0.6313  0.1243
17107TIP3    H172736   6.646   2.956   4.937  0.0683 -0.3095 -0.0769
17107TIP3    H272737   6.671   3.026   4.805 -0.6923 -0.5510 -0.3509
17108TIP3   OH272738   2.057   2.585   6.926  0.2426 -0.6851 -0.1320
17108TIP3    H172739   1.972   2.559   6.891  0.2751 -0.9147 -0.0449
17108TIP3    H272740   2.099   2.502   6.949 -0.3428 -0.4820  1.7690
17109TIP3   OH272741   4.664   4.368  14.195  0.1802 -0.1076  0.1161
17109TIP3    H172742   4.613   4.303  14.243  0.1592  0.5802  1.0295
17109TIP3    H272743   4.741   4.384  14.250 -0.0952  1.0629  0.1731
17110TIP3   OH272744   6.181   2.185  16.298  0.0519  0.0418  0.0910
17110TIP3    H172745   6.223   2.133  16.367 -0.8395  0.6739  1.1275
17110TIP3    H272746   6.104   2.134  16.274  0.3332 -0.1504 -0.4075
17111TIP3   OH272747   6.185   1.354  14.293  0.3145 -0.4982  1.0133
17111TIP3    H172748   6.279   1.353  14.311  0.4861 -2.9245  0.1769
17111TIP3    H272749   6.158   1.262  14.304 -1.4988 -0.2281 -0.9913
17112TIP3   OH272750   0.487   4.834   2.505  0.4853  0.6848 -0.3539
17112TIP3    H172751   0.513   4.761   2.561  0.9888 -0.2506 -1.8191
17112TIP3    H272752   0.466   4.904   2.567 -1.6799 -1.2170  1.1455
17113TIP3   OH272753   4.079   0.385   0.450  0.0699  0.8588 -0.2852
17113TIP3    H172754   4.028   0.315   0.409  1.5774 -0.0152 -0.7302
17113TIP3    H272755   4.018   0.427   0.511 -0.6539 -1.3083  0.5310
17114TIP3   OH272756   6.403   6.192  12.951  0.0774 -0.3344 -0.3531
17114TIP3    H172757   6.425   6.285  12.940  1.0765 -0.6238 -0.8566
17114TIP3    H272758   6.449   6.148  12.880 -1.2552 -1.0981 -0.7541
17115TIP3   OH272759   3.122   5.930  14.420  0.2946 -0.0445 -0.9119
17115TIP3    H172760   3.174   5.963  14.493 -0.7657  2.0276 -1.0324
17115TIP3    H272761   3.159   5.844  14.400  0.8230 -0.5023  1.8353
17116TIP3   OH272762   0.239   3.401  16.833  0.1064 -0.5404  0.0284
17116TIP3    H172763   0.162   3.367  16.788 -0.9443  2.1938 -0.3274
17116TIP3    H272764   0.312   3.381  16.775 -0.4929 -2.0468 -0.2137
17117TIP3   OH272765   0.171   5.769   5.159 -0.6850  0.2715  0.9245
17117TIP3    H172766   0.184   5.860   5.187 -2.6130  0.9617 -0.3366
17117TIP3    H272767   0.083   5.768   5.121 -0.8244 -2.2133  1.2415
17118TIP3   OH272768   3.822   1.975   4.656  0.4388  0.3742  0.0530
17118TIP3    H172769   3.731   2.003   4.647  0.2574 -0.0937  0.3966
17118TIP3    H272770   3.856   2.029   4.728  0.6590  1.1002 -0.5971
17119TIP3   OH272771   4.441   3.439  13.448  0.3501 -0.5367 -0.4253
17119TIP3    H172772   4.534   3.429  13.465  0.3055 -1.0871 -0.5107
17119TIP3    H272773   4.419   3.368  13.388 -0.1360 -0.4507 -0.3557
17120TIP3   OH272774   5.765   2.527  11.574 -0.0290  0.2637 -0.2686
17120TIP3    H172775   5.781   2.509  11.481  0.4552  0.0539 -0.1445
17120TIP3    H272776   5.672   2.548  11.578 -0.2920 -0.7932 -0.6356
17121TIP3   OH272777   5.118   3.328   0.627 -0.4346 -0.4522 -0.2438
17121TIP3    H172778   5.136   3.405   0.682  0.0430 -0.8182  0.1208
17121TIP3    H272779   5.024   3.332   0.611 -0.3803  0.3211 -0.3955
17122TIP3   OH272780   6.153   1.527  13.124 -0.3273  0.1846 -0.1371
17122TIP3    H172781   6.067   1.488  13.106  0.6642 -1.8362 -0.5737
17122TIP3    H272782   6.175   1.574  13.044 -0.3370 -0.5630 -0.5775
17123TIP3   OH272783   1.296   2.679  14.976 -0.0245 -0.5084  0.2732
17123TIP3    H172784   1.224   2.655  15.034  0.9035 -0.5190  1.4620
17123TIP3    H272785   1.256   2.727  14.905 -1.0300  0.7514  1.6792
17124TIP3   OH272786   1.108   6.460   1.312  0.6260 -0.4310  0.0298
17124TIP3    H172787   1.025   6.508   1.311  0.9597  0.1521  0.2796
17124TIP3    H272788   1.152   6.490   1.392  0.9783 -0.9109  0.0166
17125TIP3   OH272789   5.069   5.770   1.212  0.0792 -0.3344 -0.1979
17125TIP3    H172790   5.075   5.694   1.155  0.1490 -0.1581 -0.4261
17125TIP3    H272791   5.159   5.786   1.240  0.0045 -0.5928  0.1851
17126TIP3   OH272792   2.268   4.602  13.324 -0.4651  0.5442  0.4441
17126TIP3    H172793   2.294   4.570  13.237 -1.3970  1.4557 -0.1665
17126TIP3    H272794   2.350   4.603  13.374  0.0626 -0.0569 -0.3903
17127TIP3   OH272795   2.980   1.228   3.287 -0.1822  0.1415  0.4274
17127TIP3    H172796   3.036   1.295   3.247 -0.6154 -0.0040 -0.4329
17127TIP3    H272797   2.906   1.276   3.323  0.4742  0.3327  1.5523
17128TIP3   OH272798   1.985   0.934   4.784 -0.0007  0.2407 -0.0930
17128TIP3    H172799   1.994   0.960   4.875  0.1707  0.8636 -0.2880
17128TIP3    H272800   2.074   0.939   4.749 -0.3876  2.0291 -0.8425
17129TIP3   OH272801   5.105   3.515  15.335  0.5076  0.2538 -0.4102
17129TIP3    H172802   5.097   3.420  15.325  0.6490  0.1660  0.3040
17129TIP3    H272803   5.155   3.543  15.259  0.7594 -0.2893 -0.4437
17130TIP3   OH272804   4.885   4.764  16.188  0.4850 -0.5838  0.3803
17130TIP3    H172805   4.835   4.721  16.258  0.1557  0.5851  0.8772
17130TIP3    H272806   4.976   4.738  16.204  0.0489 -2.7734 -0.5725
17131TIP3   OH272807   1.895   1.288  16.541 -0.0017  0.3227 -0.0294
17131TIP3    H172808   1.889   1.369  16.591 -0.9862  0.0711  0.2700
17131TIP3    H272809   1.821   1.236  16.571 -0.7721  0.2760 -1.9412
17132TIP3   OH272810   1.780   6.072   2.888  0.4214 -0.4483 -0.2621
17132TIP3    H172811   1.772   6.077   2.984  1.0649  0.7875 -0.2658
17132TIP3    H272812   1.823   6.153   2.863  2.0775 -1.6384 -1.4193
17133TIP3   OH272813   4.686   2.782   4.349 -0.1411  0.2085 -0.5524
17133TIP3    H172814   4.752   2.783   4.419  0.2405 -1.9724 -0.8332
17133TIP3    H272815   4.610   2.826   4.387  0.9815  1.4404  0.2948
17134TIP3   OH272816   5.306   5.248   1.329 -0.2191  0.5054 -0.0056
17134TIP3    H172817   5.225   5.223   1.285 -0.6076  1.9933 -0.1790
17134TIP3    H272818   5.313   5.343   1.314  1.1787  0.5163  0.6124
17135TIP3   OH272819   4.488   5.678  15.692 -0.3011 -0.6041 -0.3862
17135TIP3    H172820   4.573   5.680  15.736 -0.1365 -1.2821 -0.6706
17135TIP3    H272821   4.454   5.767  15.702 -0.1200 -0.6581  0.8260
17136TIP3   OH272822   0.126   6.298   6.186  0.6413 -0.2399 -0.0164
17136TIP3    H172823   0.191   6.260   6.127  1.0474  1.5896 -0.7736
17136TIP3    H272824   0.047   6.305   6.132  0.6584  0.2700  0.0224
17137TIP3   OH272825   2.455   3.898   1.021  0.1888  0.0868  0.2569
17137TIP3    H172826   2.392   3.883   1.092  0.8266  1.8695  1.2300
17137TIP3    H272827   2.479   3.810   0.992 -0.2648 -0.6713  2.0879
17138TIP3   OH272828   3.171   6.090   0.084 -0.1233  0.5821  0.6090
17138TIP3    H172829   3.234   6.125   0.147 -2.3328  1.7901  2.2357
17138TIP3    H272830   3.214   6.013   0.046  2.2234  1.2782  1.7878
17139TIP3   OH272831   4.539   2.073  12.922 -0.0715 -0.8773 -0.1527
17139TIP3    H172832   4.618   2.086  12.871 -0.3702 -0.9886 -0.6433
17139TIP3    H272833   4.523   2.158  12.964 -1.0053 -0.1634 -1.9129
17140TIP3   OH272834   2.188   6.073  15.353 -0.5362  0.1273 -0.6156
17140TIP3    H172835   2.253   6.042  15.415 -1.6208  1.0532  1.0279
17140TIP3    H272836   2.238   6.092  15.273  1.2526  1.1667  0.7238
17141TIP3   OH272837   3.409   0.034  16.260  0.7088  0.3692  0.0431
17141TIP3    H172838   3.441   0.071  16.177  1.5995  1.9706  1.0772
17141TIP3    H272839   3.434  -0.058  16.257  0.8088  0.4303 -1.4223
17142TIP3   OH272840   4.471   1.787  11.562 -0.7653  0.5185 -0.0110
17142TIP3    H172841   4.532   1.859  11.580  0.4428 -0.6722  0.7820
17142TIP3    H272842   4.390   1.812  11.607 -0.4286  1.4857  0.0656
17143TIP3   OH272843   4.066   4.963   2.040 -0.4871 -0.3086 -0.1990
17143TIP3    H172844   4.040   4.877   2.008 -0.0371  0.1274 -1.7790
17143TIP3    H272845   3.983   5.008   2.057 -0.7243 -0.9631  0.4184
17144TIP3   OH272846   6.352   0.936  15.012 -0.6725 -0.1803 -0.1184
17144TIP3    H172847   6.360   0.874  15.084  0.3036  0.3933  0.2655
17144TIP3    H272848   6.344   1.021  15.054 -2.2513 -0.0397 -0.6398
17145TIP3   OH272849   3.333   3.526  14.308  0.3218  0.1300  0.1331
17145TIP3    H172850   3.425   3.546  14.325  0.7573 -1.1084 -0.6946
17145TIP3    H272851   3.326   3.525  14.212 -0.1494 -1.4974  0.1727
17146TIP3   OH272852   5.902   1.694  10.927 -0.2276  0.5826 -0.1997
17146TIP3    H172853   5.851   1.732  10.856 -0.2468 -0.5811 -0.8252
17146TIP3    H272854   5.952   1.623  10.886 -0.6988 -0.5010  1.0338
17147TIP3   OH272855   5.521   2.633  13.481 -0.0628 -0.1783 -0.0664
17147TIP3    H172856   5.511   2.538  13.471  2.6312 -0.7382  1.8910
17147TIP3    H272857   5.603   2.653  13.435 -1.3821  1.4710 -1.7500
17148TIP3   OH272858   6.335   1.775  16.893  0.4150 -0.8477  0.2363
17148TIP3    H172859   6.358   1.867  16.880  0.2540 -0.9250 -0.6143
17148TIP3    H272860   6.377   1.751  16.976 -0.9155  0.4353  1.2865
17149TIP3   OH272861   3.184   4.171   2.149  0.3755 -0.1401  0.1067
17149TIP3    H172862   3.103   4.222   2.152  0.5664  0.1102  1.1484
17149TIP3    H272863   3.244   4.217   2.207  0.8820 -0.9699  0.2537
17150TIP3   OH272864   1.780   1.611   0.982 -0.2545  0.1909  0.2531
17150TIP3    H172865   1.692   1.642   0.961 -0.0404  0.3446 -0.4198
17150TIP3    H272866   1.791   1.631   1.075 -1.0818 -0.2008  0.4333
17151TIP3   OH272867   5.448   0.486  16.532  0.1549 -0.9219  0.4300
17151TIP3    H172868   5.482   0.570  16.501  1.2916 -0.7967  1.9477
17151TIP3    H272869   5.360   0.480  16.495  0.3134  0.6324 -0.2245
17152TIP3   OH272870   1.541   1.387  13.290 -0.3305  0.6840 -0.2696
17152TIP3    H172871   1.520   1.318  13.353 -1.6447  2.7314  1.5953
17152TIP3    H272872   1.487   1.366  13.213 -0.7169 -0.3344  0.2633
17153TIP3   OH272873   0.740   1.027   0.996 -0.3038  0.5077  0.3797
17153TIP3    H172874   0.741   1.117   1.028 -0.2149  1.1081 -1.2668
17153TIP3    H272875   0.647   1.008   0.980 -0.3092  0.3510  0.5904
17154TIP3   OH272876   4.155   6.159  13.151 -0.4069  0.3989  0.0562
17154TIP3    H172877   4.119   6.235  13.105 -0.1613 -0.0836 -0.9528
17154TIP3    H272878   4.230   6.193  13.199 -2.5990  1.5807  2.7948
17155TIP3   OH272879   6.779   1.579   1.932 -0.2252  0.0057  0.4554
17155TIP3    H172880   6.855   1.622   1.893 -0.0143 -0.4319  0.3790
17155TIP3    H272881   6.704   1.618   1.888 -0.0007 -0.3198 -0.2271
17156TIP3   OH272882   5.618   0.313  13.217  0.4199  0.2793 -0.3155
17156TIP3    H172883   5.687   0.375  13.194 -1.1492  1.0173 -3.2568
17156TIP3    H272884   5.575   0.353  13.293  0.4834  1.9871 -1.1537
17157TIP3   OH272885   2.842   2.317  14.521 -0.4084  0.5317 -0.2061
17157TIP3    H172886   2.832   2.308  14.427  0.0464 -0.9534 -0.1188
17157TIP3    H272887   2.783   2.252  14.558  0.9701 -0.3510  0.4869
17158TIP3   OH272888   6.185   3.441  14.125 -1.0639 -0.3525  0.6444
17158TIP3    H172889   6.173   3.423  14.032 -0.5154  2.5979 -0.0561
17158TIP3    H272890   6.136   3.522  14.140  1.2278  0.7972  2.2691
17159TIP3   OH272891   2.259   4.644   5.855 -0.4225 -0.3004 -0.1832
17159TIP3    H172892   2.212   4.727   5.867 -0.4065 -0.0313 -1.9268
17159TIP3    H272893   2.342   4.670   5.815  1.8039 -0.6303  3.9385
17160TIP3   OH272894   4.557   2.010   2.637 -0.3329 -0.1242  0.0016
17160TIP3    H172895   4.475   2.040   2.677 -0.2860 -1.7329  1.3441
17160TIP3    H272896   4.539   1.920   2.610  0.8591 -0.3494 -0.0606
17161TIP3   OH272897   6.328   2.065  13.732 -0.2883  0.4392 -0.1849
17161TIP3    H172898   6.304   2.076  13.824 -0.9586  0.0454 -0.3079
17161TIP3    H272899   6.289   1.981  13.707  1.1805 -0.1907 -0.4125
17162TIP3   OH272900   1.991   0.616   4.931 -0.2212 -0.1035 -0.0603
17162TIP3    H172901   1.926   0.562   4.886  1.7797 -2.5757 -0.0836
17162TIP3    H272902   2.047   0.649   4.861  0.7265 -1.0028  0.2568
17163TIP3   OH272903   0.834   3.755   1.151 -0.1915 -0.3853  0.4877
17163TIP3    H172904   0.841   3.825   1.087 -2.3131 -1.2202 -0.7375
17163TIP3    H272905   0.874   3.679   1.108  1.0182 -0.2476  1.3342
17164TIP3   OH272906   0.002   1.049   2.941  0.3803 -0.3481 -0.0462
17164TIP3    H172907   0.092   1.060   2.913  0.7579 -1.0991  0.8586
17164TIP3    H272908  -0.023   0.963   2.908  0.3406 -0.5933  0.6186
17165TIP3   OH272909   6.707   0.510   1.866 -0.4846 -1.0169 -0.0962
17165TIP3    H172910   6.757   0.530   1.945  0.2819 -1.1783 -0.5357
17165TIP3    H272911   6.770   0.467   1.808  0.2645  3.2120 -2.6424
17166TIP3   OH272912   5.953   6.560  10.949 -0.0169 -0.2110 -0.1299
17166TIP3    H172913   6.040   6.600  10.957  0.5661 -1.3936 -0.4379
17166TIP3    H272914   5.927   6.579  10.859  0.0905 -0.2040 -0.1611
17167TIP3   OH272915   2.403   0.095  13.564 -0.0847  0.0908 -1.0539
17167TIP3    H172916   2.358   0.032  13.621  3.0184 -0.7928  0.5552
17167TIP3    H272917   2.490   0.057  13.551  0.5722  2.2208 -3.2290
17168TIP3   OH272918   0.451   4.369  13.679  0.0340 -0.5806 -0.4435
17168TIP3    H172919   0.546   4.381  13.683 -0.3081  2.1452  0.4224
17168TIP3    H272920   0.418   4.416  13.756 -2.1154 -0.2451 -1.5360
17169TIP3   OH272921   3.046   0.985  17.212 -0.1494  0.0111 -0.7246
17169TIP3    H172922   2.966   0.957  17.169 -0.2778  1.5273 -1.5056
17169TIP3    H272923   3.075   1.061  17.161  0.3807  1.0512  1.0967
17170TIP3   OH272924   3.418   2.199  14.991 -0.2992  0.2889  0.1126
17170TIP3    H172925   3.479   2.272  15.005 -0.4871  0.8043 -1.6352
17170TIP3    H272926   3.387   2.211  14.902 -0.7143 -1.6692 -0.0254
17171TIP3   OH272927   4.308   5.033   5.623 -0.0429 -0.1415 -0.1221
17171TIP3    H172928   4.215   5.011   5.615 -0.0167 -1.0925  1.8955
17171TIP3    H272929   4.354   4.950   5.610  0.2891 -0.4834  2.8343
17172TIP3   OH272930   0.642   5.030   5.932  0.1680  0.5986 -0.2435
17172TIP3    H172931   0.639   5.109   5.985  2.2238  0.6934 -0.2529
17172TIP3    H272932   0.650   5.061   5.842 -2.0501  0.4072 -0.5518
17173TIP3   OH272933   6.406   5.345   4.183  0.4629 -0.3997 -0.1067
17173TIP3    H172934   6.472   5.391   4.130  1.0297 -0.3928  0.5986
17173TIP3    H272935   6.398   5.259   4.141  0.2081 -0.0548 -0.7728
17174TIP3   OH272936   6.128   2.585   4.914  0.3618  0.0180  0.1748
17174TIP3    H172937   6.057   2.647   4.897 -1.1878 -1.4487  0.9673
17174TIP3    H272938   6.188   2.631   4.972 -2.3524 -0.1945  3.2847
17175TIP3   OH272939   2.988   1.513  13.964 -0.0833 -0.5219  0.0849
17175TIP3    H172940   3.008   1.558  13.882  0.0760 -1.9791 -0.6907
17175TIP3    H272941   2.934   1.438  13.938 -1.2312 -0.2017  1.4658
17176TIP3   OH272942   6.099   0.073   1.216  0.4014 -0.5448 -0.4500
17176TIP3    H172943   6.031   0.006   1.209 -0.0266 -0.2959  1.0796
17176TIP3    H272944   6.052   0.156   1.218  0.7624 -0.3447  0.1698
17177TIP3   OH272945   5.139   0.693   2.233 -0.3258 -0.5809 -0.7136
17177TIP3    H172946   5.136   0.653   2.320 -0.1171 -0.2532 -0.5524
17177TIP3    H272947   5.051   0.729   2.220  0.1969  1.0849  0.1899
17178TIP3   OH272948   3.793   5.681   3.156 -0.0683  0.2768  0.0542
17178TIP3    H172949   3.736   5.662   3.081  0.2499 -0.5816  0.0300
17178TIP3    H272950   3.739   5.665   3.233 -0.4484  1.3230  0.0109
17179TIP3   OH272951   4.408   0.999   5.127  0.3451  0.3502 -0.0884
17179TIP3    H172952   4.450   0.981   5.211 -2.1422 -1.6911  0.7786
17179TIP3    H272953   4.388   1.093   5.130  1.4696  0.5719  1.0247
17180TIP3   OH272954   3.571   5.867   5.076 -0.0072  1.2748  0.2383
17180TIP3    H172955   3.560   5.787   5.127  1.6353  0.7878 -0.1244
17180TIP3    H272956   3.547   5.938   5.136 -1.0456  0.5373  0.7005
17181TIP3   OH272957   6.696   6.121  14.063 -0.2034 -0.1542  0.4832
17181TIP3    H172958   6.700   6.025  14.058  1.9811 -0.0325 -0.8787
17181TIP3    H272959   6.656   6.139  14.147  1.4664 -2.2653  1.7935
17182TIP3   OH272960   2.203   1.709  15.152  0.2181  0.2496 -0.6125
17182TIP3    H172961   2.234   1.623  15.179 -0.9013  0.7417  2.3570
17182TIP3    H272962   2.127   1.691  15.097  0.0995 -0.6398 -0.1593
17183TIP3   OH272963   5.693   5.304  17.195 -0.3664 -0.1077  0.1436
17183TIP3    H172964   5.742   5.230  17.231  2.2781  0.4691 -2.0763
17183TIP3    H272965   5.628   5.264  17.137  0.6668 -0.7568 -0.5958
17184TIP3   OH272966   4.888   4.987  13.882  0.0705 -0.5571 -0.1853
17184TIP3    H172967   4.819   4.922  13.897  0.9539 -1.9008 -1.8468
17184TIP3    H272968   4.935   4.991  13.966 -0.2350 -1.7708  0.0510
17185TIP3   OH272969   6.240   3.286   3.949 -0.0483  0.2978 -0.0377
17185TIP3    H172970   6.165   3.244   3.907  0.1916 -0.2172  0.0414
17185TIP3    H272971   6.227   3.379   3.934  0.3661  0.0842 -1.8202
17186TIP3   OH272972   4.851   4.567   2.205  0.0514 -0.1677 -0.5979
17186TIP3    H172973   4.857   4.638   2.142 -0.3800  0.1004 -0.3377
17186TIP3    H272974   4.899   4.598   2.282  0.5925 -0.5011 -0.7906
17187TIP3   OH272975   4.787   3.930  11.239  0.6599 -0.1406  0.2287
17187TIP3    H172976   4.873   3.941  11.199  0.3975 -0.5170 -0.4486
17187TIP3    H272977   4.744   3.864  11.185 -0.1133  0.1598  0.4728
17188TIP3   OH272978   6.134   2.042  13.224  0.2792  0.3033 -0.0431
17188TIP3    H172979   6.194   2.011  13.292 -0.1901  0.1588  0.3123
17188TIP3    H272980   6.055   1.989  13.236 -0.2600  1.1199  0.0951
17189TIP3   OH272981   2.529   0.168  14.888  0.5829  0.5956 -0.3032
17189TIP3    H172982   2.450   0.124  14.857  1.2784  0.1023 -1.4426
17189TIP3    H272983   2.531   0.251  14.840 -0.3294  1.5560  1.2825
17190TIP3   OH272984   3.522   0.848   4.824 -0.2702 -0.0161 -0.1159
17190TIP3    H172985   3.505   0.940   4.846 -1.0008 -0.2633  0.3739
17190TIP3    H272986   3.544   0.849   4.731 -1.6796  0.4899 -0.4641
17191TIP3   OH272987   5.752   6.001  13.726 -0.5177 -0.5170  0.0805
17191TIP3    H172988   5.840   6.038  13.726 -0.0696 -1.4896  2.2470
17191TIP3    H272989   5.753   5.936  13.656 -0.1041  0.7712 -1.1256
17192TIP3   OH272990   0.006   4.220   3.782 -0.5165  0.3958 -0.4973
17192TIP3    H172991   0.039   4.130   3.783 -0.8380  0.2788 -0.1982
17192TIP3    H272992   0.032   4.254   3.697  2.7913  1.2025  0.7705
17193TIP3   OH272993   6.355   5.413  16.329  0.0496 -0.2862 -0.1042
17193TIP3    H172994   6.327   5.461  16.251 -0.6945 -0.2867  0.1627
17193TIP3    H272995   6.378   5.480  16.392 -2.6372 -0.2291  0.8672
17194TIP3   OH272996   5.770   5.671  11.368  0.2527  0.4409  0.2301
17194TIP3    H172997   5.813   5.586  11.380 -1.0471 -0.1621  0.6279
17194TIP3    H272998   5.677   5.652  11.377 -0.0555  1.8648  0.0295
17195TIP3   OH272999   0.630   4.852  15.597 -0.4411 -0.4168  0.3485
17195TIP3    H173000   0.618   4.947  15.605 -1.0336 -0.6082  1.8436
17195TIP3    H273001   0.656   4.839  15.506  1.2624  1.3447  0.5603
17196TIP3   OH273002   0.663   0.754  14.526 -0.4934 -0.1480  0.2611
17196TIP3    H173003   0.681   0.692  14.597  0.2588 -0.5955 -0.3078
17196TIP3    H273004   0.648   0.699  14.449 -1.1390  0.3381  0.0371
17197TIP3   OH273005   3.811   1.063   0.924 -0.0391  0.0730  0.4837
17197TIP3    H173006   3.749   1.051   0.852 -0.0559 -0.6755  0.6246
17197TIP3    H273007   3.891   1.093   0.882  0.4114 -1.7696 -0.0126
17198TIP3   OH273008   1.075   5.043   1.842 -0.1646  0.3173 -0.5611
17198TIP3    H173009   1.163   5.006   1.846 -1.3053 -2.3002  2.3379
17198TIP3    H273010   1.086   5.134   1.872  1.9333  0.9733 -3.1202
17199TIP3   OH273011   5.443   0.910   0.686  0.5792 -0.0580 -0.1954
17199TIP3    H173012   5.495   0.921   0.766 -1.1394  0.2798  0.8897
17199TIP3    H273013   5.397   0.827   0.698 -0.1310  0.2778 -0.5742
17200TIP3   OH273014   3.448   2.828  16.049  0.2616  0.3879 -0.0105
17200TIP3    H173015   3.426   2.738  16.072  1.0980  0.3760  0.8169
17200TIP3    H273016   3.370   2.863  16.006 -0.2333 -0.5808  0.1052
17201TIP3   OH273017   3.820   1.651   0.197  0.1086  0.0658  0.0359
17201TIP3    H173018   3.876   1.581   0.230 -1.5852 -0.7420  1.2694
17201TIP3    H273019   3.737   1.640   0.244 -0.9184  1.5562 -1.3605
17202TIP3   OH273020   4.310   1.585   6.292 -0.4371 -0.3601  0.2100
17202TIP3    H173021   4.237   1.528   6.316  1.2675 -2.6625  0.0685
17202TIP3    H273022   4.342   1.620   6.376 -3.0855  2.4910  0.1061
17203TIP3   OH273023   2.430   2.300   3.770 -0.0300  0.0821 -0.0388
17203TIP3    H173024   2.496   2.278   3.704 -1.7830  1.4379 -2.3795
17203TIP3    H273025   2.363   2.233   3.759  0.3625 -0.5477  1.4241
17204TIP3   OH273026   5.391   6.476   2.976 -0.1209 -0.2252  0.3704
17204TIP3    H173027   5.296   6.466   2.967  0.0292 -0.6795 -0.7677
17204TIP3    H273028   5.404   6.500   3.068 -1.5003  1.9377  0.0265
17205TIP3   OH273029   2.341   1.527   2.149 -0.6430 -0.1019 -0.7602
17205TIP3    H173030   2.346   1.611   2.103  0.7247  1.1084  1.4969
17205TIP3    H273031   2.248   1.516   2.170 -1.0455  0.0886 -2.3853
17206TIP3   OH273032   3.446   3.966  11.033  0.3859  0.5933  1.0189
17206TIP3    H173033   3.493   4.039  10.994 -1.8713  1.4476 -0.2287
17206TIP3    H273034   3.431   3.991  11.124  0.6371  1.1764  0.8949
17207TIP3   OH273035   0.712   2.803   4.481  0.1388  0.1911 -0.3643
17207TIP3    H173036   0.733   2.726   4.429  1.6631 -1.3088  2.3332
17207TIP3    H273037   0.683   2.869   4.418  0.6531 -1.9731 -2.9033
17208TIP3   OH273038   0.091   1.947  10.999  0.3834 -0.2441 -0.2606
17208TIP3    H173039   0.011   1.996  11.015  0.2179 -0.1136 -1.4340
17208TIP3    H273040   0.160   1.996  11.044  0.1615  0.8813 -1.1259
17209TIP3   OH273041   2.091   0.856  14.448 -0.2166  0.0930 -1.1101
17209TIP3    H173042   2.186   0.859  14.436 -0.3149 -0.7447 -2.0941
17209TIP3    H273043   2.073   0.927  14.510  0.8614  1.3272 -2.1794
17210TIP3   OH273044   1.020   2.091   2.010 -0.1456  0.2468  0.0395
17210TIP3    H173045   0.929   2.120   2.008 -0.1046  0.7439  3.2574
17210TIP3    H273046   1.016   1.998   2.032  0.1663  0.5590  1.4329
17211TIP3   OH273047   0.884   0.832  16.898 -0.1390  0.6508  0.4442
17211TIP3    H173048   0.953   0.824  16.831 -0.6524 -0.9908  0.0960
17211TIP3    H273049   0.836   0.749  16.893 -0.1869  0.5167  2.8672
17212TIP3   OH273050   5.578   4.266  13.456  0.4541 -0.1779 -0.0925
17212TIP3    H173051   5.627   4.302  13.530  1.2903 -1.6510  0.1082
17212TIP3    H273052   5.536   4.341  13.416  1.5165  0.9007  0.7635
17213TIP3   OH273053   4.175   1.902   0.454  0.1891  0.2655 -0.8174
17213TIP3    H173054   4.240   1.972   0.461 -0.4255  0.6179  1.5539
17213TIP3    H273055   4.223   1.829   0.416  1.7541  0.8099  0.0628
17214TIP3   OH273056   4.813   5.537   1.918 -0.0441 -0.3192 -0.5467
17214TIP3    H173057   4.886   5.578   1.873  1.2577 -1.1610  0.7571
17214TIP3    H273058   4.816   5.573   2.007 -1.7126  0.2588 -0.6991
17215TIP3   OH273059   5.945   5.031   0.374 -0.5913  0.1713 -0.7792
17215TIP3    H173060   5.867   4.986   0.407 -0.4893 -0.1285 -0.9365
17215TIP3    H273061   6.007   4.960   0.355 -0.5840  0.3435 -1.4371
17216TIP3   OH273062   5.662   6.364  13.703 -0.1658  0.7871 -0.1244
17216TIP3    H173063   5.625   6.315  13.777  1.2383  1.6888  1.1879
17216TIP3    H273064   5.598   6.351  13.633 -0.0747 -2.5411  0.3101
17217TIP3   OH273065   1.209   4.254  17.043 -0.1893 -0.9479 -0.2021
17217TIP3    H173066   1.298   4.219  17.031 -0.8052 -3.3213  1.6804
17217TIP3    H273067   1.181   4.276  16.955  1.7554 -1.5059 -1.0057
17218TIP3   OH273068   6.628   0.788   4.807  0.1636 -0.0206 -0.3841
17218TIP3    H173069   6.533   0.785   4.800 -0.4007  0.0324  5.1319
17218TIP3    H273070   6.653   0.871   4.767 -2.3487  0.9393 -0.0396
17219TIP3   OH273071   2.721   1.728  16.394 -0.1200  0.3700  0.0142
17219TIP3    H173072   2.699   1.735  16.487  0.1453 -1.6648  0.2521
17219TIP3    H273073   2.638   1.745  16.348 -0.6852 -0.4944  0.6977
17220TIP3   OH273074   0.987   5.387  10.532 -0.7653  0.5831 -0.6582
17220TIP3    H173075   0.972   5.474  10.496  1.9468  1.7567  0.8415
17220TIP3    H273076   0.903   5.361  10.568 -2.3180  1.3626 -3.6153
17221TIP3   OH273077   3.477   3.398   3.935 -0.0657 -0.4833 -0.1101
17221TIP3    H173078   3.406   3.335   3.933  3.1454 -4.3511  1.0965
17221TIP3    H273079   3.460   3.451   4.013 -0.6562 -2.6182  1.2484
17222TIP3   OH273080   4.786   1.158  16.362 -0.2409 -0.0947  0.2998
17222TIP3    H173081   4.765   1.210  16.440 -0.7616  1.8992 -1.1373
17222TIP3    H273082   4.728   1.082  16.368 -0.4813  0.1757  1.6909
17223TIP3   OH273083   5.078   4.524  14.888 -0.3846 -0.3006 -0.5084
17223TIP3    H173084   5.168   4.549  14.865 -0.2508  1.2638  1.5129
17223TIP3    H273085   5.088   4.448  14.945 -0.4195 -0.7909 -1.1477
17224TIP3   OH273086   6.702   0.261   5.608 -0.1190 -0.0569  0.7251
17224TIP3    H173087   6.760   0.209   5.663  1.2547  0.6617 -0.0140
17224TIP3    H273088   6.757   0.289   5.535 -1.4482  0.4990 -0.0785
17225TIP3   OH273089   3.951   4.788  16.893  0.6140 -0.8429 -0.1290
17225TIP3    H173090   3.886   4.827  16.951  0.4448 -2.6892  0.9622
17225TIP3    H273091   4.028   4.843  16.903 -0.9550  1.7743 -1.9568
17226TIP3   OH273092   6.227   1.967   1.948  0.2147 -0.3269 -0.0050
17226TIP3    H173093   6.269   1.885   1.974 -1.4666 -1.4595 -0.7953
17226TIP3    H273094   6.270   2.033   2.002  1.4680 -1.7375  0.7826
17227TIP3   OH273095   6.032   0.794   5.087 -0.2163 -0.6150  0.0409
17227TIP3    H173096   6.063   0.706   5.109  0.7136 -0.0568  1.0424
17227TIP3    H273097   5.937   0.789   5.096 -0.5497 -2.5043 -3.5761
17228TIP3   OH273098   1.246   3.816  13.797  0.2644  0.8943 -0.6862
17228TIP3    H173099   1.227   3.828  13.890 -1.0341 -0.0618 -0.8082
17228TIP3    H273100   1.305   3.888  13.775  1.8370  0.2253  1.2296
17229TIP3   OH273101   4.747   1.187   4.388  0.4121 -0.1154 -1.0206
17229TIP3    H173102   4.835   1.225   4.379  0.4868 -0.0763 -0.1966
17229TIP3    H273103   4.720   1.166   4.298 -0.1551  3.0315 -1.6299
17230TIP3   OH273104   0.583   3.729   1.277 -0.0995 -0.3139 -0.8386
17230TIP3    H173105   0.654   3.757   1.219  0.2653  0.1595 -0.1729
17230TIP3    H273106   0.614   3.647   1.316  0.7056  0.6310  0.5453
17231TIP3   OH273107   6.258   1.999  16.493 -0.0255  0.2469 -0.4682
17231TIP3    H173108   6.307   1.944  16.554 -1.9325 -1.3628 -0.3387
17231TIP3    H273109   6.177   2.020  16.539  0.0615  2.0464 -1.0663
17232TIP3   OH273110   4.803   3.463  17.137 -0.1710  0.3005 -0.0738
17232TIP3    H173111   4.725   3.410  17.123  1.2307 -1.3845 -1.8560
17232TIP3    H273112   4.876   3.402  17.125  1.4590  2.2944 -0.6302
17233TIP3   OH273113   5.646   0.378  15.263 -0.5558  0.5064  0.0929
17233TIP3    H173114   5.735   0.357  15.291 -0.8225 -1.3278 -0.3898
17233TIP3    H273115   5.654   0.400  15.170 -0.6772 -0.0847 -0.0557
17234TIP3   OH273116   0.952   6.483   4.649  0.9324 -0.7099  0.2025
17234TIP3    H173117   0.896   6.417   4.690 -1.0388  0.9489  0.2534
17234TIP3    H273118   1.033   6.479   4.700 -0.5946 -0.3695  2.7924
17235TIP3   OH273119   4.507   0.408   0.747 -0.5927 -0.3038  0.2425
17235TIP3    H173120   4.473   0.369   0.666  2.9320 -1.7460 -0.6492
17235TIP3    H273121   4.590   0.363   0.762  0.2824  2.0717  3.0332
17236TIP3   OH273122   1.995   4.508  14.116 -0.3021  0.1456 -0.2462
17236TIP3    H173123   1.961   4.434  14.066  1.4830  0.0351 -1.3490
17236TIP3    H273124   1.944   4.583  14.084 -1.9145 -0.5458  0.6723
17237TIP3   OH273125   2.309   1.810  12.814 -0.6429  0.1659 -0.1940
17237TIP3    H173126   2.393   1.843  12.782  0.1389 -0.1099  1.4879
17237TIP3    H273127   2.333   1.743  12.878 -2.1560 -0.1932  0.0143
17238TIP3   OH273128   4.658   5.623   5.504  0.0589 -0.2899  0.0108
17238TIP3    H173129   4.571   5.645   5.473  1.2528  4.5659 -0.2843
17238TIP3    H273130   4.692   5.560   5.440 -2.6968 -1.2370 -0.5650
17239TIP3   OH273131   3.839   3.653  15.473 -0.1953 -0.0804  0.0142
17239TIP3    H173132   3.906   3.707  15.515 -0.0631 -0.7379  0.6802
17239TIP3    H273133   3.823   3.694  15.388 -0.5091  1.3206  0.7367
17240TIP3   OH273134   1.526   2.010   5.180  0.3442 -0.0991  0.4169
17240TIP3    H173135   1.491   2.099   5.183  0.4567 -0.0418  0.0606
17240TIP3    H273136   1.458   1.960   5.134 -0.4737 -0.5499  2.0844
17241TIP3   OH273137   4.483   0.953   3.059 -0.2758  0.0667 -0.4555
17241TIP3    H173138   4.555   0.920   3.114  0.5065  0.6184 -1.1482
17241TIP3    H273139   4.405   0.916   3.100  0.5127 -2.0471 -0.7468
17242TIP3   OH273140   3.387   1.339  10.958 -0.0807 -0.4637  0.0184
17242TIP3    H173141   3.461   1.281  10.939  1.4252  0.7128  2.1171
17242TIP3    H273142   3.353   1.308  11.042  0.6136  1.5518  1.0623
17243TIP3   OH273143   0.818   1.943  16.379 -0.8789  0.0248  0.5902
17243TIP3    H173144   0.789   2.034  16.373 -2.7123 -0.4824  1.1828
17243TIP3    H273145   0.905   1.942  16.340 -1.8711  1.5407 -1.7157
17244TIP3   OH273146   1.139   4.900   2.211 -0.2624 -0.0009  0.3950
17244TIP3    H173147   1.140   4.806   2.227  0.4244  0.1472  1.3254
17244TIP3    H273148   1.129   4.939   2.298  2.5148  0.8338  0.4116
17245TIP3   OH273149   4.068   5.616  12.894 -0.0143 -0.0414  0.1016
17245TIP3    H173150   4.102   5.695  12.936  1.1873 -0.5410  0.0697
17245TIP3    H273151   3.981   5.641  12.863  0.1088  1.0802  0.6529
17246TIP3   OH273152   1.240   5.234  11.959  0.1654  0.4160  0.0661
17246TIP3    H173153   1.322   5.274  11.989 -0.7830  0.2120  2.9871
17246TIP3    H273154   1.178   5.307  11.954  0.0015  0.2522 -0.3382
17247TIP3   OH273155   4.656   1.130   2.951  0.0849  0.3252  0.1891
17247TIP3    H173156   4.614   1.210   2.920 -0.4351 -0.6299 -1.6788
17247TIP3    H273157   4.590   1.088   3.006 -1.5551 -1.2297 -2.8386
17248TIP3   OH273158   2.933   3.208  14.509  0.1506  0.0315  0.0974
17248TIP3    H173159   2.882   3.276  14.466 -2.3866 -0.5456  2.0601
17248TIP3    H273160   3.025   3.231  14.492 -0.6640  3.4708  0.0839
17249TIP3   OH273161   2.858   2.032  15.290  0.7224 -0.5399  0.4870
17249TIP3    H173162   2.807   1.953  15.271 -1.4491  0.9104  0.1076
17249TIP3    H273163   2.868   2.075  15.205  0.9644  0.1397  0.8558
17250TIP3   OH273164   2.620   1.883  13.574 -0.5581 -0.2678  0.0501
17250TIP3    H173165   2.703   1.925  13.598  0.9203 -1.9721 -1.9253
17250TIP3    H273166   2.635   1.848  13.487 -3.0163 -1.5970  0.1178
17251TIP3   OH273167   0.380   4.777   4.042  0.5893  0.2333  0.2470
17251TIP3    H173168   0.438   4.839   4.087  0.2951  0.0179  0.9311
17251TIP3    H273169   0.340   4.827   3.972  0.3140  0.8364  0.8298
17252TIP3   OH273170   2.697   4.409  15.653  0.2752  0.1392 -0.2291
17252TIP3    H173171   2.605   4.432  15.666  0.2222  0.8851 -1.7884
17252TIP3    H273172   2.741   4.439  15.732 -1.0097 -1.4389  1.1208
17253TIP3   OH273173   6.336   3.608  13.924 -0.2794 -0.2966  0.3037
17253TIP3    H173174   6.362   3.678  13.863 -0.1020 -0.7559 -0.1492
17253TIP3    H273175   6.297   3.655  13.998  2.0434  0.4221  1.1216
17254TIP3   OH273176   2.364   1.539  11.332 -0.4786  0.1040  0.1871
17254TIP3    H173177   2.346   1.493  11.415 -0.1704  0.7085  0.5896
17254TIP3    H273178   2.453   1.513  11.309 -1.6043 -2.4901 -1.5457
17255TIP3   OH273179   3.647   5.524  14.382  0.7128 -0.6494  0.0757
17255TIP3    H173180   3.657   5.518  14.477  1.3601 -1.1178 -0.0249
17255TIP3    H273181   3.590   5.600  14.370  0.5709 -0.6245  0.8415
17256TIP3   OH273182   6.636   1.051   4.688 -0.5636 -0.1459 -0.2722
17256TIP3    H173183   6.641   1.145   4.670 -0.6740 -0.5249 -2.3973
17256TIP3    H273184   6.606   1.012   4.606 -1.0838 -1.9894  0.7602
17257TIP3   OH273185   1.988   6.103  14.064 -0.4748  0.0955 -0.0194
17257TIP3    H173186   2.002   6.174  14.002 -1.4551  0.2514 -0.0659
17257TIP3    H273187   1.975   6.146  14.148 -1.1572 -0.0203 -0.0621
17258TIP3   OH273188   1.092   0.884   0.167  0.3487  0.4831  0.6792
17258TIP3    H173189   1.043   0.967   0.164 -0.1092  0.1870 -0.8265
17258TIP3    H273190   1.109   0.869   0.260 -0.4835  1.7381  1.0484
17259TIP3   OH273191   5.036   1.288  15.280 -0.1076  0.0461  0.1417
17259TIP3    H173192   5.115   1.277  15.333 -0.1958  1.4855  0.6064
17259TIP3    H273193   4.971   1.323  15.342 -0.3070  1.4371 -0.8329
17260TIP3   OH273194   4.849   6.100  13.980  0.2273 -0.1890  0.1766
17260TIP3    H173195   4.928   6.106  13.926 -0.7791 -1.6464 -1.5288
17260TIP3    H273196   4.781   6.144  13.929 -0.9435 -2.3187 -0.2071
17261TIP3   OH273197   3.583   2.293   6.467  0.1468 -0.4852 -0.3233
17261TIP3    H173198   3.497   2.301   6.509  0.1863  1.9266 -0.6370
17261TIP3    H273199   3.605   2.382   6.441  3.3153 -0.8738  0.8363
17262TIP3   OH273200   1.023   2.411   2.064  0.1049 -0.0893 -0.0016
17262TIP3    H173201   0.949   2.386   2.118 -0.1901 -2.0638 -1.2790
17262TIP3    H273202   1.098   2.368   2.105  0.0228 -0.8386 -0.6388
17263TIP3   OH273203   5.287   5.303  11.340  0.1441  0.5791 -0.1630
17263TIP3    H173204   5.200   5.297  11.302  0.5041 -0.2601 -0.8494
17263TIP3    H273205   5.273   5.294  11.435 -0.4961  0.3539 -0.2834
17264TIP3   OH273206   1.476   0.348  11.162 -0.0151 -0.1677  0.0299
17264TIP3    H173207   1.511   0.433  11.137  0.4297 -0.5778 -0.7678
17264TIP3    H273208   1.422   0.321  11.088 -0.3537 -0.4686  0.3799
17265TIP3   OH273209   3.763   1.934  11.798  0.0741  0.3099  0.2191
17265TIP3    H173210   3.686   1.924  11.854  0.1249  2.2667  0.6744
17265TIP3    H273211   3.733   1.988  11.725  1.1251  1.5414  0.6699
17266TIP3   OH273212   6.339   3.713  15.635  0.3653  0.1710 -0.2909
17266TIP3    H173213   6.321   3.619  15.639 -0.5330  0.3343 -0.3100
17266TIP3    H273214   6.380   3.725  15.549  3.2083 -0.6295  0.8855
17267TIP3   OH273215   5.064   2.495  13.355 -0.6747  0.0128  0.4674
17267TIP3    H173216   5.048   2.468  13.265  0.8693  1.9109 -0.4177
17267TIP3    H273217   5.115   2.575  13.348 -0.7406  0.3473  3.0412
17268TIP3   OH273218   0.208   2.902   5.532  0.3697 -0.3515  0.3927
17268TIP3    H173219   0.133   2.846   5.510 -0.6600  0.7611  1.0175
17268TIP3    H273220   0.233   2.942   5.449 -2.0651  2.0818  0.7807
17269TIP3   OH273221   5.827   2.865  17.162 -0.5834 -0.3013  0.1486
17269TIP3    H173222   5.879   2.894  17.088 -1.8351  0.6477 -0.3812
17269TIP3    H273223   5.865   2.780  17.186  0.9714  0.2181 -0.4180
17270TIP3   OH273224   2.664   4.947   4.513  0.1710  0.2018 -0.1600
17270TIP3    H173225   2.745   4.965   4.466 -0.1670  0.8326 -0.5106
17270TIP3    H273226   2.617   4.885   4.456 -0.2104  0.9166 -0.6339
17271TIP3   OH273227   3.837   3.672  14.511 -0.0898  0.3674  0.2709
17271TIP3    H173228   3.892   3.749  14.498  0.1522 -0.0957 -1.5109
17271TIP3    H273229   3.898   3.603  14.536  0.3467 -0.4540 -2.8827
17272TIP3   OH273230   2.836   1.618   2.290 -0.0721  0.0925  0.1165
17272TIP3    H173231   2.805   1.670   2.216 -1.0693 -0.7315 -0.0550
17272TIP3    H273232   2.828   1.677   2.365  2.1628  1.3744 -0.5983
17273TIP3   OH273233   4.190   3.328   2.890  0.2227 -0.6898  0.0916
17273TIP3    H173234   4.142   3.342   2.808 -1.6058  0.8322  1.3837
17273TIP3    H273235   4.219   3.237   2.884 -0.1749 -0.7183 -2.0844
17274TIP3   OH273236   2.587   0.305  13.526 -0.1813 -0.3646  0.1631
17274TIP3    H173237   2.668   0.274  13.485 -0.3723  0.1227 -0.5970
17274TIP3    H273238   2.530   0.229  13.530 -0.6066 -0.1576 -1.5809
17275TIP3   OH273239   0.312   3.069  10.947  0.7740 -0.4638  0.1827
17275TIP3    H173240   0.342   3.150  10.988  1.1869 -0.0965 -0.8233
17275TIP3    H273241   0.221   3.088  10.922  0.6136 -0.5902  0.6678
17276TIP3   OH273242   5.533   3.698   2.744 -0.4243 -0.2542  0.0585
17276TIP3    H173243   5.544   3.760   2.816  1.7255 -1.1580  0.5397
17276TIP3    H273244   5.531   3.612   2.785 -0.9320 -0.6726 -0.8131
17277TIP3   OH273245   3.974   1.687  12.582 -0.2873 -0.5504 -0.5593
17277TIP3    H173246   3.927   1.758  12.624 -0.2443 -0.1937 -1.1010
17277TIP3    H273247   3.908   1.644  12.527 -0.2167 -0.6579 -0.5587
17278TIP3   OH273248   0.336   4.874   2.854  0.3459  0.3308 -0.2754
17278TIP3    H173249   0.421   4.853   2.894  0.4084  0.6115 -0.2608
17278TIP3    H273250   0.291   4.790   2.849  1.1554 -0.0429 -1.5279
17279TIP3   OH273251   2.973   4.444   5.458 -0.4924 -0.2073  0.0786
17279TIP3    H173252   2.920   4.372   5.494 -1.5619  0.8192  0.5984
17279TIP3    H273253   3.056   4.403   5.435 -1.1329 -1.6425  0.2472
17280TIP3   OH273254   0.102   6.734  12.599 -0.1052  0.6654 -0.0517
17280TIP3    H173255   0.177   6.788  12.624  1.0975 -0.5620 -0.9635
17280TIP3    H273256   0.080   6.762  12.511  2.2628 -2.1539 -1.6195
17281TIP3   OH273257   4.581   6.749  14.864  0.2228  0.1084 -0.0909
17281TIP3    H173258   4.489   6.770  14.878 -0.1310 -2.2503  1.3917
17281TIP3    H273259   4.579   6.671  14.809  1.3591  0.1695 -0.2269
17282TIP3   OH273260   2.868   2.375  11.416  0.7675  0.2222 -0.4266
17282TIP3    H173261   2.917   2.305  11.373 -0.1580 -1.7272  1.6368
17282TIP3    H273262   2.779   2.365  11.384  0.4293 -0.1693  0.6398
17283TIP3   OH273263   0.733   3.012   4.250  0.8358 -0.0439  0.0733
17283TIP3    H173264   0.746   3.072   4.323  1.9529 -1.4486  1.0425
17283TIP3    H273265   0.803   3.034   4.188  1.4194 -0.5547  0.5577
17284TIP3   OH273266   6.735   0.153  12.884  0.0605  0.2043  0.5647
17284TIP3    H173267   6.780   0.234  12.909  0.1470 -0.0327  1.1904
17284TIP3    H273268   6.643   0.178  12.875 -0.0217  0.2199  1.4540
17285TIP3   OH273269   5.090   1.106  11.647 -0.2791  0.5720  0.4707
17285TIP3    H173270   5.002   1.136  11.624 -0.1022 -0.5017 -1.7254
17285TIP3    H273271   5.145   1.184  11.636 -0.5039  0.5354 -0.9790
17286TIP3   OH273272   5.714   5.263   4.585  0.2633 -0.2076 -0.0589
17286TIP3    H173273   5.721   5.201   4.512  0.2464 -0.0282 -0.2146
17286TIP3    H273274   5.796   5.254   4.632 -0.2549 -1.2611  0.6558
17287TIP3   OH273275   0.324   1.713   5.308 -0.0623  0.2477 -1.4853
17287TIP3    H173276   0.412   1.713   5.269  1.0192  1.3405  0.8449
17287TIP3    H273277   0.287   1.797   5.284 -0.2811 -0.0124 -2.0585
17288TIP3   OH273278   0.130   5.027  13.395  0.0700  0.3158 -0.1503
17288TIP3    H173279   0.192   4.954  13.388 -1.9678 -1.6284  1.6769
17288TIP3    H273280   0.168   5.085  13.462  1.1340  0.4257 -0.8271
17289TIP3   OH273281   1.751   1.453  14.059  0.5137  0.3240 -0.0112
17289TIP3    H173282   1.728   1.545  14.074  0.9632  0.6340 -1.1646
17289TIP3    H273283   1.823   1.437  14.121  0.6865  0.8605 -0.0629
17290TIP3   OH273284   3.352   1.001   3.524  0.5185 -0.1090 -0.0463
17290TIP3    H173285   3.353   1.072   3.459  1.0485  0.2838  0.3949
17290TIP3    H273286   3.296   1.034   3.594  0.2478 -0.3856 -0.1304
17291TIP3   OH273287   1.820   5.275  12.055  0.0785 -0.3019 -0.8530
17291TIP3    H173288   1.913   5.251  12.051  0.4681  0.0633  3.3552
17291TIP3    H273289   1.775   5.191  12.070 -0.0389 -0.2334 -0.8243
17292TIP3   OH273290   6.700   0.981   3.603 -0.2514  0.2234  0.9402
17292TIP3    H173291   6.606   0.978   3.586 -0.0450  0.0287 -0.2266
17292TIP3    H273292   6.734   0.904   3.557  0.8214  1.7622 -0.9261
17293TIP3   OH273293   0.175   1.557   3.022  0.3969  0.0080 -0.2816
17293TIP3    H173294   0.211   1.601   3.099  0.9552 -0.6418 -0.1669
17293TIP3    H273295   0.088   1.528   3.051  1.2907 -1.7890  0.7024
17294TIP3   OH273296   2.157   4.036  16.481 -0.2080  0.1383 -0.0648
17294TIP3    H173297   2.165   3.978  16.405  1.7525 -1.0482  0.9967
17294TIP3    H273298   2.067   4.024  16.511 -0.6533 -0.2559 -1.5185
17295TIP3   OH273299   4.496   2.488  13.521 -0.0676 -0.0659  0.0846
17295TIP3    H173300   4.410   2.529  13.525 -1.1895 -2.3433  0.5813
17295TIP3    H273301   4.532   2.515  13.437 -2.0547 -0.5430 -0.9555
17296TIP3   OH273302   5.749   4.976  12.820 -0.1058  0.2521  0.4877
17296TIP3    H173303   5.785   5.005  12.736  0.1155 -0.6690  0.2628
17296TIP3    H273304   5.721   5.057  12.863 -1.2664  0.6398 -0.9457
17297TIP3   OH273305   1.488   1.824   1.729  0.4566  0.7516 -0.0477
17297TIP3    H173306   1.549   1.842   1.657  0.7780  0.4343  0.1412
17297TIP3    H273307   1.545   1.798   1.801 -0.0498 -2.1073 -0.6324
17298TIP3   OH273308   3.239   2.892  15.874 -0.3800 -0.4195  0.1231
17298TIP3    H173309   3.289   2.852  15.803 -0.0802 -0.5465  0.4001
17298TIP3    H273310   3.149   2.891  15.844 -0.4595 -1.8447  0.3475
17299TIP3   OH273311   3.289   2.842  15.413 -0.4551 -0.0345  0.0751
17299TIP3    H173312   3.220   2.901  15.442  0.4015  1.1431 -0.2158
17299TIP3    H273313   3.321   2.801  15.493  0.3427  1.4774  0.5657
17300TIP3   OH273314   0.779   4.385  13.363 -0.0494  0.2664  0.5351
17300TIP3    H173315   0.809   4.405  13.275 -0.4692  0.5595  0.4589
17300TIP3    H273316   0.688   4.414  13.365 -0.0260  0.3161  1.0777
17301TIP3   OH273317   1.359   3.192   2.660 -0.3986 -0.2297 -0.3969
17301TIP3    H173318   1.292   3.151   2.715 -2.2075  0.6034 -1.9592
17301TIP3    H273319   1.347   3.154   2.573 -0.6730  1.9655 -1.3496
17302TIP3   OH273320   1.237   3.275   6.659 -0.0170 -0.8333  0.1755
17302TIP3    H173321   1.159   3.247   6.707  0.3313  0.3258  1.4282
17302TIP3    H273322   1.227   3.370   6.650  1.5790 -0.5783  0.9483
17303TIP3   OH273323   5.180   0.372   2.354 -0.1667  0.0098  0.7352
17303TIP3    H173324   5.275   0.383   2.342 -0.0526 -0.2716  1.3177
17303TIP3    H273325   5.148   0.459   2.376 -0.0659  0.1332  0.3975
17304TIP3   OH273326   1.711   4.612   5.852 -0.0305  0.2372  0.4784
17304TIP3    H173327   1.665   4.696   5.859  0.3295  0.3382  1.8020
17304TIP3    H273328   1.641   4.547   5.851 -0.3016  0.5356 -0.1971
17305TIP3   OH273329   6.337   6.242   3.639  0.7519 -0.4045 -0.1671
17305TIP3    H173330   6.320   6.315   3.699  0.2905 -1.0875  0.5291
17305TIP3    H273331   6.376   6.174   3.694 -1.2714 -1.6841 -0.2998
17306TIP3   OH273332   0.016   6.316  13.503  0.5497 -0.0578  0.0421
17306TIP3    H173333  -0.018   6.399  13.469  0.2020 -0.6127 -0.9940
17306TIP3    H273334  -0.061   6.260  13.510  0.8120 -0.3612  0.5555
17307TIP3   OH273335   1.219   4.929  15.206 -0.1421  0.1810  0.2792
17307TIP3    H173336   1.232   5.005  15.264  1.5841  0.0749  0.0549
17307TIP3    H273337   1.264   4.953  15.125 -1.7289 -0.0731 -0.6822
17308TIP3   OH273338   3.144   0.707   5.759 -0.1652  0.6263  0.0345
17308TIP3    H173339   3.123   0.631   5.705  1.6208 -0.7264  1.1946
17308TIP3    H273340   3.059   0.743   5.784 -1.0317 -0.9377 -0.5754
17309TIP3   OH273341   3.522   1.329   4.050 -0.3272  0.3139  1.1085
17309TIP3    H173342   3.456   1.361   4.111 -2.4028 -0.9422 -0.4071
17309TIP3    H273343   3.486   1.350   3.963  1.0427 -0.8250  0.2528
17310TIP3   OH273344   2.507   0.929   6.278 -0.1549  0.2128  0.1476
17310TIP3    H173345   2.562   0.989   6.328  1.4182 -1.3360  0.3452
17310TIP3    H273346   2.462   0.876   6.344 -0.7156  0.4780 -0.0267
17311TIP3   OH273347   0.240   0.366   4.455  0.0861  0.2564  0.2968
17311TIP3    H173348   0.325   0.344   4.494 -0.1882  0.5016  1.0509
17311TIP3    H273349   0.221   0.454   4.488  0.1476  0.7406 -0.9350
17312TIP3   OH273350   2.138   2.228   5.243  0.0200 -0.0625  0.4870
17312TIP3    H173351   2.177   2.147   5.277  0.8180  0.4448  0.8046
17312TIP3    H273352   2.122   2.209   5.150  0.7111 -0.4020  0.4318
17313TIP3   OH273353   3.829   4.011   1.278  0.1857 -0.3465 -0.4838
17313TIP3    H173354   3.871   3.929   1.305  0.6294 -0.5335 -1.7277
17313TIP3    H273355   3.806   3.998   1.186 -2.5251 -0.2032  0.1348
17314TIP3   OH273356   5.521   6.606  16.794  0.4836  0.3039  0.4328
17314TIP3    H173357   5.521   6.680  16.855  1.4758 -1.6504  2.8692
17314TIP3    H273358   5.604   6.613  16.746  0.5323  0.7893  0.5855
17315TIP3   OH273359   0.221   0.683   5.466 -0.5679 -0.2843 -0.3538
17315TIP3    H173360   0.159   0.623   5.507 -0.8661  0.0539 -0.3144
17315TIP3    H273361   0.178   0.768   5.469 -0.3958 -0.1792 -0.9606
17316TIP3   OH273362   5.495   3.696  16.179 -0.9602  0.5744  0.0927
17316TIP3    H173363   5.567   3.692  16.242 -0.3629 -0.2379 -0.6310
17316TIP3    H273364   5.507   3.780  16.134  0.1422  0.0026 -0.7158
17317TIP3   OH273365   3.158   0.685  14.278 -0.2087  0.4719  0.1498
17317TIP3    H173366   3.210   0.650  14.351 -0.1433 -0.0390 -0.1361
17317TIP3    H273367   3.072   0.700  14.316 -0.0862  0.5083  0.4154
17318TIP3   OH273368   3.403   0.710  17.072  0.1062 -0.1309 -0.2347
17318TIP3    H173369   3.336   0.713  17.141  0.4308  0.4417  0.0641
17318TIP3    H273370   3.446   0.625  17.084 -0.3760 -0.3759 -0.2437
17319TIP3   OH273371   0.067   2.255   4.890  0.4153 -0.3770 -0.1836
17319TIP3    H173372  -0.010   2.251   4.947  1.2056 -2.0155  0.8207
17319TIP3    H273373   0.032   2.248   4.802 -0.4777 -3.2897  0.3511
17320TIP3   OH273374   3.622   3.791   2.124  0.5527 -0.6081 -0.2346
17320TIP3    H173375   3.660   3.724   2.068  0.1789 -1.6724  0.7699
17320TIP3    H273376   3.674   3.869   2.107  0.4334 -0.9150 -2.0699
17321TIP3   OH273377   2.943   0.196  11.830 -0.4981 -0.4270  0.2917
17321TIP3    H173378   2.995   0.266  11.790  0.1359 -2.7138 -3.0982
17321TIP3    H273379   3.003   0.155  11.893  0.5582 -0.5848 -0.7924
17322TIP3   OH273380   0.373   1.362  14.040 -0.2406  0.3108 -0.5146
17322TIP3    H173381   0.351   1.375  13.948  1.2847 -0.1041 -0.9458
17322TIP3    H273382   0.443   1.424  14.057 -0.9455  0.8294  0.5464
17323TIP3   OH273383   1.432   3.704   5.684 -0.4388  0.4074  0.1557
17323TIP3    H173384   1.516   3.672   5.716 -0.7640 -1.3770 -0.7334
17323TIP3    H273385   1.420   3.789   5.728 -0.2145 -1.2705  3.6075
17324TIP3   OH273386   1.261   5.325   1.047 -0.3069 -0.2937  0.2644
17324TIP3    H173387   1.355   5.339   1.039 -0.1512 -1.1906  0.4654
17324TIP3    H273388   1.247   5.236   1.014 -0.8735 -0.7437  1.6931
17325TIP3   OH273389   5.056   3.024  16.039 -0.3848  0.0602  0.1448
17325TIP3    H173390   5.072   2.965  16.112 -2.1886  0.7296  1.1009
17325TIP3    H273391   5.000   2.973  15.979  2.0889 -0.9307 -1.3968
17326TIP3   OH273392   4.400   2.987   4.938  0.8593 -0.2014  0.3124
17326TIP3    H173393   4.316   2.994   4.893  1.0090 -1.0139 -0.1156
17326TIP3    H273394   4.464   3.020   4.875  0.9417 -0.2723  0.3575
17327TIP3   OH273395   1.471   2.803  13.586  0.5305  0.1598  0.6609
17327TIP3    H173396   1.547   2.826  13.639  0.6809 -2.0687  1.4912
17327TIP3    H273397   1.399   2.793  13.649  0.5057 -1.6165  0.3900
17328TIP3   OH273398   1.336   4.207  11.724 -0.1836 -0.1189 -0.2031
17328TIP3    H173399   1.350   4.157  11.643 -0.5074 -0.9488  0.2496
17328TIP3    H273400   1.424   4.228  11.754 -0.0631  0.4300 -0.9151
17329TIP3   OH273401   5.376   4.437   4.832 -0.4954 -0.4095 -0.0723
17329TIP3    H173402   5.339   4.511   4.881 -1.6826 -0.6412 -0.6158
17329TIP3    H273403   5.302   4.380   4.813 -0.1673 -0.1069 -2.5273
17330TIP3   OH273404   5.721   4.982   4.129 -0.4338  0.2296 -0.4441
17330TIP3    H173405   5.689   4.892   4.135 -1.4957  0.6017 -0.5302
17330TIP3    H273406   5.768   4.984   4.045  0.4829 -0.5102  0.0322
17331TIP3   OH273407   6.527   1.493   5.580 -0.3626  0.2972  0.1979
17331TIP3    H173408   6.533   1.398   5.572  0.0064  0.2322  1.1888
17331TIP3    H273409   6.607   1.526   5.539  0.0900  0.1157  0.9254
17332TIP3   OH273410   0.530   6.435   0.392 -0.3126  0.3144  0.3034
17332TIP3    H173411   0.522   6.350   0.434  0.2384  0.0098 -0.1974
17332TIP3    H273412   0.597   6.423   0.324 -0.0831  1.1919  0.3574
17333TIP3   OH273413   3.733   1.773  14.561  0.0202 -0.0501 -0.4812
17333TIP3    H173414   3.786   1.704  14.600  0.4340  0.3811 -0.2757
17333TIP3    H273415   3.656   1.780  14.619 -0.3739 -0.8333 -0.9136
17334TIP3   OH273416   6.483   5.382   4.634 -0.4670  0.5085 -0.8976
17334TIP3    H173417   6.425   5.366   4.708  0.6301 -0.7704 -0.2931
17334TIP3    H273418   6.425   5.413   4.564 -1.6930  0.4255  0.0663
17335TIP3   OH273419   6.599   0.921  13.795 -0.3625 -0.2927  0.3779
17335TIP3    H173420   6.517   0.941  13.840 -0.7014  0.0203 -0.3781
17335TIP3    H273421   6.667   0.941  13.860 -0.7760  1.6132  0.2430
17336TIP3   OH273422   1.475   6.306   5.405  0.1927 -0.1053  0.0049
17336TIP3    H173423   1.380   6.294   5.407  0.2382 -0.3224  1.7721
17336TIP3    H273424   1.488   6.393   5.368 -0.6949 -0.0985 -0.2908
17337TIP3   OH273425   6.683   0.156   1.006 -0.4364  0.0065  0.3696
17337TIP3    H173426   6.679   0.252   1.015 -0.2706  0.0158  0.3495
17337TIP3    H273427   6.603   0.133   0.959 -0.0596  0.2250 -0.3765
17338TIP3   OH273428   6.279   6.172  16.206  0.7301  0.0948  0.2363
17338TIP3    H173429   6.243   6.144  16.122 -0.8757  0.3220  0.8272
17338TIP3    H273430   6.320   6.257  16.187 -0.7356  0.7444 -0.0618
17339TIP3   OH273431   5.234   2.513   1.288  0.1899  0.3100  0.3383
17339TIP3    H173432   5.149   2.470   1.290  0.5493 -0.4048  0.2855
17339TIP3    H273433   5.258   2.513   1.195 -0.1232  1.2570  0.2449
17340TIP3   OH273434   1.287   2.179  12.755  0.1647  0.3735  0.5717
17340TIP3    H173435   1.289   2.167  12.660  1.9593 -0.5281  0.7119
17340TIP3    H273436   1.290   2.274  12.767 -1.1240  0.5448 -0.2729
17341TIP3   OH273437   5.678   5.074  16.809  0.0992 -0.1653  0.2401
17341TIP3    H173438   5.704   5.159  16.774 -0.1963  0.7274  2.1395
17341TIP3    H273439   5.651   5.092  16.899 -1.7949 -1.9604  0.0702
17342TIP3   OH273440   0.062   2.596   0.072 -0.6129  0.0439  0.5646
17342TIP3    H173441   0.035   2.688   0.068 -0.7065  0.0418  1.2481
17342TIP3    H273442   0.005   2.556   0.138 -0.7808 -0.5787  0.0491
17343TIP3   OH273443   0.010   6.004   1.851 -0.8849  0.5387  1.0251
17343TIP3    H173444  -0.023   5.974   1.766  0.8834  2.0233 -0.2172
17343TIP3    H273445   0.047   6.090   1.834  0.2069  0.5286  3.1544
17344TIP3   OH273446   4.344   3.899   6.818  0.6031 -0.8803 -0.5148
17344TIP3    H173447   4.402   3.823   6.807 -1.6845 -2.5874 -1.1761
17344TIP3    H273448   4.288   3.876   6.892  0.2835  0.4321 -0.3436
17345TIP3   OH273449   3.470   0.575  12.462 -0.1212 -0.3856  0.6465
17345TIP3    H173450   3.513   0.513  12.521 -1.2440  0.3282  2.2778
17345TIP3    H273451   3.499   0.550  12.375  0.7763 -2.1345  1.4176
17346TIP3   OH273452   5.083   0.996   3.953 -0.3331  0.5743 -0.1674
17346TIP3    H173453   5.145   1.001   3.880  2.5231  0.0144  2.0855
17346TIP3    H273454   5.076   1.086   3.985  0.0422  0.5168  0.0933
17347TIP3   OH273455   1.782   6.521  17.013 -0.2513 -0.1447  0.3475
17347TIP3    H173456   1.862   6.533  17.063 -1.4640 -0.0925  2.3316
17347TIP3    H273457   1.735   6.604  17.021 -0.9482 -0.5000 -0.0057
17348TIP3   OH273458   4.951   3.379  12.214  0.0732  0.5940 -0.7574
17348TIP3    H173459   4.920   3.452  12.267  1.3404  0.7871 -0.2682
17348TIP3    H273460   4.886   3.310  12.228  0.1556  0.7908  0.7034
17349TIP3   OH273461   4.664   5.294   6.091  0.8730  0.3282 -0.1212
17349TIP3    H173462   4.611   5.341   6.026  1.6583  1.1785 -0.1716
17349TIP3    H273463   4.693   5.215   6.046  0.8053  0.5536 -0.5640
17350TIP3   OH273464   4.551   3.554  15.887 -0.1382  0.5004 -0.3183
17350TIP3    H173465   4.638   3.557  15.927 -0.3167  1.0606  0.0376
17350TIP3    H273466   4.493   3.587  15.955 -0.6714 -0.1348 -0.4571
17351TIP3   OH273467   1.614   2.939   0.198 -0.3838 -0.1717  0.1813
17351TIP3    H173468   1.562   2.861   0.178  3.1368 -1.7971 -3.1867
17351TIP3    H273469   1.651   2.922   0.285 -2.4607 -0.5887  1.0195
17352TIP3   OH273470   5.147   0.735   4.589  0.2689 -0.9112  0.3773
17352TIP3    H173471   5.119   0.733   4.498  2.3084 -2.1381 -0.2428
17352TIP3    H273472   5.163   0.827   4.608  0.8084 -0.7524 -0.8084
17353TIP3   OH273473   0.751   6.434  12.398  0.0878 -0.2188 -0.7747
17353TIP3    H173474   0.758   6.528  12.414  0.7585 -0.0875 -1.8404
17353TIP3    H273475   0.657   6.415  12.405 -0.0947  0.6046 -0.9829
17354TIP3   OH273476   3.296   6.055  12.122  0.6121  0.4767 -0.2283
17354TIP3    H173477   3.389   6.031  12.119  1.4453  3.1660  1.9016
17354TIP3    H273478   3.277   6.086  12.034  1.7623 -0.0534 -0.6761
17355TIP3   OH273479   4.743   6.786   0.207 -0.9097  0.1845 -0.0439
17355TIP3    H173480   4.655   6.801   0.173 -0.6945  0.9928 -0.2524
17355TIP3    H273481   4.770   6.704   0.168 -1.6490 -0.1663  0.1697
17356TIP3   OH273482   3.898   2.359  15.531  0.5331  0.6836  0.0553
17356TIP3    H173483   3.979   2.408  15.547 -0.5173  2.0352  1.4328
17356TIP3    H273484   3.926   2.279  15.487  2.6640  0.9562  0.8577
17357TIP3   OH273485   1.289   5.649   5.960  0.4681  0.0829  0.2176
17357TIP3    H173486   1.246   5.591   6.023  0.1575  0.2436  0.1532
17357TIP3    H273487   1.236   5.729   5.962  1.5605  0.7968  1.1700
17358TIP3   OH273488   1.030   2.605  15.639 -0.3960 -0.0510  0.1855
17358TIP3    H173489   0.941   2.598  15.675 -0.0391  1.9486  1.4825
17358TIP3    H273490   1.080   2.650  15.706  1.2618  0.1765 -1.1788
17359TIP3   OH273491   5.322   5.800   1.298  0.1642  0.1073 -0.2474
17359TIP3    H173492   5.408   5.790   1.338 -0.0038  0.4139  0.2039
17359TIP3    H273493   5.339   5.804   1.204  0.4983 -1.3182 -0.2509
17360TIP3   OH273494   5.024   4.526   5.721  0.0214  0.3882  0.2515
17360TIP3    H173495   4.970   4.486   5.789  0.3945  0.1235  0.3939
17360TIP3    H273496   5.079   4.455   5.688 -1.4156  0.0828 -1.5963
17361TIP3   OH273497   4.165   2.579  15.920  0.3639  0.3378  0.8677
17361TIP3    H173498   4.143   2.636  15.994 -1.4889  0.4053  0.2894
17361TIP3    H273499   4.221   2.512  15.958 -0.0321  0.7471  2.2211
17362TIP3   OH273500   6.686   1.236   2.762 -0.0110  0.1967  0.0599
17362TIP3    H173501   6.774   1.207   2.783  0.1822  1.0430  0.4494
17362TIP3    H273502   6.631   1.195   2.829  0.4141  1.6811  1.3440
17363TIP3   OH273503   6.741   1.810   6.467 -0.7916 -0.6803 -0.1360
17363TIP3    H173504   6.781   1.771   6.544  0.1715  0.5896  0.0261
17363TIP3    H273505   6.772   1.758   6.394  1.4963  0.5113 -0.0547
17364TIP3   OH273506   3.903   4.145   3.746 -0.8717 -0.7810 -0.3459
17364TIP3    H173507   3.988   4.146   3.788 -0.9828 -0.0036 -0.1330
17364TIP3    H273508   3.894   4.232   3.707 -2.0783 -0.4302  0.6820
17365TIP3   OH273509   3.297   2.274   5.271  0.4990  0.4271 -0.1633
17365TIP3    H173510   3.328   2.204   5.213 -1.1486 -1.3421  1.0177
17365TIP3    H273511   3.365   2.282   5.337  1.2765  0.8212 -0.9981
17366TIP3   OH273512   0.067   4.898   0.008  0.0003 -0.3735  0.0267
17366TIP3    H173513   0.019   4.949  -0.057 -0.7253  0.9451  1.5573
17366TIP3    H273514   0.079   4.812  -0.033  1.0441  0.9404 -2.5092
17367TIP3   OH273515   5.142   2.071  17.149 -0.2893  0.8273 -0.0254
17367TIP3    H173516   5.133   2.121  17.068  0.1242  0.5162 -0.2631
17367TIP3    H273517   5.236   2.058  17.159 -0.3277  1.0381  0.6072
17368TIP3   OH273518   3.977   1.402  10.462  0.3120 -0.6040 -0.3666
17368TIP3    H173519   4.033   1.424  10.387  0.2111  1.0492  0.0244
17368TIP3    H273520   3.920   1.478  10.472  1.7248  0.1443  2.7061
17369TIP3   OH273521   2.736   3.286   1.602  1.0455  0.1321  0.9633
17369TIP3    H173522   2.679   3.326   1.667 -0.3895 -0.2222 -0.0426
17369TIP3    H273523   2.732   3.192   1.621 -0.2010 -0.0798 -0.2432
17370TIP3   OH273524   5.791   1.674   1.694 -0.4459 -0.2321  0.0585
17370TIP3    H173525   5.883   1.685   1.670 -0.1988 -1.4336  0.4396
17370TIP3    H273526   5.792   1.665   1.790 -0.8216 -1.5936 -0.0566
17371TIP3   OH273527   3.694   2.699  17.216  0.4722  0.1877 -0.1349
17371TIP3    H173528   3.751   2.755  17.164  1.2727 -1.3236 -0.9230
17371TIP3    H273529   3.630   2.758  17.254  2.3862  1.9010  0.5433
17372TIP3   OH273530   3.170   5.941  15.694  0.0747  0.3892  0.2230
17372TIP3    H173531   3.237   5.878  15.668  0.2038  0.7369 -0.3003
17372TIP3    H273532   3.129   5.968  15.611  0.4643  1.4904  0.3777
17373TIP3   OH273533   3.104   0.173  12.868  0.2167  0.6146  0.5091
17373TIP3    H173534   3.086   0.267  12.874 -1.7046  0.2860  0.2424
17373TIP3    H273535   3.198   0.166  12.885  0.2858  2.5210  1.1033
17374TIP3   OH273536   5.180   6.255   2.701 -0.0088 -0.4482  0.2385
17374TIP3    H173537   5.178   6.162   2.676 -1.6562 -0.2186 -0.5575
17374TIP3    H273538   5.253   6.292   2.651 -0.5187 -0.9338 -0.8952
17375TIP3   OH273539   5.913   5.137  13.824 -0.5875 -0.4684  0.5878
17375TIP3    H173540   6.002   5.119  13.794  0.0487  2.1035  0.7619
17375TIP3    H273541   5.865   5.158  13.744 -0.4408  0.3562  0.7059
17376TIP3   OH273542   6.077   2.120   0.038  0.6923 -0.5401  0.4578
17376TIP3    H173543   6.121   2.190   0.087 -0.7448  0.3779  0.4620
17376TIP3    H273544   6.016   2.082   0.101 -1.0322  0.5232 -0.5441
17377TIP3   OH273545   6.401   3.518  12.550  0.2644 -0.2993 -0.2408
17377TIP3    H173546   6.333   3.464  12.592 -1.2587  1.8215  0.1038
17377TIP3    H273547   6.409   3.481  12.463 -0.8771 -1.0246 -0.0570
17378TIP3   OH273548   3.961   1.384  13.413  0.1679  0.6018 -0.5980
17378TIP3    H173549   4.056   1.383  13.403  0.0571  1.4310 -1.8284
17378TIP3    H273550   3.929   1.430  13.335 -1.2285  0.4735 -0.1149
17379TIP3   OH273551   6.294   6.765   1.994 -0.2104 -0.1696  0.8967
17379TIP3    H173552   6.297   6.671   1.977 -0.4749 -0.0428  0.1274
17379TIP3    H273553   6.379   6.798   1.967 -0.7201  0.0717 -0.4616
17380TIP3   OH273554   0.922   1.467   2.410 -0.0004 -0.0813 -0.5621
17380TIP3    H173555   0.900   1.538   2.349  0.8229  0.1496 -0.6069
17380TIP3    H273556   0.840   1.445   2.452  0.3326  3.4216  2.1288
17381TIP3   OH273557   4.065   0.899   5.414  0.5801  0.2369 -0.0312
17381TIP3    H173558   3.992   0.868   5.466  1.7602 -2.9351 -0.1295
17381TIP3    H273559   4.025   0.934   5.334 -0.9576  1.2775  1.1601
17382TIP3   OH273560   0.252   5.910   6.153  0.5023  0.3444  0.5321
17382TIP3    H173561   0.263   5.951   6.067 -0.2499 -1.1049 -0.2795
17382TIP3    H273562   0.329   5.938   6.202  1.7676 -0.0789 -1.1367
17383TIP3   OH273563   1.198   1.284   5.713  0.2928 -0.2823 -0.2292
17383TIP3    H173564   1.146   1.231   5.773  0.0960 -0.4061 -0.5073
17383TIP3    H273565   1.187   1.242   5.628 -1.0934  1.0443 -0.7451
17384TIP3   OH273566   5.232   1.279   5.645 -1.0511  0.2572 -0.3993
17384TIP3    H173567   5.300   1.319   5.591 -0.2724 -0.3081  0.1483
17384TIP3    H273568   5.154   1.331   5.628  0.2420  2.8866  1.3762
17385TIP3   OH273569   4.816   0.010  15.212  0.4975  0.3787 -0.3357
17385TIP3    H173570   4.806   0.032  15.120  1.2258  0.3036 -0.4320
17385TIP3    H273571   4.753  -0.062  15.226  0.9669 -0.1633 -0.9710
17386TIP3   OH273572   3.415   5.504   3.769 -0.2444 -0.1863  0.0285
17386TIP3    H173573   3.331   5.460   3.780 -2.0045  2.7400 -1.0435
17386TIP3    H273574   3.442   5.527   3.858 -1.8267  0.9799  0.2403
17387TIP3   OH273575   5.084   1.233  13.962 -0.5361  0.1463  0.2688
17387TIP3    H173576   5.122   1.317  13.989 -0.0658 -0.0592  0.2517
17387TIP3    H273577   5.008   1.222  14.019 -1.2682  1.1323 -0.4957
17388TIP3   OH273578   5.465   4.808  14.663 -0.1265  0.1282  0.6911
17388TIP3    H173579   5.477   4.715  14.645 -0.5395  0.2653 -0.3510
17388TIP3    H273580   5.553   4.841  14.681  0.3237 -0.0329 -1.0896
17389TIP3   OH273581   5.673   1.334  13.259 -0.9843 -0.5578  0.2261
17389TIP3    H173582   5.633   1.321  13.346 -0.6608  0.3223  0.5123
17389TIP3    H273583   5.766   1.316  13.273 -1.0145 -0.9314 -0.0590
17390TIP3   OH273584   1.432   5.777  17.003  0.0920 -0.4309  0.3348
17390TIP3    H173585   1.523   5.762  16.978 -0.0260 -0.6373  0.0246
17390TIP3    H273586   1.412   5.705  17.063 -0.5940 -1.8032 -1.4631
17391TIP3   OH273587   4.946   6.708   4.347 -0.3641  0.6277  0.2449
17391TIP3    H173588   4.884   6.635   4.339 -0.6558  0.8438  0.5280
17391TIP3    H273589   5.032   6.668   4.334 -0.7120  0.7231 -2.4954
17392TIP3   OH273590   6.772   4.963  14.813  0.3914  0.0577  0.3282
17392TIP3    H173591   6.812   4.964  14.900  0.4115 -1.3583  0.3410
17392TIP3    H273592   6.678   4.960  14.829  0.3643  0.6856  0.2974
17393TIP3   OH273593   5.649   2.513   4.706  0.0895  0.3478 -0.2508
17393TIP3    H173594   5.591   2.538   4.634  0.2070  0.8351 -0.1776
17393TIP3    H273595   5.688   2.431   4.677 -1.8912 -0.8472  0.4263
17394TIP3   OH273596   2.589   0.737   3.642  0.5169 -0.3193  0.4004
17394TIP3    H173597   2.544   0.787   3.710 -2.7593 -0.7620 -1.3238
17394TIP3    H273598   2.672   0.784   3.629 -0.6158  2.1863  1.7743
17395TIP3   OH273599   4.384   0.884   3.647 -0.2384  0.0337 -0.2926
17395TIP3    H173600   4.331   0.827   3.702 -0.4545 -0.1414 -0.6845
17395TIP3    H273601   4.470   0.842   3.645  0.2121  0.8613  1.1861
17396TIP3   OH273602   1.411   4.428  10.920  0.1731  0.5778 -0.1224
17396TIP3    H173603   1.355   4.504  10.908  0.0306  0.7801  1.6541
17396TIP3    H273604   1.444   4.408  10.833 -0.0669  2.4586 -0.6609
17397TIP3   OH273605   2.963   1.744   3.975  0.3334 -0.1619  0.6696
17397TIP3    H173606   3.010   1.682   4.030 -0.4744 -1.2078  0.2063
17397TIP3    H273607   2.931   1.691   3.901  1.7964  1.3126 -1.0422
17398TIP3   OH273608   3.468   3.457   0.135 -0.1212  0.0477 -0.2216
17398TIP3    H173609   3.562   3.454   0.149 -0.2164  0.2803  0.4965
17398TIP3    H273610   3.438   3.368   0.153 -0.3285  0.4801  1.8060
17399TIP3   OH273611   5.461   4.091   4.751  0.5649 -0.0658  0.0168
17399TIP3    H173612   5.385   4.100   4.809 -1.8212 -0.0492 -2.9319
17399TIP3    H273613   5.458   4.000   4.722 -1.3146  1.1165 -3.8597
17400TIP3   OH273614   1.035   3.296   3.141  0.3619  0.0665  0.0021
17400TIP3    H173615   0.990   3.362   3.087  0.5259  0.2128  0.0435
17400TIP3    H273616   0.999   3.309   3.229  0.6097  0.3008  0.0714
17401TIP3   OH273617   0.468   2.536   3.903  0.5427 -0.5431 -0.0869
17401TIP3    H173618   0.385   2.502   3.935  1.2581 -2.1164  0.1612
17401TIP3    H273619   0.479   2.496   3.817  0.8945 -0.0846 -0.2593
17402TIP3   OH273620   0.605   1.260   1.194 -0.1718  0.0123 -0.5549
17402TIP3    H173621   0.536   1.199   1.221 -1.7546  0.9859 -2.2545
17402TIP3    H273622   0.672   1.251   1.261 -0.7880 -2.8781 -0.2441
17403TIP3   OH273623   2.928   6.708  15.155  0.1365  0.0375 -0.0713
17403TIP3    H173624   3.011   6.715  15.107  0.8083 -0.7408  0.9479
17403TIP3    H273625   2.919   6.614  15.172 -0.3288  0.2654  0.9334
17404TIP3   OH273626   0.824   1.359   1.707 -0.1670  0.1782  0.4138
17404TIP3    H173627   0.834   1.454   1.708 -0.8490  0.2864 -1.1158
17404TIP3    H273628   0.753   1.343   1.644 -1.4033 -1.2338  2.1134
17405TIP3   OH273629   4.489   2.695   1.215  0.3284 -0.2002  0.1749
17405TIP3    H173630   4.506   2.724   1.305  0.1229 -0.1713  0.2051
17405TIP3    H273631   4.511   2.770   1.161  0.3818 -0.1927  0.2065
17406TIP3   OH273632   4.387   3.840   0.615  0.0308 -0.4093 -0.1414
17406TIP3    H173633   4.360   3.867   0.702  0.3327  1.5813 -0.6479
17406TIP3    H273634   4.309   3.852   0.560  0.5434  0.7757 -0.6368
17407TIP3   OH273635   3.016   2.107   4.510 -0.1468 -0.4506  0.1367
17407TIP3    H173636   3.071   2.150   4.575 -0.7019 -0.0473  0.3396
17407TIP3    H273637   3.045   2.015   4.511  1.5487  0.0357 -0.8261
17408TIP3   OH273638   1.079   5.062  11.073 -0.3848 -0.2929 -0.1841
17408TIP3    H173639   1.097   5.133  11.012  0.9352 -1.3209 -1.0347
17408TIP3    H273640   1.056   4.988  11.016  0.9389 -1.2816  0.5329
17409TIP3   OH273641   6.251   4.854   4.562  1.0084  0.2290  0.3561
17409TIP3    H173642   6.219   4.849   4.652 -1.9669 -0.5355 -0.6899
17409TIP3    H273643   6.176   4.883   4.511  2.2455 -0.7394 -2.0972
17410TIP3   OH273644   3.778   1.327  14.118  0.6702  0.0625  0.6109
17410TIP3    H173645   3.720   1.358  14.049 -0.3738 -1.3386  0.8263
17410TIP3    H273646   3.801   1.406  14.167 -0.5723  0.7357  0.1531
17411TIP3   OH273647   1.144   3.610  11.178 -0.1689  0.2262  0.1997
17411TIP3    H173648   1.136   3.666  11.101  1.9092  1.0116  0.5396
17411TIP3    H273649   1.136   3.521  11.144  4.4630  0.3411 -1.5487
17412TIP3   OH273650   1.622   5.531  13.176  0.1280 -0.0235  0.3221
17412TIP3    H173651   1.618   5.513  13.270 -1.8826 -0.0766  0.2521
17412TIP3    H273652   1.642   5.624  13.170 -0.4104  0.1237  0.8069
17413TIP3   OH273653   5.791   5.604  14.628 -0.3602  0.0102 -0.0839
17413TIP3    H173654   5.723   5.594  14.695  1.0572  0.6357  1.4992
17413TIP3    H273655   5.777   5.691  14.592 -0.4378  0.1237  0.2189
17414TIP3   OH273656   2.581   3.977  13.230 -0.2277  0.0860 -0.1509
17414TIP3    H173657   2.635   3.900  13.210  1.1386  0.2927  2.4848
17414TIP3    H273658   2.508   3.943  13.281  1.3990  0.6814  2.7197
17415TIP3   OH273659   3.734   0.196  16.012 -0.5352  0.2439 -0.0140
17415TIP3    H173660   3.812   0.146  16.035 -0.9351 -0.9561 -1.1404
17415TIP3    H273661   3.697   0.148  15.937 -1.4171  1.7464 -0.5594
17416TIP3   OH273662   2.749   4.956   1.596  0.1261  0.2531  0.4618
17416TIP3    H173663   2.727   4.864   1.581  0.3148  0.0228  1.5579
17416TIP3    H273664   2.817   4.975   1.531  1.1625 -0.8026  1.2089
17417TIP3   OH273665   3.600   1.963  12.670 -0.3944  0.1847 -0.8442
17417TIP3    H173666   3.609   2.032  12.736 -0.3228 -0.6015 -0.0295
17417TIP3    H273667   3.680   1.911  12.679 -1.1780 -0.9437 -0.3717
17418TIP3   OH273668   0.720   4.062  17.089 -0.2212 -0.3186  0.9434
17418TIP3    H173669   0.722   4.028  17.000 -0.0626 -1.3902  1.3458
17418TIP3    H273670   0.728   3.984  17.144 -0.0513  0.3631  1.8875
17419TIP3   OH273671   0.909   6.620  10.834 -0.4909 -0.3192  0.2648
17419TIP3    H173672   0.917   6.707  10.796 -1.0375 -0.5413 -0.3621
17419TIP3    H273673   0.997   6.600  10.867  0.0526 -0.2345 -1.1086
17420TIP3   OH273674   0.622   5.988  10.373 -0.2120 -0.0016 -0.0219
17420TIP3    H173675   0.612   6.078  10.341  0.3711 -0.1190 -0.5599
17420TIP3    H273676   0.704   5.989  10.422 -0.0683 -0.3011 -0.2546
17421TIP3   OH273677   4.196   1.509  17.164  0.5379  0.5541 -0.1508
17421TIP3    H173678   4.112   1.495  17.120 -0.3352  1.5353  1.1619
17421TIP3    H273679   4.258   1.455  17.115 -0.5255  1.0875 -2.1610
17422TIP3   OH273680   3.132   3.859  12.630  0.2230  0.1027 -0.2433
17422TIP3    H173681   3.076   3.793  12.590 -0.7974  1.5632 -1.2502
17422TIP3    H273682   3.079   3.897  12.700 -0.3487  1.9718 -1.6400
17423TIP3   OH273683   0.698   5.768   1.990  0.1266 -0.4444 -0.1805
17423TIP3    H173684   0.639   5.713   2.041 -2.6860  2.2848 -0.3016
17423TIP3    H273685   0.747   5.818   2.056 -0.4504  0.0108 -0.0890
17424TIP3   OH273686   3.253   5.233   2.967  0.0333 -0.0700  0.0542
17424TIP3    H173687   3.215   5.170   2.907 -0.6948  0.6496 -0.2454
17424TIP3    H273688   3.178   5.276   3.008  0.4751 -1.6176  2.6462
17425TIP3   OH273689   3.494   0.159   3.576 -0.0027 -0.0286  0.0104
17425TIP3    H173690   3.441   0.233   3.604 -0.5504  0.7605 -2.8901
17425TIP3    H273691   3.578   0.170   3.620  1.1341  4.3112 -2.9381
17426TIP3   OH273692   2.942   5.541  11.733  0.5718  0.7060 -0.0519
17426TIP3    H173693   2.965   5.479  11.802 -0.2268 -1.8671 -2.0160
17426TIP3    H273694   3.012   5.531  11.668  0.9820  2.6497  0.0547
17427TIP3   OH273695   4.374   5.626   4.069 -0.1284 -0.5205 -0.2764
17427TIP3    H173696   4.432   5.587   4.003 -0.3552 -2.1801  0.4710
17427TIP3    H273697   4.302   5.663   4.019 -0.0126 -1.2596 -1.0080
17428TIP3   OH273698   2.480   4.486   0.933  0.0792 -0.0222  0.1176
17428TIP3    H173699   2.553   4.533   0.892  1.2542 -0.4768  1.6292
17428TIP3    H273700   2.455   4.541   1.007  0.2917 -0.9142  0.8524
17429TIP3   OH273701   3.257   5.122  12.555  0.0414  0.4414  0.3945
17429TIP3    H173702   3.331   5.062  12.548  0.0519  0.4028  0.8027
17429TIP3    H273703   3.295   5.208  12.536 -0.1290  0.2304 -0.9373
17430TIP3   OH273704   2.670   5.010   2.791 -0.5452 -0.5097 -0.5873
17430TIP3    H173705   2.594   5.040   2.842  0.9086 -0.5535  1.6438
17430TIP3    H273706   2.656   4.915   2.783  0.3811 -0.8817  1.7787
17431TIP3   OH273707   2.862   2.356   1.715  0.4800 -0.8523 -0.2044
17431TIP3    H173708   2.928   2.425   1.718 -1.1174  0.7032 -0.3138
17431TIP3    H273709   2.880   2.302   1.792  1.5612 -0.1332  0.0537
17432TIP3   OH273710   5.578   2.657  16.808  0.2456 -0.5131 -0.2033
17432TIP3    H173711   5.664   2.652  16.850  0.5261 -1.0664 -0.8234
17432TIP3    H273712   5.560   2.751  16.802  0.9239 -0.3814 -0.3018
17433TIP3   OH273713   4.810   1.782   0.825  0.0794 -0.1178  0.1930
17433TIP3    H173714   4.720   1.784   0.858  0.1680 -0.1122  0.4357
17433TIP3    H273715   4.803   1.742   0.738 -0.5219  2.4997 -0.9963
17434TIP3   OH273716   3.333   3.508   5.372 -0.1205  0.2758  0.6602
17434TIP3    H173717   3.319   3.552   5.456  1.1176 -0.9565  1.5449
17434TIP3    H273718   3.415   3.461   5.384 -0.2261 -0.3715 -1.0662
17435TIP3   OH273719   3.283   6.717   0.993  0.4093 -0.2352  0.1813
17435TIP3    H173720   3.194   6.743   0.971  0.3372  0.5758  1.3890
17435TIP3    H273721   3.338   6.768   0.933  0.2329  2.2039  2.0594
17436TIP3   OH273722   3.702   1.952  15.087  0.4988  0.0623 -0.5052
17436TIP3    H173723   3.773   1.922  15.143  0.9672 -0.3379 -1.3140
17436TIP3    H273724   3.728   2.040  15.060 -0.4954  0.9155  1.2110
17437TIP3   OH273725   0.048   5.058   2.494  1.0891 -0.0216 -0.5492
17437TIP3    H173726   0.106   5.044   2.569  0.4638 -0.4206 -0.1320
17437TIP3    H273727   0.105   5.093   2.425  1.6512  0.4232  0.1389
17438TIP3   OH273728   3.976   2.312   1.027 -0.0559 -0.2028 -0.0625
17438TIP3    H173729   4.048   2.375   1.023  1.9065 -2.2749  1.2507
17438TIP3    H273730   3.973   2.273   0.940  0.6411 -0.3319 -0.0330
17439TIP3   OH273731   5.968   5.136  14.306 -0.7999  0.0450  0.2650
17439TIP3    H173732   5.930   5.116  14.391 -0.0019 -0.7169  0.4439
17439TIP3    H273733   5.938   5.066  14.248 -2.2159  1.1343 -0.3498
17440TIP3   OH273734   1.663   3.375  12.805  0.5260 -0.2453 -0.0943
17440TIP3    H173735   1.611   3.376  12.724 -1.4370 -1.3397  1.1246
17440TIP3    H273736   1.625   3.445  12.859  0.8176 -0.5458  0.5057
17441TIP3   OH273737   3.375   3.596  14.953 -0.1449  0.0480 -0.0134
17441TIP3    H173738   3.427   3.516  14.948 -0.3538 -0.1532  1.0463
17441TIP3    H273739   3.370   3.617  15.046  0.8831  1.9520 -0.3659
17442TIP3   OH273740   3.281   0.623   3.757 -0.3737 -0.4909  0.9686
17442TIP3    H173741   3.345   0.667   3.814 -1.1775  1.3502  0.4751
17442TIP3    H273742   3.292   0.664   3.672 -1.0257 -1.3896  0.4406
17443TIP3   OH273743   1.749   2.976   5.700  0.1457 -0.2940  0.2103
17443TIP3    H173744   1.842   2.957   5.709  0.4551  1.8357  1.8964
17443TIP3    H273745   1.734   2.979   5.606  1.5011 -1.8821 -0.0777
17444TIP3   OH273746   4.701   4.024   4.915  0.1772  0.1380  0.2695
17444TIP3    H173747   4.717   4.019   5.010  0.6614 -1.5494  0.1107
17444TIP3    H273748   4.765   4.088   4.883  2.2740 -1.7408  0.6064
17445TIP3   OH273749   4.476   5.228  15.154 -0.0965 -0.0937 -0.3213
17445TIP3    H173750   4.431   5.165  15.210  0.3324  0.3626  0.5550
17445TIP3    H273751   4.559   5.185  15.131 -0.2898 -0.2961 -0.6351
17446TIP3   OH273752   3.957   3.872   0.710  0.2631 -0.0729 -0.3390
17446TIP3    H173753   3.904   3.863   0.790 -0.7287 -1.1951 -1.1082
17446TIP3    H273754   3.992   3.784   0.696  2.4821  0.6977  0.2562
17447TIP3   OH273755   3.642   6.307  10.984 -0.1174  0.5044  0.3979
17447TIP3    H173756   3.681   6.393  10.969  0.5702  0.2870  0.9055
17447TIP3    H273757   3.624   6.305  11.078 -0.1468  0.0961  0.3864
17448TIP3   OH273758   1.489   1.292   3.878  0.3458  0.2826  0.2486
17448TIP3    H173759   1.417   1.256   3.825  1.5717 -2.9628  0.7206
17448TIP3    H273760   1.447   1.318   3.960 -0.6070  0.2796 -0.2182
17449TIP3   OH273761   5.095   5.064  12.382 -0.2040  0.2286 -0.2435
17449TIP3    H173762   5.006   5.076  12.349 -0.3101 -0.5411 -0.2497
17449TIP3    H273763   5.083   5.034  12.473  0.0395 -0.0231 -0.2929
17450TIP3   OH273764   2.256   5.924  15.822 -0.0021 -0.6561 -0.2949
17450TIP3    H173765   2.346   5.912  15.790  0.2622 -0.0563  0.2105
17450TIP3    H273766   2.203   5.931  15.742  0.7076  1.2439 -0.6386
17451TIP3   OH273767   3.799   6.707  13.378  0.0135 -0.8503 -0.6787
17451TIP3    H173768   3.841   6.634  13.423  0.6517 -0.3074 -0.3797
17451TIP3    H273769   3.868   6.772  13.368 -0.3843 -0.5570 -1.5430
17452TIP3   OH273770   4.497   0.812  11.423 -0.1500 -0.0648 -0.2424
17452TIP3    H173771   4.580   0.857  11.440 -0.5936  0.7954 -0.3485
17452TIP3    H273772   4.492   0.806  11.328  1.1903 -2.7591 -0.2027
17453TIP3   OH273773   5.568   4.662  12.295 -0.3708 -0.1490  0.3284
17453TIP3    H173774   5.480   4.632  12.274 -1.0428  2.2266 -0.3430
17453TIP3    H273775   5.558   4.712  12.376  0.4048  0.0044  0.3355
17454TIP3   OH273776   3.907   1.434  11.068  0.3028 -0.3359  0.5710
17454TIP3    H173777   3.991   1.388  11.069  0.9725  0.8744  2.3009
17454TIP3    H273778   3.929   1.523  11.040 -0.5120 -0.2133  0.3086
17455TIP3   OH273779   3.948   0.325   3.516 -0.1069  0.1795  0.0249
17455TIP3    H173780   3.887   0.298   3.447 -2.6259 -0.0971  2.2452
17455TIP3    H273781   3.988   0.243   3.545 -0.3110  0.0732  0.0136
17456TIP3   OH273782   0.342   1.317   4.036 -0.0319  0.2442  0.1881
17456TIP3    H173783   0.376   1.251   4.097 -0.5112  0.2046  0.4132
17456TIP3    H273784   0.257   1.282   4.008  0.9209 -0.5399 -1.7979
17457TIP3   OH273785   2.697   3.037  13.109 -0.2618  0.0237  0.5508
17457TIP3    H173786   2.626   3.095  13.136 -0.3095  0.3872 -0.3518
17457TIP3    H273787   2.749   3.025  13.188 -1.3876 -0.3449  1.2573
17458TIP3   OH273788   0.163   3.379  14.131 -0.1789  0.3414  0.6032
17458TIP3    H173789   0.075   3.342  14.141  0.9934 -3.3940 -1.8932
17458TIP3    H273790   0.159   3.429  14.050  0.4465 -1.3104 -0.4575
17459TIP3   OH273791   1.243   0.710   5.209  0.2146 -0.2404  0.6263
17459TIP3    H173792   1.301   0.682   5.280  0.5944 -0.3089  0.2880
17459TIP3    H273793   1.254   0.805   5.204  0.1021 -0.2213  0.7334
17460TIP3   OH273794   3.765   2.033   1.793  0.4594 -0.3023 -0.3145
17460TIP3    H173795   3.691   2.090   1.769  1.6057  1.1397 -0.4671
17460TIP3    H273796   3.812   2.020   1.711 -0.1616 -2.0392 -0.4101
17461TIP3   OH273797   4.803   5.506   0.556  0.5135  0.0816 -0.1035
17461TIP3    H173798   4.826   5.457   0.634 -0.1143 -2.2735 -1.3434
17461TIP3    H273799   4.882   5.506   0.502  1.0911  2.1164  0.7309
17462TIP3   OH273800   0.804   6.046  16.479  1.0700  0.2211  0.0493
17462TIP3    H173801   0.826   5.973  16.537 -2.0952 -0.5880  0.3560
17462TIP3    H273802   0.753   6.006  16.409  0.2692  1.9564 -0.3865
17463TIP3   OH273803   6.105   4.493  11.883  0.1666  0.2386  0.3778
17463TIP3    H173804   6.075   4.409  11.849  1.1568 -0.0935  0.3060
17463TIP3    H273805   6.070   4.557  11.821  2.0066 -0.3595 -1.3368
17464TIP3   OH273806   5.240   2.093   2.602 -0.1276 -0.7052  0.1734
17464TIP3    H173807   5.154   2.106   2.642 -0.2049  1.8441 -0.7719
17464TIP3    H273808   5.230   2.011   2.553 -1.7086 -0.9263  0.8069
17465TIP3   OH273809   3.932   3.032  16.526 -0.5827  0.4271  0.4010
17465TIP3    H173810   4.011   2.992  16.490 -0.9650 -0.1399  0.1731
17465TIP3    H273811   3.958   3.068  16.611  0.2974  1.6434 -0.3650
17466TIP3   OH273812   2.304   5.046  17.153  0.0206 -0.2687 -0.0927
17466TIP3    H173813   2.377   5.108  17.151  1.5373 -1.9479  1.2456
17466TIP3    H273814   2.310   4.998  17.070  0.8672 -0.8362  0.2835
17467TIP3   OH273815   4.620   0.245  16.092 -0.4465  0.1252 -0.1981
17467TIP3    H173816   4.539   0.271  16.135 -1.5131 -1.4790 -1.1601
17467TIP3    H273817   4.646   0.164  16.137 -0.2694 -0.2406 -0.9400
17468TIP3   OH273818   1.217   0.073  15.673  0.0408  0.5595 -0.2221
17468TIP3    H173819   1.205   0.125  15.594 -0.8785  3.0247  1.4835
17468TIP3    H273820   1.285   0.010  15.650  1.5494  2.8405 -2.2042
17469TIP3   OH273821   1.470   1.656  15.579  0.3249 -0.0515 -0.0889
17469TIP3    H173822   1.469   1.750  15.598  0.1729 -0.0351 -0.1728
17469TIP3    H273823   1.377   1.632  15.572  0.3549 -0.2964  0.3635
17470TIP3   OH273824   4.752   5.749   3.595 -0.5182 -0.5246  0.6001
17470TIP3    H173825   4.673   5.702   3.567 -0.0022  0.1284 -2.1017
17470TIP3    H273826   4.821   5.683   3.595 -0.2587 -0.2830 -1.0128
17471TIP3   OH273827   2.190   2.853  15.773 -0.1862  0.4631  0.0131
17471TIP3    H173828   2.114   2.810  15.811 -1.0006  0.6701 -1.3426
17471TIP3    H273829   2.158   2.892  15.692  1.8067 -1.3357 -1.7464
17472TIP3   OH273830   4.107   5.271  12.085  1.2406 -0.6817  0.1211
17472TIP3    H173831   4.049   5.322  12.142  1.4286 -0.8171  0.4338
17472TIP3    H273832   4.084   5.180  12.103 -0.2755 -0.6827 -1.6750
17473TIP3   OH273833   0.869   0.280  14.358 -0.1308 -0.1343 -0.8578
17473TIP3    H173834   0.814   0.240  14.290 -1.2564  0.3394 -0.2445
17473TIP3    H273835   0.844   0.372  14.357 -2.3691 -0.6335  2.2199
17474TIP3   OH273836   5.847   3.820   2.694  0.1161  0.0484 -0.2461
17474TIP3    H173837   5.868   3.845   2.784  2.0957 -0.0933 -0.6575
17474TIP3    H273838   5.797   3.739   2.702  1.4980 -0.7168  0.6628
17475TIP3   OH273839   4.379   1.087  11.373  0.5262  0.1404 -0.0267
17475TIP3    H173840   4.304   1.077  11.432  0.9146 -1.3877  0.2428
17475TIP3    H273841   4.429   1.006  11.385  1.5057  0.5649 -1.2021
17476TIP3   OH273842   4.647   3.373  16.433  0.1707  0.3329 -0.0285
17476TIP3    H173843   4.586   3.301  16.417 -0.9952  1.1914  0.5017
17476TIP3    H273844   4.592   3.445  16.462  1.3956  1.2688  0.0052
17477TIP3   OH273845   3.418   4.371  12.560  0.3250  0.2270 -0.2385
17477TIP3    H173846   3.437   4.405  12.473  0.3364  1.3518  0.1892
17477TIP3    H273847   3.490   4.404  12.614  0.5273 -0.7816  0.1318
17478TIP3   OH273848   4.690   2.190  10.363 -0.2362 -0.7438  0.3726
17478TIP3    H173849   4.722   2.222  10.447  0.3919 -1.4290  0.4020
17478TIP3    H273850   4.681   2.268  10.309  0.1196 -0.3891  0.8225
17479TIP3   OH273851   5.981   1.163  13.120 -0.0531 -0.4209  0.1722
17479TIP3    H173852   5.922   1.113  13.176  0.0547 -1.5504 -0.7008
17479TIP3    H273853   6.052   1.101  13.099  0.5225  0.3625 -0.2283
17480TIP3   OH273854   6.333   0.865  14.698  0.2050 -0.0808  0.1458
17480TIP3    H173855   6.408   0.849  14.756 -0.8694 -0.5554  1.4276
17480TIP3    H273856   6.282   0.784  14.702 -1.1074  0.7462  0.3879
17481TIP3   OH273857   0.130   4.675   0.951 -0.2608  0.5522  0.1498
17481TIP3    H173858   0.219   4.700   0.927  0.2949  0.7234  2.3190
17481TIP3    H273859   0.117   4.590   0.909  0.7453  0.7534 -0.5930
17482TIP3   OH273860   3.749   2.613   4.348 -0.5313 -0.3926  0.5365
17482TIP3    H173861   3.841   2.640   4.348 -0.7120  0.2333  0.1725
17482TIP3    H273862   3.739   2.564   4.429  0.2952 -1.0592  0.2430
17483TIP3   OH273863   4.879   3.816  14.995 -0.0197  0.0678 -0.0003
17483TIP3    H173864   4.824   3.773  15.061  0.1488 -2.8146 -1.6065
17483TIP3    H273865   4.816   3.860  14.937 -0.4290 -0.4183  0.0684
17484TIP3   OH273866   1.570   0.883  14.464  0.2516  0.2221 -0.4882
17484TIP3    H173867   1.594   0.913  14.376  0.7676  1.1764 -0.0325
17484TIP3    H273868   1.637   0.820  14.487  0.5670  0.5620 -0.4668
17485TIP3   OH273869   5.022   1.358   0.139  0.2103  0.0550  0.0768
17485TIP3    H173870   5.067   1.294   0.195 -0.1493 -0.9232 -0.7516
17485TIP3    H273871   5.015   1.315   0.054 -1.1571  0.7099 -0.1443
17486TIP3   OH273872   4.764   5.986  11.157  0.1572 -0.2081 -0.6733
17486TIP3    H173873   4.669   5.976  11.170  0.1085  1.5290  0.4750
17486TIP3    H273874   4.803   5.927  11.221 -0.1210 -1.0740 -1.2758
17487TIP3   OH273875   0.879   4.404  12.048  0.3263  0.1135 -0.2310
17487TIP3    H173876   0.885   4.458  12.127  1.9708 -0.4023  0.0281
17487TIP3    H273877   0.875   4.314  12.081  0.9182 -0.0991 -0.7183
17488TIP3   OH273878   2.835   3.783   2.236 -0.2526  0.3077 -0.1027
17488TIP3    H173879   2.779   3.710   2.263 -0.8932  0.8784  0.1430
17488TIP3    H273880   2.776   3.859   2.237  0.4366  0.8441 -0.2369
17489TIP3   OH273881   4.779   5.107   1.255 -0.3935 -0.6284 -0.1988
17489TIP3    H173882   4.778   5.192   1.299 -0.3840 -0.2007 -1.0282
17489TIP3    H273883   4.687   5.089   1.235 -0.0064  1.1632 -3.8240
17490TIP3   OH273884   4.857   0.700  17.161 -0.4419 -0.2827 -0.1441
17490TIP3    H173885   4.891   0.705  17.251 -2.1415 -0.9834  0.5578
17490TIP3    H273886   4.865   0.608  17.138  1.5069  0.1590 -1.3497
17491TIP3   OH273887   6.727   0.934  16.706 -0.2692 -0.3969  0.0866
17491TIP3    H173888   6.639   0.969  16.720 -0.3211 -0.5825  0.2280
17491TIP3    H273889   6.785   0.995  16.750 -0.1686  0.7733 -1.6200
17492TIP3   OH273890   3.982   1.871   5.878  0.0856  0.0109  0.0108
17492TIP3    H173891   4.006   1.882   5.970  2.4674 -0.1585 -0.5738
17492TIP3    H273892   3.981   1.960   5.842  0.5292 -0.0410 -0.1319
17493TIP3   OH273893   0.669   3.973   5.624 -0.1321 -0.3983 -0.1973
17493TIP3    H173894   0.687   3.950   5.532 -0.0875 -1.2986  0.0334
17493TIP3    H273895   0.577   3.949   5.637 -0.2389  0.0478 -0.0931
17494TIP3   OH273896   6.387   3.974   2.192  0.7837  0.0450  0.0953
17494TIP3    H173897   6.352   3.992   2.104  0.6306  4.1479  0.8899
17494TIP3    H273898   6.475   4.010   2.190  0.8083  0.0776  1.5965
17495TIP3   OH273899   3.694   0.414  12.008  0.2463  0.0442  0.2143
17495TIP3    H173900   3.780   0.455  12.016 -1.0267  3.0053 -0.5789
17495TIP3    H273901   3.680   0.407  11.913 -1.1672  1.3722  0.3031
17496TIP3   OH273902   1.201   3.073   3.854  0.3110 -0.1755  0.4618
17496TIP3    H173903   1.253   2.994   3.872  2.0946  1.2753  1.7602
17496TIP3    H273904   1.195   3.118   3.938  0.9222  2.0400 -0.6463
17497TIP3   OH273905   4.264   2.706   3.473  0.8271  0.2947  0.3562
17497TIP3    H173906   4.310   2.783   3.507  1.0456  0.6644 -0.7563
17497TIP3    H273907   4.202   2.682   3.543  2.7061 -0.2273  1.8785
17498TIP3   OH273908   4.828   5.392   6.561  0.2991  0.2796  0.8022
17498TIP3    H173909   4.858   5.461   6.619  1.1309 -1.0576  1.9797
17498TIP3    H273910   4.907   5.362   6.516  0.1349 -0.6653  1.1301
17499TIP3   OH273911   1.644   1.345   0.651  0.5314  0.4111  0.2458
17499TIP3    H173912   1.724   1.348   0.704  1.2889  1.3135 -0.9271
17499TIP3    H273913   1.655   1.266   0.597  0.1748 -0.0100  0.7876
17500TIP3   OH273914   3.652   0.077  15.617 -0.1018  0.2460  0.1558
17500TIP3    H173915   3.703   0.029  15.683  0.5507  0.4009 -0.2253
17500TIP3    H273916   3.604   0.143  15.667  1.3110  1.1445  0.3556
17501TIP3   OH273917   0.052   6.519  14.456  0.2694  0.1981 -0.0501
17501TIP3    H173918   0.068   6.614  14.458  1.8888 -0.0707  0.8915
17501TIP3    H273919   0.048   6.497  14.363 -0.0156  1.1857 -0.2724
17502TIP3   OH273920   4.656   4.828   2.038  0.5394  0.1449  0.4203
17502TIP3    H173921   4.576   4.785   2.006  1.0835 -1.8545  1.6208
17502TIP3    H273922   4.727   4.774   2.003  1.3356  1.1969  0.3899
17503TIP3   OH273923   3.711   3.470  12.674 -0.5784 -0.0877  0.1263
17503TIP3    H173924   3.755   3.542  12.630 -0.7514 -0.0881 -0.0462
17503TIP3    H273925   3.744   3.473  12.764 -0.9822  0.5368  0.2556
17504TIP3   OH273926   1.194   5.661   0.948 -0.2725 -0.4014  0.1449
17504TIP3    H173927   1.221   5.753   0.945  0.5874 -0.6818 -0.6320
17504TIP3    H273928   1.209   5.635   1.039 -0.7140  0.2833  0.4175
17505TIP3   OH273929   1.349   1.862   6.038  0.4123 -0.4090  0.1262
17505TIP3    H173930   1.263   1.855   6.078 -0.2768  1.8566 -0.8631
17505TIP3    H273931   1.367   1.775   6.004 -1.3568 -0.9856  0.6042
17506TIP3   OH273932   2.372   4.635   2.322 -0.2390 -0.5581 -0.0404
17506TIP3    H173933   2.328   4.600   2.245  1.5629  0.1637 -1.4358
17506TIP3    H273934   2.390   4.558   2.376 -0.4395 -1.2234 -0.9067
17507TIP3   OH273935   0.112   1.271   3.890  0.0913  0.5728 -0.3009
17507TIP3    H173936   0.069   1.356   3.899 -0.8079  0.5100 -3.5592
17507TIP3    H273937   0.040   1.208   3.893  0.4864  0.1082 -0.5390
17508TIP3   OH273938   3.803   2.089  12.154 -0.0820  0.3266  0.4587
17508TIP3    H173939   3.799   2.123  12.065  0.0714  0.5362  0.5306
17508TIP3    H273940   3.746   2.013  12.153  2.4887 -1.6476 -0.6812
17509TIP3   OH273941   1.806   2.400  16.779  0.2155 -0.5226  0.1841
17509TIP3    H173942   1.843   2.348  16.708  0.5953  0.3801 -0.2877
17509TIP3    H273943   1.720   2.361  16.794  0.2015 -0.8296 -0.6505
17510TIP3   OH273944   1.707   1.580  11.464  0.3487  0.1229  0.2010
17510TIP3    H173945   1.640   1.639  11.428 -0.3441  0.1094  1.4383
17510TIP3    H273946   1.768   1.566  11.392  0.3159  2.0619 -0.2496
17511TIP3   OH273947   3.764   5.352  16.959  0.0516 -0.1928  0.1842
17511TIP3    H173948   3.758   5.284  16.892  0.1184 -1.4749  1.4473
17511TIP3    H273949   3.848   5.395  16.943 -0.4860  0.3222 -1.2960
17512TIP3   OH273950   1.764   6.254   3.658  0.1510  0.3825 -0.4034
17512TIP3    H173951   1.845   6.211   3.628  0.4496 -0.1391  1.0731
17512TIP3    H273952   1.714   6.270   3.578  0.3080 -2.1729 -1.0764
17513TIP3   OH273953   6.194   5.040  14.099  0.0875  0.1409  0.1404
17513TIP3    H173954   6.162   5.129  14.112  1.5127  0.7068 -0.0628
17513TIP3    H273955   6.167   4.992  14.177  1.8305  1.5160  1.6409
17514TIP3   OH273956   5.263   0.127   5.075 -0.5995 -0.0903  0.2988
17514TIP3    H173957   5.274   0.036   5.102  0.4558 -0.8741 -2.5417
17514TIP3    H273958   5.352   0.156   5.052 -1.2679  0.8785 -1.1456
17515TIP3   OH273959   5.596   0.916   5.843  0.3954  0.0348  0.5588
17515TIP3    H173960   5.537   0.973   5.794 -2.1997 -1.3021  2.0141
17515TIP3    H273961   5.627   0.970   5.916 -1.9295 -0.2920  1.8414
17516TIP3   OH273962   0.089   4.565  11.368  0.4204  0.0488  0.2315
17516TIP3    H173963   0.090   4.549  11.274 -1.7264  0.1764  0.1488
17516TIP3    H273964   0.002   4.536  11.396  1.6624 -1.7613  2.4974
17517TIP3   OH273965   1.353   0.927   2.099  0.1235  0.3466 -0.8208
17517TIP3    H173966   1.274   0.968   2.065  1.6466  2.0601 -2.4018
17517TIP3    H273967   1.334   0.833   2.099 -1.1808  0.5802 -3.1345
17518TIP3   OH273968   0.729   1.773   6.095  0.4425 -0.0550  0.4063
17518TIP3    H173969   0.709   1.690   6.053  1.4530  0.2594 -0.7265
17518TIP3    H273970   0.645   1.804   6.129 -0.1066 -1.0733 -0.0031
17519TIP3   OH273971   4.592   6.768  15.553  0.4667 -0.3640  0.1445
17519TIP3    H173972   4.681   6.745  15.526  0.2941 -0.3290 -0.4684
17519TIP3    H273973   4.594   6.862  15.566 -0.3588  0.2128 -3.3834
17520TIP3   OH273974   3.231   5.943  15.961 -0.1222 -0.1522  0.2185
17520TIP3    H173975   3.205   5.874  16.022  0.1666  0.3405  0.9021
17520TIP3    H273976   3.180   5.925  15.882  1.5565 -2.4706 -0.4052
17521TIP3   OH273977   5.780   6.766   5.585  0.3513  0.2862 -0.0832
17521TIP3    H173978   5.831   6.846   5.592  0.7888 -0.1003  1.1336
17521TIP3    H273979   5.837   6.704   5.539  1.0433 -0.2013  1.4326
17522TIP3   OH273980   1.868   1.875   0.240 -0.7056  0.4403  0.4886
17522TIP3    H173981   1.925   1.951   0.230 -0.1647 -0.2138 -1.6116
17522TIP3    H273982   1.779   1.909   0.228 -0.6075  1.0909  1.6158
17523TIP3   OH273983   4.308   0.806   4.185  0.5566 -0.3386 -0.1616
17523TIP3    H173984   4.233   0.865   4.192  0.8055  0.2259 -1.9861
17523TIP3    H273985   4.381   0.854   4.225 -0.2197 -1.2579  2.4537
17524TIP3   OH273986   6.354   2.405  12.244 -0.0846  0.1258 -0.2266
17524TIP3    H173987   6.262   2.386  12.229  0.7794 -1.7571 -3.4656
17524TIP3    H273988   6.368   2.491  12.203 -0.2437  0.1255 -0.2809
17525TIP3   OH273989   4.849   4.664  11.706 -0.1006 -0.2718 -0.0257
17525TIP3    H173990   4.816   4.726  11.640 -1.8785  2.3782  3.2267
17525TIP3    H273991   4.788   4.591  11.703  0.3867 -0.6431 -1.9313
17526TIP3   OH273992   2.617   3.306  12.946  0.1602  0.1637 -0.3342
17526TIP3    H173993   2.605   3.369  12.875  1.6729 -1.4472 -2.0693
17526TIP3    H273994   2.562   3.340  13.017  1.8715  4.1188 -0.7359
17527TIP3   OH273995   3.702   3.914  14.139  0.8978 -0.2554 -0.6404
17527TIP3    H173996   3.725   3.944  14.052  2.1269  2.4958  0.5931
17527TIP3    H273997   3.786   3.897  14.182  0.2912 -3.0283 -0.4175
17528TIP3   OH273998   3.951   0.375  11.410  0.2589 -0.9583 -0.2146
17528TIP3    H173999   3.955   0.296  11.463  1.2329 -0.1876  0.8680
17528TIP3    H274000   4.039   0.384  11.373  0.9915  1.1648  1.9412
17529TIP3   OH274001   4.675   1.139   0.531 -0.1551  0.2867 -0.4992
17529TIP3    H174002   4.633   1.205   0.586 -0.1651  0.7711 -1.0861
17529TIP3    H274003   4.754   1.115   0.579 -1.2689 -0.8945  0.7986
17530TIP3   OH274004   0.765   4.742  15.378  0.6630 -0.0406  0.2550
17530TIP3    H174005   0.853   4.779  15.366  0.7797 -0.7815 -1.2893
17530TIP3    H274006   0.776   4.676  15.447  1.0294  0.8254  1.0331
17531TIP3   OH274007   0.634   4.528   5.461  0.3975  0.2712 -0.1029
17531TIP3    H174008   0.578   4.503   5.387 -1.0252 -1.5023  1.5432
17531TIP3    H274009   0.716   4.481   5.446  0.3071  0.3283 -0.8135
17532TIP3   OH274010   2.634   5.728  17.161  0.0666 -0.5054 -0.6539
17532TIP3    H174011   2.546   5.705  17.132 -0.3803 -1.7052  1.5707
17532TIP3    H274012   2.686   5.649  17.146  0.4970 -0.1859 -0.8709
17533TIP3   OH274013   3.007   2.390   5.592  0.6171 -0.3610  0.5071
17533TIP3    H174014   3.057   2.331   5.648  0.9438  0.5272  1.1697
17533TIP3    H274015   2.989   2.466   5.648 -1.1600 -0.5249  0.1592
17534TIP3   OH274016   1.324   6.322  14.822 -0.1232  0.1635 -0.2748
17534TIP3    H174017   1.322   6.387  14.752  1.1876 -0.3898 -0.8329
17534TIP3    H274018   1.271   6.250  14.790  0.0255  0.1376 -0.4562
17535TIP3   OH274019   6.500   1.552   0.641  0.2628 -0.5676 -0.3116
17535TIP3    H174020   6.495   1.457   0.652 -0.8072 -1.0770 -4.5520
17535TIP3    H274021   6.593   1.572   0.652  0.5660 -2.1448  0.1152
17536TIP3   OH274022   6.530   0.961   4.445  0.7532  0.1284 -0.2589
17536TIP3    H174023   6.510   0.951   4.351  0.9573  1.1015 -0.4111
17536TIP3    H274024   6.510   0.875   4.482 -0.3086  0.0240 -1.0230
17537TIP3   OH274025   1.712   6.191   0.109 -0.2532 -0.7602  0.2525
17537TIP3    H174026   1.661   6.115   0.081  0.3570 -1.2052  0.3475
17537TIP3    H274027   1.685   6.206   0.199 -1.5433  0.1102 -0.2696
17538TIP3   OH274028   6.420   0.649  14.864  0.0685 -0.8583 -0.2011
17538TIP3    H174029   6.459   0.665  14.949 -2.0347 -2.4272  1.1131
17538TIP3    H274030   6.485   0.596  14.817  0.2539 -2.0046  1.3140
17539TIP3   OH274031   3.669   1.714  16.131  0.1258 -0.0834 -0.2945
17539TIP3    H174032   3.580   1.746  16.143  0.3205  0.3533  0.0082
17539TIP3    H274033   3.694   1.745  16.044  0.1921  0.2984 -0.1424
17540TIP3   OH274034   1.185   0.482  16.967  0.1993  0.0014  0.4091
17540TIP3    H174035   1.121   0.485  16.896  1.3044 -1.5323 -0.6744
17540TIP3    H274036   1.241   0.558  16.952  0.2258 -0.1318 -0.1763
17541TIP3   OH274037   1.554   4.901  12.748 -0.4400  0.5676 -0.7875
17541TIP3    H174038   1.600   4.891  12.664  1.6064  3.5227 -0.0963
17541TIP3    H274039   1.595   4.837  12.806  1.6521  1.9602 -0.6837
17542TIP3   OH274040   0.957   2.788  10.720 -0.0659  0.4725 -0.1496
17542TIP3    H174041   0.948   2.881  10.739  0.7574  0.4195  0.4995
17542TIP3    H274042   1.049   2.769  10.735 -0.4132 -0.6452  0.5980
17543TIP3   OH274043   5.889   1.996  15.039  0.3764  0.3763  0.6575
17543TIP3    H174044   5.810   2.007  14.985  1.0394 -1.5780 -0.7425
17543TIP3    H274045   5.944   2.071  15.016 -0.5575  1.1277  0.7948
17544TIP3   OH274046   5.814   1.066   1.114  0.4604 -0.1032 -0.0470
17544TIP3    H174047   5.772   1.094   1.032 -1.0594 -2.3997 -0.0937
17544TIP3    H274048   5.761   1.105   1.183  1.5387  1.5492 -0.1343
17545TIP3   OH274049   6.450   1.939  10.604  0.2257  0.2672  0.1466
17545TIP3    H174050   6.397   1.870  10.565  0.4257  0.0395  0.2696
17545TIP3    H274051   6.533   1.936  10.556  1.2353 -1.3821  1.9020
17546TIP3   OH274052   6.315   1.091  12.803  0.3837 -0.2109  0.7272
17546TIP3    H174053   6.325   1.186  12.806  2.5564 -0.3886 -0.3538
17546TIP3    H274054   6.236   1.077  12.750  0.7380  0.9545 -0.1261
17547TIP3   OH274055   0.920   2.361   5.039  0.7940 -0.6611  0.1902
17547TIP3    H174056   0.983   2.415   5.088 -0.3982 -0.7146  1.8063
17547TIP3    H274057   0.943   2.271   5.061 -1.3870 -0.6494  2.8423
17548TIP3   OH274058   3.086   1.432  13.453 -0.1198 -0.3960 -0.1274
17548TIP3    H174059   3.040   1.495  13.397 -0.9105 -1.3659 -0.5932
17548TIP3    H274060   3.167   1.414  13.407 -0.4120 -0.5900 -0.5702
17549TIP3   OH274061   2.549   3.720   6.496 -0.6184  0.2476  0.4765
17549TIP3    H174062   2.465   3.697   6.457 -0.8652 -0.0933  1.2098
17549TIP3    H274063   2.543   3.689   6.586  0.1200  0.6333  0.6594
17550TIP3   OH274064   5.204   6.608   4.316 -0.6711 -0.3594  0.0496
17550TIP3    H174065   5.205   6.525   4.363  2.6199 -0.5195 -0.1962
17550TIP3    H274066   5.272   6.661   4.358 -0.3858  0.9509 -1.9635
17551TIP3   OH274067   0.382   6.062   3.302  0.0298 -0.5814  0.0442
17551TIP3    H174068   0.398   6.155   3.286  1.5691 -0.7238  0.6840
17551TIP3    H274069   0.426   6.018   3.229  1.7135 -0.9250  1.2297
17552TIP3   OH274070   4.093   3.657   4.539  0.1456  0.6709  0.5408
17552TIP3    H174071   4.052   3.571   4.531  0.6775  0.3719  1.0001
17552TIP3    H274072   4.152   3.662   4.464  2.1178 -0.4789  1.9595
17553TIP3   OH274073   1.595   0.819   3.541  0.1255  0.0760  0.3477
17553TIP3    H174074   1.504   0.847   3.555 -0.6589 -1.7758 -0.8757
17553TIP3    H274075   1.644   0.901   3.533 -1.7487  1.1290 -0.8699
17554TIP3   OH274076   0.160   6.355   4.086  0.0101  0.0316 -0.1576
17554TIP3    H174077   0.251   6.343   4.061 -0.2652 -1.4548 -0.5206
17554TIP3    H274078   0.164   6.409   4.165  1.1214  1.0010 -0.8586
17555TIP3   OH274079   3.480   1.947  15.284  0.1003 -0.0971 -0.1686
17555TIP3    H174080   3.455   1.863  15.247 -0.1719 -0.8889  1.7769
17555TIP3    H274081   3.572   1.958  15.259 -0.0229 -0.7190 -0.8953
17556TIP3   OH274082   6.011   2.020   3.031  0.4443  0.0732 -0.7126
17556TIP3    H174083   5.988   1.929   3.048 -0.2073  0.3617  0.0007
17556TIP3    H274084   6.104   2.018   3.008  1.0433 -0.4997  1.6357
17557TIP3   OH274085   3.350   5.525  16.557 -0.4620  0.5996 -0.2106
17557TIP3    H174086   3.432   5.495  16.597 -0.7117 -0.2552 -0.3285
17557TIP3    H274087   3.291   5.450  16.564 -0.9131  0.8686 -1.0581
17558TIP3   OH274088   0.079   1.609  15.836 -0.0221  0.6072  0.2463
17558TIP3    H174089   0.011   1.632  15.898  0.8917  0.9452  1.1395
17558TIP3    H274090   0.055   1.654  15.755 -1.3231  0.0008  0.2879
17559TIP3   OH274091   1.929   6.658  14.586 -0.1150 -0.1976 -0.7921
17559TIP3    H174092   1.956   6.607  14.662  2.5266  1.5790 -0.4741
17559TIP3    H274093   1.842   6.691  14.610  0.4399 -0.1364  1.2614
17560TIP3   OH274094   5.012   2.181   2.722 -0.2162 -0.1214  0.0129
17560TIP3    H174095   4.929   2.157   2.680 -0.6151  0.3619  0.5000
17560TIP3    H274096   4.999   2.273   2.748  0.2992 -0.1882  0.5122
17561TIP3   OH274097   5.263   1.928   1.546 -0.4013  0.2496 -0.1601
17561TIP3    H174098   5.252   1.859   1.611  0.1481  0.8060  0.5241
17561TIP3    H274099   5.323   1.990   1.586 -0.6526  0.9805 -0.8931
17562TIP3   OH274100   2.307   3.536  12.953  0.1912 -0.1372 -0.2313
17562TIP3    H174101   2.233   3.476  12.952  0.7988 -0.8938 -1.0480
17562TIP3    H274102   2.359   3.508  13.029 -1.0786  1.3130  1.2036
17563TIP3   OH274103   1.363   0.626   2.711 -0.0747  0.0705  0.0800
17563TIP3    H174104   1.339   0.711   2.674 -1.4529  0.2796  1.3925
17563TIP3    H274105   1.322   0.562   2.652 -1.7537  0.3887  0.8741
17564TIP3   OH274106   6.180   0.434  10.707 -0.0848 -0.4268  0.0699
17564TIP3    H174107   6.219   0.508  10.660 -2.2420 -0.3995 -1.7657
17564TIP3    H274108   6.089   0.460  10.720 -0.3339 -1.8830  1.3066
17565TIP3   OH274109   6.681   6.113   5.609 -0.1119 -0.4881  0.2117
17565TIP3    H174110   6.635   6.188   5.647  0.8147  0.6255 -0.8467
17565TIP3    H274111   6.643   6.037   5.654 -1.6165  0.5418  0.7306
17566TIP3   OH274112   0.935   3.078  17.137  0.2071  0.4789 -0.3064
17566TIP3    H174113   0.856   3.080  17.192 -1.2957 -2.5999 -2.1631
17566TIP3    H274114   1.005   3.053  17.198 -0.8370  0.2269  0.8276
17567TIP3   OH274115   0.149   6.149  10.983 -0.2621 -0.4258 -0.0483
17567TIP3    H174116   0.106   6.214  10.926 -0.0645 -0.5863 -0.3823
17567TIP3    H274117   0.240   6.180  10.989 -0.5741  0.2801  1.1916
17568TIP3   OH274118   5.022   0.845  14.102 -0.3110 -0.0414  0.1197
17568TIP3    H174119   4.991   0.774  14.158  1.0915  0.6412  1.7921
17568TIP3    H274120   5.071   0.903  14.160 -0.2710  1.5962 -1.4810
17569TIP3   OH274121   5.439   0.105  10.998  0.6405  0.2384  0.0987
17569TIP3    H174122   5.400   0.145  11.076  0.6508 -0.0395  0.2483
17569TIP3    H274123   5.423   0.168  10.928 -1.6399 -0.6433 -0.2185
17570TIP3   OH274124   0.818   3.131  15.036  0.3745 -0.0451  0.3114
17570TIP3    H174125   0.884   3.187  15.076 -0.3878  2.9058 -2.3624
17570TIP3    H274126   0.867   3.071  14.980  0.9823 -0.1715  0.9715
17571TIP3   OH274127   1.377   6.657  12.960 -0.5242 -0.3253  0.3304
17571TIP3    H174128   1.297   6.624  12.918 -0.4682  1.0051 -0.8641
17571TIP3    H274129   1.420   6.579  12.994 -1.2100 -1.3104 -1.0203
17572TIP3   OH274130   1.246   1.162   4.695  0.3176  0.4308  0.2630
17572TIP3    H174131   1.224   1.248   4.729 -2.9601 -0.2937  0.1293
17572TIP3    H274132   1.327   1.137   4.741  0.6649  3.0451  1.1343
17573TIP3   OH274133   2.803   4.968   4.844 -0.0139  0.0070  0.1537
17573TIP3    H174134   2.813   5.034   4.913 -1.4117  1.2423 -0.7893
17573TIP3    H274135   2.891   4.956   4.810  0.1247  2.1183 -0.2992
17574TIP3   OH274136   4.761   0.791  15.182  0.2267 -0.1101  0.3349
17574TIP3    H174137   4.822   0.767  15.112  0.7623  0.0267  0.7473
17574TIP3    H274138   4.677   0.755  15.154  0.2165  0.8509 -0.8603
17575TIP3   OH274139   1.932   2.628  11.350 -0.2723  0.2623  0.4048
17575TIP3    H174140   1.886   2.545  11.367 -0.5554  0.1866 -0.6755
17575TIP3    H274141   1.863   2.694  11.355 -1.1147 -0.1499 -4.0799
17576TIP3   OH274142   0.874   4.395   5.440 -0.4920  0.3901 -0.0346
17576TIP3    H174143   0.877   4.439   5.355 -0.9472  0.7241  0.1241
17576TIP3    H274144   0.896   4.303   5.420  0.0417  0.5950 -0.4188
17577TIP3   OH274145   5.195   0.378   4.722  0.5634 -0.2372  0.6306
17577TIP3    H174146   5.290   0.372   4.706  1.0645  0.9740  2.9818
17577TIP3    H274147   5.170   0.292   4.755  0.5182 -1.0630 -1.4762
17578TIP3   OH274148   3.093   3.015  15.404  0.0658 -0.2234 -0.5160
17578TIP3    H174149   3.056   2.971  15.328  0.0489  1.8046 -1.7044
17578TIP3    H274150   3.052   3.102  15.404  0.7918  0.1409  1.2453
17579TIP3   OH274151   2.544   2.050   2.858 -0.3748 -0.1592  0.0110
17579TIP3    H174152   2.625   2.080   2.816 -0.6394  3.0654  1.6550
17579TIP3    H274153   2.475   2.073   2.796 -0.3296  0.1325  0.0687
17580TIP3   OH274154   6.733   2.110   1.140 -0.6236 -0.0455  0.1106
17580TIP3    H174155   6.662   2.050   1.117 -2.1528  0.9258  2.1005
17580TIP3    H274156   6.719   2.186   1.083  0.0130 -0.6397 -0.8651
17581TIP3   OH274157   2.487   1.821  14.514  0.3871 -0.0888  0.3865
17581TIP3    H174158   2.420   1.831  14.582  1.2962  0.2618  1.2500
17581TIP3    H274159   2.538   1.902  14.520  0.5326 -0.1032 -0.6523
17582TIP3   OH274160   0.776   5.904   0.353 -0.1859 -0.2995 -0.2146
17582TIP3    H174161   0.752   5.966   0.422  0.7637 -0.0695 -0.0821
17582TIP3    H274162   0.785   5.820   0.398 -0.7931 -0.4006 -0.2755
17583TIP3   OH274163   5.510   6.755   2.279  0.2918 -0.1859  0.5670
17583TIP3    H174164   5.527   6.834   2.331 -0.9421 -1.2166  2.5905
17583TIP3    H274165   5.435   6.779   2.224  0.9479  0.5594 -0.0281
17584TIP3   OH274166   5.600   4.963   4.983 -0.6907 -0.2477 -0.1538
17584TIP3    H174167   5.681   5.006   5.010 -1.1294 -0.2425  1.1854
17584TIP3    H274168   5.580   5.002   4.898  0.2752  0.3409 -0.1258
17585TIP3   OH274169   6.324   1.669  15.098 -0.3706 -0.1853  0.2830
17585TIP3    H174170   6.375   1.604  15.049 -0.5591 -0.7540  0.8245
17585TIP3    H274171   6.245   1.683  15.046 -0.3123 -0.3627  0.1448
17586TIP3   OH274172   5.017   1.242  16.580 -0.0014  0.2142  0.5261
17586TIP3    H174173   4.997   1.244  16.486 -0.6875 -0.8064  0.6510
17586TIP3    H274174   4.959   1.308  16.618 -2.3007 -1.8607  0.7069
17587TIP3   OH274175   3.021   4.532   0.414  0.3728 -0.5387 -0.5641
17587TIP3    H174176   3.035   4.444   0.380 -1.5638 -0.6183 -1.2396
17587TIP3    H274177   3.052   4.590   0.344  1.7395 -0.6780 -0.0788
17588TIP3   OH274178   2.180   4.820   1.173  0.1642  0.0322 -0.1348
17588TIP3    H174179   2.217   4.893   1.223  1.4813  0.1932 -1.3156
17588TIP3    H274180   2.172   4.749   1.237  2.2487  0.1040  0.2273
17589TIP3   OH274181   4.396   4.373   2.183 -0.5633  0.4207 -0.7453
17589TIP3    H174182   4.371   4.436   2.115 -1.4962  0.0836 -0.7180
17589TIP3    H274183   4.456   4.421   2.240 -3.0588  2.0059  0.6069
17590TIP3   OH274184   2.377   4.622  16.999  0.7406 -0.4325  0.0204
17590TIP3    H174185   2.454   4.603  16.945  0.6832  1.1633 -0.6655
17590TIP3    H274186   2.319   4.548  16.986  1.2797 -0.6688 -1.1276
17591TIP3   OH274187   6.229   0.127  13.582  0.5295 -0.1411 -0.1540
17591TIP3    H174188   6.296   0.082  13.634  0.7740 -0.5082 -0.7879
17591TIP3    H274189   6.148   0.113  13.631  0.7031 -0.7853 -0.0436
17592TIP3   OH274190   5.020   2.949   2.932 -0.4666  0.7542 -0.5743
17592TIP3    H174191   5.024   3.036   2.971 -0.7098  0.3881  0.2846
17592TIP3    H274192   4.933   2.944   2.891 -0.5923  0.7890 -0.3128
17593TIP3   OH274193   2.607   4.569  15.956 -0.2514  0.5550  0.5269
17593TIP3    H174194   2.553   4.626  15.901 -1.2319 -0.4677  0.4298
17593TIP3    H274195   2.632   4.496  15.899  2.1962  1.5642  0.2293
17594TIP3   OH274196   0.736   2.414  15.748  0.0853  0.0913  0.1921
17594TIP3    H174197   0.689   2.399  15.830  2.1477 -0.7938  1.2604
17594TIP3    H274198   0.823   2.376  15.763  0.5600  0.0843 -2.3456
17595TIP3   OH274199   4.462   4.456   6.110 -0.1278  0.2685 -0.0465
17595TIP3    H174200   4.471   4.376   6.058 -0.0665 -1.3684  2.4213
17595TIP3    H274201   4.368   4.463   6.127 -0.1114  0.6373 -0.1028
17596TIP3   OH274202   4.809   0.091   6.123  0.0363  0.2147 -0.3325
17596TIP3    H174203   4.774   0.131   6.043 -0.7451 -0.3770 -0.2875
17596TIP3    H274204   4.732   0.070   6.176  0.5737  1.0458  0.7991
17597TIP3   OH274205   4.675   2.470   6.274  0.2029  1.1107  0.1242
17597TIP3    H174206   4.769   2.453   6.275  0.2583  1.3707 -0.4792
17597TIP3    H274207   4.657   2.511   6.359  0.6377  1.0725  0.2320
17598TIP3   OH274208   6.054   3.425   5.492 -0.4853 -0.3475 -0.2086
17598TIP3    H174209   6.145   3.442   5.467  0.1299  0.3160  2.2695
17598TIP3    H274210   6.017   3.511   5.509 -0.9916 -0.7124  0.6090
17599TIP3   OH274211   0.757   6.023  10.659  0.4882  0.4587  0.0781
17599TIP3    H174212   0.727   5.935  10.638  0.1049  0.4860  0.5048
17599TIP3    H274213   0.831   6.038  10.600  0.4218 -0.0678 -0.1395
17600TIP3   OH274214   4.065   0.151  14.667  0.4812  0.7171 -0.1158
17600TIP3    H174215   4.081   0.244  14.680 -2.8356  0.9993  2.5797
17600TIP3    H274216   4.000   0.128  14.733 -0.6389 -2.9622 -2.3408
17601TIP3   OH274217   0.761   1.166  15.441  0.2041  0.2351 -0.5535
17601TIP3    H174218   0.700   1.107  15.397  0.5217  0.1982 -0.9468
17601TIP3    H274219   0.846   1.122  15.437  0.3994  0.6125 -0.6477
17602TIP3   OH274220   4.983   5.310  12.718 -0.1627 -0.1813 -0.0940
17602TIP3    H174221   5.054   5.247  12.723 -0.3080 -0.3181  0.3478
17602TIP3    H274222   4.905   5.260  12.745 -0.0063  0.5927  1.9012
17603TIP3   OH274223   0.904   3.882   0.920  0.0559  0.4415 -0.0993
17603TIP3    H174224   0.945   3.825   0.856 -0.8134 -0.1484 -0.1421
17603TIP3    H274225   0.958   3.961   0.920 -0.1687  0.6138 -1.8476
17604TIP3   OH274226   0.476   2.128   4.421 -0.2603  0.4468 -0.4587
17604TIP3    H174227   0.414   2.107   4.350 -0.4250 -0.0490 -0.1679
17604TIP3    H274228   0.514   2.044   4.445  0.3104  0.7142 -0.4303
17605TIP3   OH274229   1.355   3.554  15.340  0.6464  0.2255 -0.6908
17605TIP3    H174230   1.277   3.519  15.298 -0.7865  0.4159  1.7039
17605TIP3    H274231   1.395   3.479  15.383 -0.2837  0.7722  1.1800
17606TIP3   OH274232   2.024   4.099  14.816 -0.3193 -0.1364 -0.4009
17606TIP3    H174233   2.038   4.193  14.811  0.4673 -0.2781 -0.9169
17606TIP3    H274234   2.080   4.069  14.887  0.2921 -0.3792 -0.9844
17607TIP3   OH274235   4.453   3.929   1.427 -0.0689  0.1048  0.0150
17607TIP3    H174236   4.504   4.008   1.416 -0.7956  0.5335 -0.3204
17607TIP3    H274237   4.508   3.859   1.393  0.0497  0.6439 -0.9034
17608TIP3   OH274238   3.029   5.994   5.992 -0.1561 -0.4334  0.2640
17608TIP3    H174239   3.007   5.901   5.992 -1.8188 -0.0640  0.4728
17608TIP3    H274240   3.068   6.010   5.906 -0.0873 -1.2661  0.1369
17609TIP3   OH274241   4.734   4.143   0.931  0.1833 -0.3632 -0.4839
17609TIP3    H174242   4.663   4.101   0.884 -0.8781 -0.2270  0.9604
17609TIP3    H274243   4.809   4.085   0.920 -0.7403 -1.6220 -0.1650
17610TIP3   OH274244   4.635   3.963   4.360  0.0269 -0.3982  0.0904
17610TIP3    H174245   4.713   3.941   4.410  0.6022 -1.7829 -1.3820
17610TIP3    H274246   4.577   3.888   4.372 -0.7611  0.2597  0.4980
17611TIP3   OH274247   4.115   5.468   5.409 -0.3956 -0.2092  0.5533
17611TIP3    H174248   4.032   5.479   5.455  0.2752  0.6047  1.5764
17611TIP3    H274249   4.091   5.420   5.329 -2.0549  1.1742  0.1785
17612TIP3   OH274250   3.978   2.424   3.722 -0.5241 -0.4319 -0.6810
17612TIP3    H174251   3.916   2.352   3.733  0.6894 -1.5453 -0.9303
17612TIP3    H274252   4.025   2.430   3.805 -1.8212  1.2600 -0.0396
17613TIP3   OH274253   2.612   1.883   4.457 -0.0239 -0.2840  0.3371
17613TIP3    H174254   2.681   1.921   4.402 -0.9448  1.2343  0.1834
17613TIP3    H274255   2.640   1.793   4.472  2.3009  0.4705  0.7955
17614TIP3   OH274256   3.013   3.194  16.091  0.2708  0.2363 -0.0596
17614TIP3    H174257   3.003   3.117  16.035 -3.1946 -1.4035  2.6026
17614TIP3    H274258   3.100   3.185  16.129  0.5600 -1.4817 -1.0784
17615TIP3   OH274259   4.201   4.425   2.425  0.4269 -0.3719  0.0755
17615TIP3    H174260   4.263   4.486   2.465 -0.4687 -0.2159  1.2530
17615TIP3    H274261   4.190   4.355   2.489  1.6105 -1.9191 -1.3495
17616TIP3   OH274262   3.769   3.789   2.583  0.3211 -0.1192 -0.0416
17616TIP3    H174263   3.831   3.716   2.584 -0.3077 -0.6563  0.0180
17616TIP3    H274264   3.808   3.852   2.522  0.1337 -1.1497 -1.2478
17617TIP3   OH274265   4.562   3.464  14.652 -0.7544  0.3618  0.0976
17617TIP3    H174266   4.512   3.546  14.659  0.8289  1.3716 -0.1030
17617TIP3    H274267   4.512   3.412  14.589 -1.6618  1.2700  0.0378
17618TIP3   OH274268   4.532   6.047  15.437  0.2196 -0.2656  0.6558
17618TIP3    H174269   4.502   6.090  15.517  1.8930 -2.0147  2.2637
17618TIP3    H274270   4.603   6.102  15.405 -0.5583  0.5232  0.2536
17619TIP3   OH274271   0.779   6.395  13.461  0.4127  0.3516  0.0211
17619TIP3    H174272   0.796   6.367  13.551  0.7225 -0.5794 -0.3186
17619TIP3    H274273   0.690   6.429  13.463  0.3740  0.2271  0.6576
17620TIP3   OH274274   5.402   5.788   1.043 -0.1871 -0.3067 -0.2522
17620TIP3    H174275   5.481   5.793   0.989 -1.4002  0.2705 -2.0208
17620TIP3    H274276   5.345   5.856   1.008 -1.6678 -1.0533  0.6896
17621TIP3   OH274277   1.481   0.912   5.406  0.6384  0.3821  0.7512
17621TIP3    H174278   1.573   0.935   5.400  0.6095  0.2625 -0.2758
17621TIP3    H274279   1.455   0.890   5.316 -0.7646  1.8311  0.7775
17622TIP3   OH274280   0.985   4.127   3.114 -0.0840 -0.1327  0.3466
17622TIP3    H174281   0.971   4.072   3.036 -0.7573 -0.0711  0.4144
17622TIP3    H274282   1.013   4.211   3.080 -0.6991 -0.0035  0.1449
17623TIP3   OH274283   6.262   5.429  16.922 -0.3571  0.5235  0.5230
17623TIP3    H174284   6.170   5.432  16.947 -0.5822 -2.8617  0.4106
17623TIP3    H274285   6.280   5.335  16.911  1.3467  1.3812 -5.8762
17624TIP3   OH274286   1.939   5.272   4.792 -0.7505  0.2597  0.3983
17624TIP3    H174287   1.906   5.194   4.837 -2.9782  0.6578 -0.4573
17624TIP3    H274288   2.019   5.244   4.749 -0.1977 -0.9065  2.1385
17625TIP3   OH274289   1.791   2.007   5.260 -0.3708  0.6493 -0.6567
17625TIP3    H174290   1.767   2.095   5.288 -2.1387  0.0065 -0.0778
17625TIP3    H274291   1.721   1.980   5.201  0.2719 -0.2858 -1.0076
17626TIP3   OH274292   5.036   5.405   3.880  0.4329 -0.1126  0.4339
17626TIP3    H174293   4.997   5.320   3.902 -0.9547  0.0400 -1.3182
17626TIP3    H274294   5.125   5.383   3.851  0.2314 -0.9287  0.4227
17627TIP3   OH274295   5.874   3.369  16.607 -0.2864 -0.0586  0.7932
17627TIP3    H174296   5.805   3.313  16.571  1.2561 -1.0669 -0.6551
17627TIP3    H274297   5.955   3.325  16.582  0.8980  1.5822  1.7226
17628TIP3   OH274298   3.802   1.516   3.378 -0.1626 -0.4258 -0.0913
17628TIP3    H174299   3.713   1.486   3.393  0.5528 -2.6415 -0.0705
17628TIP3    H274300   3.850   1.489   3.456  0.6494  0.2653 -0.3356
17629TIP3   OH274301   3.198   6.583   0.094 -0.3447  0.3186 -0.0056
17629TIP3    H174302   3.165   6.557   0.180 -1.8881  0.2639 -0.6023
17629TIP3    H274303   3.160   6.519   0.034  1.5221 -0.2460 -0.6175
17630TIP3   OH274304   4.660   1.367  11.316 -0.0136 -0.8298 -0.2283
17630TIP3    H174305   4.565   1.360  11.307  0.1737 -0.7271 -2.4038
17630TIP3    H274306   4.673   1.452  11.358 -0.9258 -1.3686  1.1954
17631TIP3   OH274307   0.300   2.065   6.356  0.0172 -0.2023  0.0731
17631TIP3    H174308   0.259   2.151   6.350  0.0374 -0.2083 -0.1659
17631TIP3    H274309   0.392   2.081   6.338  0.3461 -0.0055  1.8390
17632TIP3   OH274310   6.584   5.546   0.907 -0.2027  0.2192  0.2854
17632TIP3    H174311   6.660   5.576   0.956  1.3048 -1.5137 -0.9045
17632TIP3    H274312   6.509   5.569   0.962  1.1084  2.7340  1.0704
17633TIP3   OH274313   4.018   5.020   4.619 -0.5049  0.2249 -0.3497
17633TIP3    H174314   4.080   4.996   4.687 -0.3359 -2.3097 -1.3529
17633TIP3    H274315   4.059   4.991   4.538 -1.2279  2.1445 -1.4454
17634TIP3   OH274316   1.132   6.328   0.852 -0.0122  0.2798  0.2985
17634TIP3    H174317   1.185   6.325   0.932 -0.3027  2.3419  0.6054
17634TIP3    H274318   1.105   6.419   0.845 -3.5748 -0.7376  0.1609
17635TIP3   OH274319   3.363   6.465   2.602 -0.0624 -0.8244 -0.2371
17635TIP3    H174320   3.269   6.470   2.621  0.2463  1.4555  0.7613
17635TIP3    H274321   3.404   6.462   2.689  0.9285  1.2528 -0.6204
17636TIP3   OH274322   0.230   5.670  12.477  0.1019 -0.6424  0.1133
17636TIP3    H174323   0.190   5.584  12.490  1.2885 -0.9801  1.7309
17636TIP3    H274324   0.287   5.682  12.553  0.5766  1.2307 -0.4966
17637TIP3   OH274325   0.605   5.526   1.376  0.2568  0.1625  0.0748
17637TIP3    H174326   0.675   5.590   1.390  0.3148 -0.0688  0.8860
17637TIP3    H274327   0.525   5.571   1.407  0.2709 -0.0835  0.4754
17638TIP3   OH274328   0.830   6.617  14.958  0.3011 -0.9556 -0.5549
17638TIP3    H174329   0.841   6.566  15.038 -0.7451  1.3663  1.1460
17638TIP3    H274330   0.917   6.617  14.917  1.2031 -0.9886  1.3204
17639TIP3   OH274331   2.222   0.807  15.999 -0.4398  0.0092  0.1472
17639TIP3    H174332   2.223   0.763  15.914  1.7782 -1.5644  0.9475
17639TIP3    H274333   2.236   0.899  15.979 -1.1074 -0.1889 -1.2665
17640TIP3   OH274334   4.370   3.381   2.461  0.0942 -0.3112 -0.1443
17640TIP3    H174335   4.293   3.374   2.517 -0.4347 -0.0253 -0.8327
17640TIP3    H274336   4.335   3.396   2.373  0.9373  0.0890 -0.4182
17641TIP3   OH274337   6.584   2.209  13.469 -0.0790 -0.6143 -0.1317
17641TIP3    H174338   6.629   2.246  13.545 -1.1347  1.1599 -0.3434
17641TIP3    H274339   6.495   2.245  13.474 -0.6273 -1.7643 -1.3201
17642TIP3   OH274340   0.213   4.486  11.627 -0.3782 -0.2507  0.1116
17642TIP3    H174341   0.136   4.483  11.684 -0.8121  2.3324 -0.2995
17642TIP3    H274342   0.176   4.482  11.538  0.1047 -0.9792 -0.0644
17643TIP3   OH274343   0.019   4.720  11.908  0.0938 -0.1766  0.4660
17643TIP3    H174344  -0.002   4.633  11.874 -1.5848  0.5178 -0.3578
17643TIP3    H274345   0.110   4.715  11.936  0.7519 -1.4850 -1.8711
17644TIP3   OH274346   4.170   1.154  14.329 -0.1884  0.0192 -0.1286
17644TIP3    H174347   4.141   1.108  14.250 -0.0393 -1.7345  0.8216
17644TIP3    H274348   4.089   1.183  14.371 -0.2752  0.7985 -0.8199
17645TIP3   OH274349   4.419   4.709  15.104  0.3677 -0.5029 -0.4480
17645TIP3    H174350   4.384   4.653  15.034  1.2923  0.2071 -1.5003
17645TIP3    H274351   4.412   4.798  15.069 -0.1397 -0.0452  0.8028
17646TIP3   OH274352   3.867   5.636   1.287  0.0109  0.3407 -0.1981
17646TIP3    H174353   3.825   5.716   1.319 -1.9991 -0.9600  0.5146
17646TIP3    H274354   3.821   5.566   1.332  4.0889 -1.1251  1.9184
17647TIP3   OH274355   3.081   2.717   0.534  0.2087 -0.2204 -0.1742
17647TIP3    H174356   3.174   2.720   0.509 -0.2453 -0.0924 -1.9262
17647TIP3    H274357   3.065   2.801   0.576  0.6563  0.1822 -0.7872
17648TIP3   OH274358   6.371   4.251  15.708 -0.2155 -0.0665 -0.4076
17648TIP3    H174359   6.399   4.192  15.778  1.5623  0.7248 -0.4387
17648TIP3    H274360   6.452   4.283  15.669 -1.1859  0.3334 -2.1448
17649TIP3   OH274361   5.751   1.522  11.623 -0.1193  0.2627 -0.4711
17649TIP3    H174362   5.801   1.491  11.547  3.2439  0.0366  1.7759
17649TIP3    H274363   5.745   1.445  11.680 -0.2167  1.1742  0.7497
17650TIP3   OH274364   5.210   4.112  16.557  0.4997 -0.1462  0.0956
17650TIP3    H174365   5.214   4.180  16.623  0.2203  0.2143 -0.2573
17650TIP3    H274366   5.251   4.036  16.598  0.4215  0.1055  0.6436
17651TIP3   OH274367   5.058   0.539  13.952 -0.5956 -0.3118 -0.0770
17651TIP3    H174368   4.972   0.579  13.967 -0.5280  0.0787 -0.7394
17651TIP3    H274369   5.109   0.606  13.906  0.8474  0.3378  2.3724
17652TIP3   OH274370   3.496   5.801   4.633  0.1534  0.2473  0.7374
17652TIP3    H174371   3.564   5.844   4.580  0.3787  0.0792  0.8884
17652TIP3    H274372   3.438   5.871   4.660 -0.8101  0.1488 -0.9779
17653TIP3   OH274373   4.827   4.760  16.864  0.1593 -0.4924  0.6952
17653TIP3    H174374   4.801   4.679  16.821 -0.7761 -0.5528  1.3505
17653TIP3    H274375   4.881   4.732  16.938  1.8684 -0.3824 -0.5004
17654TIP3   OH274376   4.171   2.976  15.148  0.5171 -0.4238 -0.0910
17654TIP3    H174377   4.189   3.024  15.067 -0.3856  0.2315  0.0948
17654TIP3    H274378   4.121   3.038  15.202 -0.3553 -1.4531  0.2912
17655TIP3   OH274379   2.538   0.684   2.064  0.0620 -0.1757 -0.2364
17655TIP3    H174380   2.627   0.686   2.099  0.3175 -0.9213 -0.8455
17655TIP3    H274381   2.526   0.770   2.024  0.2424  0.1908  0.4780
17656TIP3   OH274382   6.510   5.941   0.916  0.3669 -0.0791  0.0385
17656TIP3    H174383   6.558   6.023   0.915  2.4317 -1.2604 -1.5972
17656TIP3    H274384   6.550   5.890   0.986  0.1367 -0.2991  0.0105
17657TIP3   OH274385   0.470   3.888   3.505 -1.0761  0.3434  0.1135
17657TIP3    H174386   0.447   3.976   3.477 -0.6545  1.4520  3.0521
17657TIP3    H274387   0.546   3.864   3.451 -0.8802  1.9718 -0.3592
17658TIP3   OH274388   1.630   1.276   0.296 -0.5048  0.0818  0.0086
17658TIP3    H174389   1.607   1.285   0.389 -1.3351  2.8715 -0.4160
17658TIP3    H274390   1.617   1.184   0.277 -3.1608  0.0037  1.9624
17659TIP3   OH274391   2.434   2.980   3.780  0.3201 -0.4668 -0.3710
17659TIP3    H174392   2.431   3.021   3.867 -1.3471  0.0468 -0.6644
17659TIP3    H274393   2.461   2.890   3.797  2.5273  0.3047  0.4293
17660TIP3   OH274394   5.829   2.997  14.073  0.3009 -0.1166 -0.4071
17660TIP3    H174395   5.814   2.977  14.166 -2.1527 -2.1413 -1.1708
17660TIP3    H274396   5.752   3.047  14.047 -0.6433 -2.3552 -2.1001
17661TIP3   OH274397   6.226   1.833  13.034  0.1070  0.2219  0.2341
17661TIP3    H174398   6.171   1.896  13.080  0.7705  1.2456 -0.3735
17661TIP3    H274399   6.201   1.842  12.942  0.1402 -0.4755  0.1516
17662TIP3   OH274400   6.343   5.547  13.481  0.4960 -0.0374  0.3395
17662TIP3    H174401   6.316   5.504  13.400  2.5132 -1.2059  0.2488
17662TIP3    H274402   6.410   5.610  13.453  2.3670 -1.5677  1.2382
17663TIP3   OH274403   5.541   6.716  12.000 -0.3130 -0.1138 -0.6992
17663TIP3    H174404   5.578   6.675  11.923 -1.9948 -0.3562 -1.3950
17663TIP3    H274405   5.506   6.644  12.052 -4.5690  0.4181 -2.6103
17664TIP3   OH274406   2.198   4.575  12.241 -0.2248 -0.7708  0.3815
17664TIP3    H174407   2.114   4.529  12.234  0.5753 -2.0751 -1.0092
17664TIP3    H274408   2.261   4.505  12.261  0.9939 -0.2735 -1.5840
17665TIP3   OH274409   0.840   1.361   3.529 -0.0237  0.2280 -0.1996
17665TIP3    H174410   0.860   1.380   3.621  2.3648 -0.9555 -0.4136
17665TIP3    H274411   0.759   1.312   3.532 -0.5106  1.0734  1.1984
17666TIP3   OH274412   6.096   5.813   4.448  0.5589 -0.2703  0.4896
17666TIP3    H174413   6.145   5.786   4.371  2.0448  0.0783  1.2909
17666TIP3    H274414   6.079   5.906   4.435  1.1321 -0.1269  0.7389
17667TIP3   OH274415   5.957   1.243  13.425 -0.4513 -0.6243 -0.4737
17667TIP3    H174416   5.971   1.262  13.518 -0.5770 -0.5066 -0.4787
17667TIP3    H274417   5.969   1.148  13.418 -0.8309 -0.6863 -0.2690
17668TIP3   OH274418   2.465   2.911  12.391 -0.4226 -0.8587  0.3843
17668TIP3    H174419   2.478   2.995  12.346 -3.6184 -1.7048 -2.3387
17668TIP3    H274420   2.528   2.913  12.463  1.1591  2.9004 -0.9339
17669TIP3   OH274421   0.835   2.840   5.490 -0.4993  0.1983  0.3622
17669TIP3    H174422   0.791   2.763   5.453 -1.1589  0.5828  0.3268
17669TIP3    H274423   0.917   2.806   5.526  0.4287 -0.1040 -1.9561
17670TIP3   OH274424   5.270   5.963  16.948  0.2500 -0.2928  0.3946
17670TIP3    H174425   5.271   6.055  16.921 -0.6366 -0.7887 -1.4087
17670TIP3    H274426   5.362   5.936  16.944  0.3800  0.2147 -0.1157
17671TIP3   OH274427   6.163   0.662  11.860 -0.4404 -0.1175 -0.4318
17671TIP3    H174428   6.256   0.641  11.859 -1.0355 -2.9450 -0.1179
17671TIP3    H274429   6.133   0.643  11.771 -0.7741  0.6834 -0.5038
17672TIP3   OH274430   4.252   3.729  11.910  0.2460  0.3775 -0.1411
17672TIP3    H174431   4.199   3.656  11.880  1.6025  0.0050 -1.7511
17672TIP3    H274432   4.262   3.785  11.832 -0.1582  1.8881  0.8715
17673TIP3   OH274433   3.704   1.566   4.029 -0.0027 -0.1031  0.5634
17673TIP3    H174434   3.664   1.482   4.005 -0.6140  0.3712 -0.0840
17673TIP3    H274435   3.779   1.542   4.083  1.2930 -1.1817 -1.6555
17674TIP3   OH274436   0.770   2.016   5.935  0.2544  0.1309  0.5264
17674TIP3    H174437   0.764   1.954   5.863 -2.2386 -0.3025  1.0486
17674TIP3    H274438   0.810   1.966   6.006 -0.2968 -0.4204  0.4530
17675TIP3   OH274439   0.640   0.775   2.337  0.5110  0.5745 -0.4297
17675TIP3    H174440   0.574   0.805   2.273 -0.2344 -0.4230 -0.1427
17675TIP3    H274441   0.589   0.732   2.405  1.4765 -0.2211 -0.2065
17676TIP3   OH274442   5.251   4.753   2.217  0.5892  0.6035  0.1815
17676TIP3    H174443   5.339   4.789   2.206  0.4275  1.0062  0.1982
17676TIP3    H274444   5.222   4.732   2.129  0.4156  1.1584  0.1028
17677TIP3   OH274445   6.533   2.972   4.049 -0.2847 -0.6476 -0.0081
17677TIP3    H174446   6.565   3.039   4.110  0.0005 -0.2035 -0.6390
17677TIP3    H274447   6.611   2.924   4.023 -0.4971 -1.2575  0.4761
17678TIP3   OH274448   3.712   5.158  13.252 -0.4249  0.3889  0.3229
17678TIP3    H174449   3.799   5.185  13.224 -0.1386 -0.0461  0.7937
17678TIP3    H274450   3.653   5.223  13.212  0.0415  0.2412 -0.6267
17679TIP3   OH274451   0.098   5.556   3.002  0.2335 -0.5036 -0.2954
17679TIP3    H174452   0.034   5.502   3.048  0.5810 -1.1083 -0.5229
17679TIP3    H274453   0.088   5.643   3.042 -0.2443 -0.7560  0.1493
17680TIP3   OH274454   5.395   5.995  11.682 -0.4487 -0.1114  0.4796
17680TIP3    H174455   5.430   5.909  11.657  2.4735  0.9644  0.6184
17680TIP3    H274456   5.380   6.040  11.599  1.1392  0.3962  0.4536
17681TIP3   OH274457   3.537   0.311  13.652  0.3095 -0.0944 -0.4182
17681TIP3    H174458   3.544   0.248  13.581 -1.4057  0.2857 -0.9589
17681TIP3    H274459   3.521   0.258  13.730  1.8400 -0.4906 -0.3545
17682TIP3   OH274460   5.962   3.128  10.851 -0.7618  0.2693 -0.0447
17682TIP3    H174461   5.959   3.035  10.829 -1.1096  0.5706 -1.3023
17682TIP3    H274462   6.036   3.136  10.911 -0.7153 -0.8131  0.0520
17683TIP3   OH274463   2.388   0.144  16.388 -0.2051 -0.0743  0.3329
17683TIP3    H174464   2.439   0.076  16.344  1.0530 -0.2655  2.0586
17683TIP3    H274465   2.331   0.179  16.319  0.8058 -1.2458 -1.1327
17684TIP3   OH274466   0.197   6.332   0.765 -0.1392  0.4550  0.0518
17684TIP3    H174467   0.124   6.273   0.745 -0.9847  1.6115 -0.3240
17684TIP3    H274468   0.238   6.348   0.680 -0.3853  1.0327  0.0450
17685TIP3   OH274469   5.844   0.999  14.988  0.7179  0.9091 -0.0129
17685TIP3    H174470   5.914   0.970  14.929 -0.3042  0.9941 -1.2720
17685TIP3    H274471   5.785   1.050  14.933 -0.8539  0.0274  0.8316
17686TIP3   OH274472   4.618   5.809   1.444 -0.1549 -0.1863  0.0143
17686TIP3    H174473   4.530   5.773   1.456  0.0374 -0.3672  0.9744
17686TIP3    H274474   4.673   5.732   1.427 -0.1542 -0.0924 -0.4070
17687TIP3   OH274475   4.670   3.919   6.157  0.2080  0.1564  0.1606
17687TIP3    H174476   4.756   3.879   6.168  1.9443  3.7716  0.4217
17687TIP3    H274477   4.640   3.936   6.247 -1.1702 -1.8177  0.0987
17688TIP3   OH274478   3.447   5.809  13.916  0.4940 -0.6025 -0.1911
17688TIP3    H174479   3.384   5.881  13.922  0.6458 -0.5941  1.5891
17688TIP3    H274480   3.406   5.737  13.964  1.5510 -0.8064  0.4147
17689TIP3   OH274481   1.582   1.781  12.868 -0.8001 -0.2002 -0.7718
17689TIP3    H174482   1.552   1.865  12.832  1.5215  0.4985 -1.1798
17689TIP3    H274483   1.540   1.775  12.954 -0.8871  1.4587 -0.6852
17690TIP3   OH274484   4.208   3.184  16.795  0.0561  0.2801  0.5110
17690TIP3    H174485   4.242   3.265  16.833 -0.2112  0.4010  0.4944
17690TIP3    H274486   4.243   3.115  16.852  0.8679  0.3493  0.1001
17691TIP3   OH274487   2.301   2.404  15.200  0.4462 -0.0397 -0.3083
17691TIP3    H174488   2.339   2.438  15.282  2.0266 -0.6132 -0.7732
17691TIP3    H274489   2.279   2.482  15.150 -0.2481  0.3164  0.5376
17692TIP3   OH274490   2.755   6.242   3.552  0.3006  0.2670  0.5518
17692TIP3    H174491   2.735   6.250   3.459  0.1804 -1.0444  0.4666
17692TIP3    H274492   2.671   6.255   3.596  0.8488  4.0646  0.6727
17693TIP3   OH274493   0.222   2.365  13.255 -0.0473 -0.7619 -0.4522
17693TIP3    H174494   0.306   2.319  13.261  0.2918 -0.2560 -1.2018
17693TIP3    H274495   0.174   2.338  13.333  1.4824  0.2624  0.8601
17694TIP3   OH274496   2.762   3.761  16.407  0.0700 -0.4639  0.5496
17694TIP3    H174497   2.854   3.737  16.424  0.7761  1.4223 -0.4783
17694TIP3    H274498   2.727   3.687  16.357  1.0308 -1.2121  0.9700
17695TIP3   OH274499   0.669   4.090  15.318 -0.1321 -1.0372  0.0896
17695TIP3    H174500   0.607   4.097  15.391 -1.0080 -1.6658 -0.5852
17695TIP3    H274501   0.732   4.161  15.333 -1.6977  0.3618  0.1412
17696TIP3   OH274502   3.815   2.696   1.866  0.5242 -0.2240  0.5308
17696TIP3    H174503   3.882   2.628   1.869  1.1430  0.2748 -1.3714
17696TIP3    H274504   3.864   2.777   1.850 -0.3324  0.4702  1.3484
17697TIP3   OH274505   4.080   3.314  13.434 -0.5162 -0.2215 -0.6190
17697TIP3    H174506   4.067   3.374  13.361 -2.1983  0.1421 -0.0538
17697TIP3    H274507   4.053   3.364  13.511  1.3999 -0.5409  0.2908
17698TIP3   OH274508   2.015   0.250   2.366  0.4520 -0.2697  0.1009
17698TIP3    H174509   2.063   0.235   2.447  0.0914 -1.3540  0.1159
17698TIP3    H274510   1.949   0.181   2.363  1.1111 -0.8626 -1.6077
17699TIP3   OH274511   3.192   5.398  14.370 -0.1741  0.3966 -0.2139
17699TIP3    H174512   3.160   5.313  14.340 -0.4189 -0.0954  1.4134
17699TIP3    H274513   3.113   5.453  14.373 -0.3368  0.1277  0.5852
17700TIP3   OH274514   2.433   2.734  14.311 -0.0202  0.2236 -0.3932
17700TIP3    H174515   2.487   2.729  14.389  0.1662 -0.2335 -0.5528
17700TIP3    H274516   2.484   2.690  14.242 -1.1421 -1.3902 -0.2287
17701TIP3   OH274517   6.079   5.757   3.097 -0.0766 -0.4297  0.0437
17701TIP3    H174518   6.049   5.764   3.007 -0.1521 -0.2182  0.0854
17701TIP3    H274519   6.079   5.847   3.130 -2.4581 -0.7427  1.0366
17702TIP3   OH274520   6.323   1.243  13.560 -0.3670  0.1347 -0.2801
17702TIP3    H174521   6.278   1.304  13.502  0.2498  0.9788  0.1235
17702TIP3    H274522   6.409   1.281  13.573 -0.5373  0.0201  1.2996
17703TIP3   OH274523   1.765   3.303  10.695  0.2063 -0.5690 -0.0609
17703TIP3    H174524   1.776   3.310  10.600  0.0739 -2.0631 -0.2021
17703TIP3    H274525   1.782   3.210  10.714  1.0067 -0.1273  1.4720
17704TIP3   OH274526   3.126   6.336   4.298 -0.3144  0.3650 -0.0682
17704TIP3    H174527   3.084   6.370   4.377 -0.1906  1.3668 -0.4279
17704TIP3    H274528   3.144   6.244   4.318 -1.7275  0.2023  0.4656
17705TIP3   OH274529   4.852   4.437  15.932  0.3473 -0.0907 -0.1069
17705TIP3    H174530   4.869   4.348  15.903  0.9917 -0.1995  0.5944
17705TIP3    H274531   4.784   4.428  15.999 -0.1346  0.0225 -0.5788
17706TIP3   OH274532   5.471   4.742  12.006 -0.0084 -0.0475 -0.1024
17706TIP3    H174533   5.435   4.815  11.954 -0.6098 -0.7778 -0.7342
17706TIP3    H274534   5.414   4.737  12.082 -0.7678 -0.6711 -0.6959
17707TIP3   OH274535   2.906   1.779   0.293  0.0225 -0.6273  0.0488
17707TIP3    H174536   2.991   1.818   0.274 -0.3737  1.0117  1.4970
17707TIP3    H274537   2.925   1.686   0.308  1.4741 -0.3685 -0.1084
17708TIP3   OH274538   4.359   5.518  13.960  0.1953 -0.3188  0.1629
17708TIP3    H174539   4.446   5.554  13.942  0.2690 -0.4350  0.2891
17708TIP3    H274540   4.300   5.575  13.911  0.3951 -0.6168 -0.4312
17709TIP3   OH274541   3.718   3.289   4.000 -0.1682  0.2186 -0.9318
17709TIP3    H174542   3.644   3.334   3.960 -0.4436  1.5539  0.9944
17709TIP3    H274543   3.681   3.245   4.077  0.9221  0.3617 -0.3172
17710TIP3   OH274544   1.195   4.833  17.133  0.3985  0.1285 -0.0147
17710TIP3    H174545   1.138   4.789  17.070  1.1427 -0.2796 -0.4054
17710TIP3    H274546   1.184   4.927  17.115 -2.1600  0.2097  1.6480
17711TIP3   OH274547   1.698   5.250   1.727 -0.2682 -0.7186  0.3686
17711TIP3    H174548   1.742   5.332   1.702  0.6115 -1.8804 -2.0469
17711TIP3    H274549   1.698   5.252   1.822  4.0461 -0.1086  0.4630
17712TIP3   OH274550   6.298   2.294   3.043  0.4848  0.2272  0.3898
17712TIP3    H174551   6.257   2.376   3.014 -0.9685  0.3271  2.6269
17712TIP3    H274552   6.390   2.304   3.017 -0.0401  1.7815 -0.9930
17713TIP3   OH274553   0.979   3.818  14.936  0.5700 -0.3672  0.2576
17713TIP3    H174554   1.006   3.809  15.027  0.4261  0.0897  0.3510
17713TIP3    H274555   0.883   3.823  14.940  0.5300 -0.9127  0.0316
17714TIP3   OH274556   3.856   6.455  13.533  0.2010 -0.2170  0.1806
17714TIP3    H174557   3.876   6.364  13.556 -1.6709 -0.8452 -0.5406
17714TIP3    H274558   3.783   6.478  13.591 -1.2434 -0.1545 -1.6361
17715TIP3   OH274559   1.836   4.203  15.034  0.2946 -0.6643 -0.2315
17715TIP3    H174560   1.800   4.275  14.982 -0.3911 -0.5429  0.3905
17715TIP3    H274561   1.928   4.224  15.045  0.1623 -0.0394 -0.3280
17716TIP3   OH274562   2.672   0.758  12.025 -0.6202 -0.0862 -0.0682
17716TIP3    H174563   2.765   0.764  12.044 -0.6978  1.8266 -0.1637
17716TIP3    H274564   2.665   0.775  11.931 -1.1213  0.5111  0.0688
17717TIP3   OH274565   2.074   5.147  16.414 -0.2645  0.5880  0.1301
17717TIP3    H174566   2.096   5.210  16.483  0.2123  0.4155  0.1360
17717TIP3    H274567   1.984   5.168  16.390 -0.1047  1.2712  0.1328
17718TIP3   OH274568   3.309   2.484   5.555  0.0082 -0.0319 -0.1575
17718TIP3    H174569   3.244   2.439   5.501 -2.3020  0.4668  2.1473
17718TIP3    H274570   3.309   2.574   5.523 -3.5808  1.0321  2.5519
17719TIP3   OH274571   0.833   0.758  12.182 -0.2167 -0.0848 -0.6280
17719TIP3    H174572   0.879   0.740  12.264  1.0906 -0.6818 -1.4655
17719TIP3    H274573   0.842   0.852  12.170 -0.6109  0.0418  0.0173
17720TIP3   OH274574   4.638   0.240   1.280  0.4626  0.0311  0.2417
17720TIP3    H174575   4.590   0.171   1.236  1.4184 -0.4919  0.0168
17720TIP3    H274576   4.638   0.214   1.372 -0.3148  0.4141  0.3617
17721TIP3   OH274577   5.878   4.016   1.359 -0.4021 -0.3470 -0.1921
17721TIP3    H174578   5.936   4.065   1.417  0.3476 -0.9610 -0.4102
17721TIP3    H274579   5.837   3.951   1.416  0.0446 -0.6990 -0.2658
17722TIP3   OH274580   3.512   2.564   5.000  0.1590 -0.2771  0.2368
17722TIP3    H174581   3.435   2.567   4.942  0.9758  1.9189 -0.7879
17722TIP3    H274582   3.487   2.617   5.076  0.5733  0.2521  0.0048
17723TIP3   OH274583   5.466   3.293   0.217 -0.0817 -0.3138 -0.4520
17723TIP3    H174584   5.441   3.222   0.158  0.9454 -0.6243 -0.5309
17723TIP3    H274585   5.463   3.371   0.163 -0.9685 -0.3250 -0.4305
17724TIP3   OH274586   3.029   1.981   6.907 -0.5739  0.7529 -0.3204
17724TIP3    H174587   3.042   2.048   6.974 -1.6176  0.1645  0.4809
17724TIP3    H274588   2.941   1.947   6.923 -0.1827 -0.5825 -0.9247
17725TIP3   OH274589   4.587   0.456   0.043 -0.3358 -0.4232 -0.2875
17725TIP3    H174590   4.544   0.542   0.038 -2.2664 -1.3932 -0.5492
17725TIP3    H274591   4.550   0.416   0.122  1.7757 -0.3913  0.7577
17726TIP3   OH274592   3.508   2.990  15.377  0.7098  0.4735 -0.0055
17726TIP3    H174593   3.431   2.942  15.347  1.3647 -0.2350 -0.5840
17726TIP3    H274594   3.577   2.924  15.379  1.7276  1.4740 -1.1970
17727TIP3   OH274595   6.323   2.058  15.715 -0.2013 -0.0458  0.1515
17727TIP3    H174596   6.247   2.105  15.682  0.6138  0.1858 -1.4116
17727TIP3    H274597   6.358   2.116  15.783 -1.5536 -0.2812  1.0888
17728TIP3   OH274598   0.253   4.141  16.064  0.3801  0.2746  0.4582
17728TIP3    H174599   0.291   4.099  15.987 -0.5019  1.5354 -0.7017
17728TIP3    H274600   0.180   4.084  16.089 -0.1825  0.5653 -0.4898
17729TIP3   OH274601   6.274   1.515   3.850 -0.3713  0.2028  0.1680
17729TIP3    H174602   6.350   1.483   3.800 -0.2212  0.2860  0.3399
17729TIP3    H274603   6.282   1.471   3.935 -0.6116  0.0798  0.1252
17730TIP3   OH274604   0.292   4.235  16.984  0.3772  0.2962 -0.4064
17730TIP3    H174605   0.359   4.234  17.052  0.0255  0.8134 -0.0503
17730TIP3    H274606   0.218   4.188  17.023 -0.4305  2.0297  0.2010
17731TIP3   OH274607   4.762   2.076  11.414  0.6566 -0.2493  0.2093
17731TIP3    H174608   4.780   2.153  11.466  0.1252 -0.1746  0.2862
17731TIP3    H274609   4.702   2.107  11.346 -1.4189 -1.0696  1.6090
17732TIP3   OH274610   0.421   1.054   4.817 -0.3911 -0.1776  0.0344
17732TIP3    H174611   0.358   1.101   4.871  0.0096  1.2702 -0.7179
17732TIP3    H274612   0.477   1.008   4.879  0.0141  1.3871  0.8403
17733TIP3   OH274613   6.733   0.686   0.461 -0.1180 -0.0917  0.0461
17733TIP3    H174614   6.661   0.739   0.428  0.4026  1.5816  1.4506
17733TIP3    H274615   6.706   0.661   0.549  1.0168  0.6074  0.6108
17734TIP3   OH274616   0.787   6.068  13.462 -0.1913 -0.3652 -0.4949
17734TIP3    H174617   0.757   6.004  13.398  1.6996 -1.5678 -0.2431
17734TIP3    H274618   0.850   6.122  13.414 -0.1881 -0.0616 -0.1497
17735TIP3   OH274619   0.024   6.678   0.990  0.1042  0.8462  0.4666
17735TIP3    H174620   0.108   6.685   0.945  1.4264 -1.1909  2.5018
17735TIP3    H274621  -0.028   6.750   0.955  2.1570  1.2214 -1.9483
17736TIP3   OH274622   3.081   0.716  15.966 -0.0410 -0.8828 -0.6278
17736TIP3    H174623   3.149   0.706  15.900  1.2844 -0.0176  0.5814
17736TIP3    H274624   3.075   0.810  15.983 -1.1273 -0.9936 -0.2947
17737TIP3   OH274625   5.472   1.567  11.812 -0.0526  0.5084  0.1030
17737TIP3    H174626   5.477   1.648  11.863  0.0803  0.8684 -0.4803
17737TIP3    H274627   5.491   1.498  11.876 -1.5756  0.8206  0.9289
17738TIP3   OH274628   0.012   3.377  15.282 -0.4324 -0.1121  0.3695
17738TIP3    H174629  -0.057   3.393  15.218  0.9026  0.1097 -1.0350
17738TIP3    H274630   0.007   3.452  15.341 -0.8039  0.3621 -0.2535
17739TIP3   OH274631   5.891   2.727  14.399  0.3329 -0.0970  0.1908
17739TIP3    H174632   5.975   2.771  14.409  0.4564 -0.4812  0.8134
17739TIP3    H274633   5.844   2.747  14.480 -0.9594  1.8181 -0.9810
17740TIP3   OH274634   2.765   5.353  14.590  0.1916  0.4315  0.3052
17740TIP3    H174635   2.781   5.309  14.674  0.8839  0.8418  0.3933
17740TIP3    H274636   2.803   5.293  14.525  0.4412  0.5299  0.3598
17741TIP3   OH274637   3.574   0.762  12.097 -0.2080 -0.0203  0.2117
17741TIP3    H174638   3.659   0.793  12.063 -0.7650  0.2296 -1.0008
17741TIP3    H274639   3.590   0.672  12.123  0.1997 -0.3073 -0.9710
17742TIP3   OH274640   5.379   1.918  15.507  0.2555  0.0685  0.5135
17742TIP3    H174641   5.466   1.938  15.540  1.4001 -1.6498 -1.3526
17742TIP3    H274642   5.394   1.877  15.421 -2.4314  1.0333 -0.4890
17743TIP3   OH274643   5.429   4.456  13.317 -0.2497 -0.3846  0.4637
17743TIP3    H174644   5.451   4.549  13.304  1.1843 -0.6553  0.8352
17743TIP3    H274645   5.335   4.451  13.302 -0.3563  1.1572  0.5341
17744TIP3   OH274646   5.767   6.419   0.230 -0.2970  0.7249 -0.2169
17744TIP3    H174647   5.851   6.462   0.249 -0.4703  0.6568  0.7349
17744TIP3    H274648   5.735   6.391   0.316 -1.5865  1.2894 -0.5041
17745TIP3   OH274649   2.611   0.476  17.103  0.5716  0.4175 -0.3872
17745TIP3    H174650   2.637   0.384  17.098 -0.4694  0.0814  0.4040
17745TIP3    H274651   2.683   0.519  17.149  0.1455 -0.3506  0.9998
17746TIP3   OH274652   2.527   1.312  12.023 -0.5576 -0.3547 -0.0093
17746TIP3    H174653   2.549   1.337  12.113  0.7941  1.0693 -0.6991
17746TIP3    H274654   2.555   1.221  12.016  0.6536 -0.0458  0.6092
17747TIP3   OH274655   0.241   3.186  17.044  0.1270  0.3516  0.1020
17747TIP3    H174656   0.192   3.128  16.985 -0.9966  0.7001  0.6829
17747TIP3    H274657   0.248   3.268  16.996  0.8162  0.0658 -0.2966
17748TIP3   OH274658   2.465   0.098   0.596  0.0619  0.5214  0.1772
17748TIP3    H174659   2.385   0.096   0.649  0.3432  0.9404  0.6178
17748TIP3    H274660   2.521   0.162   0.640 -0.5393  2.4958 -1.8405
17749TIP3   OH274661   6.717   2.903  11.668  0.2033  0.1556  0.4031
17749TIP3    H174662   6.693   2.896  11.760  0.4339 -1.0134  0.3811
17749TIP3    H274663   6.776   2.829  11.653  1.0778  1.0008 -0.4036
17750TIP3   OH274664   5.152   5.986   2.641 -0.2329  0.3986 -0.0771
17750TIP3    H174665   5.240   5.949   2.655  0.4025  2.0434  0.3324
17750TIP3    H274666   5.097   5.909   2.626  1.3875 -0.6203 -1.0017
17751TIP3   OH274667   5.464   1.176   3.671 -0.1397 -0.2434 -0.2789
17751TIP3    H174668   5.523   1.139   3.605 -0.4906 -0.7062 -0.3328
17751TIP3    H274669   5.495   1.266   3.683 -0.2039 -0.0895 -1.2288
17752TIP3   OH274670   4.733   5.532   4.016  0.2678 -0.0789 -0.7481
17752TIP3    H174671   4.730   5.625   4.039 -0.5795 -0.4304  0.6258
17752TIP3    H274672   4.665   5.522   3.950  0.9042  0.4302 -1.4825
17753TIP3   OH274673   2.467   4.233  13.346  0.0162 -0.2296 -0.2847
17753TIP3    H174674   2.506   4.147  13.327 -0.1694 -0.2192 -0.7064
17753TIP3    H274675   2.381   4.213  13.382  1.0060 -0.3078  2.1126
17754TIP3   OH274676   5.194   0.526   1.875  0.0682 -0.2881 -0.3392
17754TIP3    H174677   5.265   0.551   1.815  0.5762  0.1732  0.4405
17754TIP3    H274678   5.237   0.474   1.943 -0.3690 -0.1666  0.0324
17755TIP3   OH274679   4.840   0.351  16.787 -0.7626  0.3009  0.2481
17755TIP3    H174680   4.815   0.266  16.750  0.9618  0.1318 -0.5535
17755TIP3    H274681   4.842   0.335  16.882 -0.9999 -0.4119  0.1404
17756TIP3   OH274682   0.572   3.415   5.376  0.1345 -0.4434 -0.3420
17756TIP3    H174683   0.594   3.331   5.335  0.8898 -1.0230  1.1933
17756TIP3    H274684   0.557   3.393   5.468  0.1189  1.0725  0.0237
17757TIP3   OH274685   6.103   4.512  16.811 -0.2490  0.1072  0.1861
17757TIP3    H174686   6.014   4.538  16.791  0.0177  0.2431 -0.8265
17757TIP3    H274687   6.157   4.553  16.743  0.6209  0.2879  0.9599
17758TIP3   OH274688   3.220   1.246  14.934  0.8204  0.6872  0.2458
17758TIP3    H174689   3.223   1.169  14.990  0.7510  0.1838 -0.4389
17758TIP3    H274690   3.186   1.214  14.851  0.6799  1.4765 -0.0096
17759TIP3   OH274691   1.234   5.772   4.794 -0.0975  0.1921 -1.0131
17759TIP3    H174692   1.194   5.700   4.842 -0.2707 -0.6287 -2.3460
17759TIP3    H274693   1.277   5.825   4.861 -3.1028  0.9082  0.4379
17760TIP3   OH274694   2.806   2.630   4.940  0.0066  0.3557 -0.0045
17760TIP3    H174695   2.877   2.571   4.968  1.5077  1.5818 -1.1512
17760TIP3    H274696   2.769   2.663   5.022  0.7355 -0.3369  0.6105
17761TIP3   OH274697   4.196   6.246   3.359  0.3736 -0.1844 -0.3012
17761TIP3    H174698   4.186   6.336   3.327  2.0378  0.1144 -0.0027
17761TIP3    H274699   4.141   6.194   3.300  1.5769  0.6678 -2.2127
17762TIP3   OH274700   2.325   1.335  14.579  0.2173  0.1352  0.3089
17762TIP3    H174701   2.398   1.279  14.549 -0.5222 -0.0096 -1.2307
17762TIP3    H274702   2.340   1.419  14.535 -0.6724  0.0312 -0.1892
17763TIP3   OH274703   1.482   6.548  16.567  0.4191  0.1947  0.2712
17763TIP3    H174704   1.467   6.507  16.652  1.2873  1.9700  1.3173
17763TIP3    H274705   1.471   6.642  16.584  0.6253  0.5661 -1.5744
17764TIP3   OH274706   3.259   2.556   2.066  0.1719  0.0564 -0.3814
17764TIP3    H174707   3.347   2.590   2.082  0.5110 -0.8563 -0.2572
17764TIP3    H274708   3.204   2.601   2.131  1.0473 -1.4739  1.4804
17765TIP3   OH274709   1.148   0.481  10.575  0.3598 -0.4740  0.8965
17765TIP3    H174710   1.243   0.489  10.582  0.2847  0.8619  0.3998
17765TIP3    H274711   1.119   0.565  10.542 -0.8364 -1.4591 -0.6076
17766TIP3   OH274712   0.303   0.673  11.241 -0.5688  0.9803 -0.2297
17766TIP3    H174713   0.258   0.659  11.157 -1.1225 -0.6199  0.3043
17766TIP3    H274714   0.388   0.630  11.229 -1.3515 -0.8563  0.6201
17767TIP3   OH274715   5.792   2.068   1.860 -0.3956 -0.0168 -0.5040
17767TIP3    H174716   5.791   2.162   1.843 -1.3702  0.1644  0.4313
17767TIP3    H274717   5.821   2.028   1.778  0.9466  1.1532 -0.6110
17768TIP3   OH274718   2.500   2.049   0.497  0.2161  0.0425 -0.3441
17768TIP3    H174719   2.529   1.971   0.545 -1.5835 -0.0172  0.7019
17768TIP3    H274720   2.512   2.121   0.558 -2.5518 -0.1035  0.4274
17769TIP3   OH274721   1.744   6.603  13.838  0.2157  0.5960  0.3437
17769TIP3    H174722   1.689   6.527  13.821  0.1737  0.5403  0.7321
17769TIP3    H274723   1.831   6.568  13.850  0.0637  0.5400  1.2729
17770TIP3   OH274724   4.537   6.372   4.775  0.1344 -0.6555 -0.0313
17770TIP3    H174725   4.446   6.342   4.777  0.0348 -0.3263  0.6818
17770TIP3    H274726   4.573   6.341   4.858 -0.0418  1.4209  0.8477
17771TIP3   OH274727   4.045   5.685   3.054 -0.2115  0.1653  0.0214
17771TIP3    H174728   3.964   5.722   3.088 -1.2975 -1.0270 -1.2312
17771TIP3    H274729   4.033   5.590   3.063  1.2335 -0.0040  0.2513
17772TIP3   OH274730   2.861   2.692  11.317  0.1121  0.1695 -0.1928
17772TIP3    H174731   2.799   2.754  11.356 -0.5183 -2.2915  2.9130
17772TIP3    H274732   2.808   2.641  11.256  0.3310  1.6773 -1.6915
17773TIP3   OH274733   5.099   3.488   1.146 -0.4422 -0.0059  0.5980
17773TIP3    H174734   5.116   3.434   1.223 -1.7465 -0.9926  0.2031
17773TIP3    H274735   5.087   3.425   1.074 -1.1696  0.8252 -0.0251
17774TIP3   OH274736   2.525   2.522  17.044  0.6238  0.0164  0.3132
17774TIP3    H174737   2.561   2.608  17.066 -0.8296  0.8995 -0.6997
17774TIP3    H274738   2.599   2.472  17.010  1.9426  0.1395  2.8474
17775TIP3   OH274739   4.480   0.578   3.177  0.5906  0.1065 -0.4339
17775TIP3    H174740   4.474   0.503   3.119  1.0397 -0.7753  0.6538
17775TIP3    H274741   4.551   0.631   3.142  0.3467 -0.0230 -1.1315
17776TIP3   OH274742   5.632   4.785  13.127 -0.6033 -0.1103 -0.0175
17776TIP3    H174743   5.605   4.778  13.219 -1.3313 -1.4488 -0.3259
17776TIP3    H274744   5.728   4.782  13.131 -0.6502 -0.9912  0.6375
17777TIP3   OH274745   6.045   6.238   4.257  0.3211 -0.0483 -0.5045
17777TIP3    H174746   5.990   6.163   4.233 -0.8705  0.4618  0.6285
17777TIP3    H274747   6.128   6.198   4.285 -0.0323 -0.9054 -0.6548
17778TIP3   OH274748   1.522   6.467  13.382  0.2705 -0.2616  0.2672
17778TIP3    H174749   1.506   6.508  13.467  0.9458  2.7120 -0.9690
17778TIP3    H274750   1.614   6.440  13.384  0.0261 -1.0456  0.8229
17779TIP3   OH274751   0.105   5.072   1.822 -0.3022 -0.5688 -0.4206
17779TIP3    H174752   0.091   5.166   1.818  0.6983 -0.4185 -0.4863
17779TIP3    H274753   0.175   5.055   1.758 -0.5420 -1.3612 -0.4759
17780TIP3   OH274754   5.862   5.547  13.132  0.5625  0.2319 -0.0286
17780TIP3    H174755   5.924   5.598  13.080 -0.8699  1.0215 -0.9965
17780TIP3    H274756   5.813   5.495  13.067 -0.5055  0.4167  0.6152
17781TIP3   OH274757   5.020   0.524  15.368 -0.3732 -0.1870  0.3497
17781TIP3    H174758   5.049   0.492  15.453 -0.1401 -0.8053  0.0383
17781TIP3    H274759   5.080   0.597  15.349  0.0437 -0.5145  0.3877
17782TIP3   OH274760   5.091   5.154   0.681  0.3621  0.9678  0.0737
17782TIP3    H174761   5.045   5.138   0.599  2.0247 -1.0967 -0.4889
17782TIP3    H274762   5.034   5.118   0.748  0.8337 -0.9907 -0.5554
17783TIP3   OH274763   1.519   0.310  14.838 -0.1226 -0.1879 -0.0550
17783TIP3    H174764   1.497   0.251  14.910  0.5214  0.0680  0.3552
17783TIP3    H274765   1.570   0.257  14.778 -0.9776 -0.5045 -0.5091
17784TIP3   OH274766   5.211   1.984   6.110 -0.0032  0.9548  0.1932
17784TIP3    H174767   5.156   1.916   6.150 -0.5267  2.0366  1.3429
17784TIP3    H274768   5.169   2.066   6.135  1.5215  1.7577  0.1395
17785TIP3   OH274769   4.223   3.728   1.173 -0.0398  0.0167  0.0823
17785TIP3    H174770   4.308   3.742   1.132 -0.7407  1.3274 -0.9831
17785TIP3    H274771   4.186   3.652   1.128  0.1283  0.0982 -0.1914
17786TIP3   OH274772   4.745   5.848  13.579  0.2009 -0.6374  0.2705
17786TIP3    H174773   4.820   5.837  13.521  1.0356 -0.2421  1.2722
17786TIP3    H274774   4.752   5.776  13.642 -0.6723 -1.0296 -0.0590
17787TIP3   OH274775   0.984   0.709  13.808 -0.2384  0.2448 -0.4403
17787TIP3    H174776   0.915   0.686  13.871 -0.1915  2.2674  0.3932
17787TIP3    H274777   0.936   0.740  13.731 -0.2743  0.0197 -0.5092
17788TIP3   OH274778   4.431   5.445   3.382  0.0308  0.5378  0.0561
17788TIP3    H174779   4.359   5.508   3.386  0.5465  1.0865  1.1807
17788TIP3    H274780   4.424   5.396   3.464  0.2178 -0.2137 -0.3752
17789TIP3   OH274781   0.427   2.644  11.531 -0.3819 -0.4119 -0.4840
17789TIP3    H174782   0.420   2.739  11.538 -0.9765 -0.4272 -0.8538
17789TIP3    H274783   0.386   2.623  11.447 -1.0777 -1.0863  0.0196
17790TIP3   OH274784   3.571   1.909  12.141 -0.2780 -0.2256 -0.2697
17790TIP3    H174785   3.555   1.831  12.193 -2.5179  0.0795 -0.4661
17790TIP3    H274786   3.490   1.960  12.147  1.8647  3.1156  1.5629
17791TIP3   OH274787   4.948   2.487   1.250  0.2036  0.1841  0.2322
17791TIP3    H174788   4.959   2.494   1.155  1.2393  0.7248  0.3761
17791TIP3    H274789   4.904   2.403   1.263 -1.3786  0.8361 -0.8202
17792TIP3   OH274790   5.210   1.520  11.915 -0.7269  0.0039 -0.2468
17792TIP3    H174791   5.290   1.546  11.871 -0.0778 -0.9707  0.3438
17792TIP3    H274792   5.200   1.583  11.987 -1.1750  0.8882 -1.0715
17793TIP3   OH274793   0.652   1.599  13.258  0.2157  0.1507 -0.3789
17793TIP3    H174794   0.714   1.542  13.214 -1.3689 -0.8759 -1.3156
17793TIP3    H274795   0.611   1.649  13.187 -0.2684  0.5738  0.1951
17794TIP3   OH274796   0.195   1.565  12.566  0.2539  0.1116 -0.5885
17794TIP3    H174797   0.201   1.572  12.471 -1.0377  0.8014 -0.6316
17794TIP3    H274798   0.183   1.655  12.596 -1.2589 -0.3040  0.0725
17795TIP3   OH274799   5.221   6.724   5.425 -0.1828  0.4294 -0.8371
17795TIP3    H174800   5.316   6.710   5.422 -0.2672 -0.5887  0.7734
17795TIP3    H274801   5.186   6.643   5.461 -1.5464  1.3112 -0.1441
17796TIP3   OH274802   1.077   1.935  11.544 -0.0847 -0.6223  0.0160
17796TIP3    H174803   1.112   1.956  11.457 -0.8238  1.1418  0.1199
17796TIP3    H274804   1.084   1.840  11.550  0.5373 -0.7141 -1.7341
17797TIP3   OH274805   6.373   4.033   3.091  0.0728 -0.4830 -0.0373
17797TIP3    H174806   6.436   3.964   3.111  0.4005  0.0765  0.8740
17797TIP3    H274807   6.368   4.085   3.171  1.7485  2.0653 -1.5445
17798TIP3   OH274808   2.755   1.295   2.884 -0.3240 -0.7040 -0.6694
17798TIP3    H174809   2.736   1.345   2.804 -2.0223 -1.1107 -0.5408
17798TIP3    H274810   2.712   1.344   2.954 -1.0833 -1.7371 -0.3946
17799TIP3   OH274811   1.214   0.486   4.495 -0.9594  0.2260  0.4446
17799TIP3    H174812   1.264   0.548   4.548 -2.1614  0.9839  0.7320
17799TIP3    H274813   1.276   0.416   4.474  0.6831  1.9679 -0.6726
17800TIP3   OH274814   4.151   2.765  14.978  0.0149 -0.0305  0.1098
17800TIP3    H174815   4.143   2.834  15.044  1.6349  0.3240 -0.0300
17800TIP3    H274816   4.213   2.801  14.914 -1.9400 -0.1266 -1.9119
17801TIP3   OH274817   2.289   0.024  12.889 -0.7352  0.5553 -0.0897
17801TIP3    H174818   2.321  -0.031  12.961 -1.6252 -1.1541 -0.9627
17801TIP3    H274819   2.260   0.105  12.931  2.3228  1.1273  1.0147
17802TIP3   OH274820   5.827   6.481  14.843  0.1465 -0.2504 -0.3579
17802TIP3    H174821   5.847   6.389  14.828  0.7648 -0.0734 -0.6590
17802TIP3    H274822   5.759   6.502  14.779  0.6697 -0.2676 -0.9359
17803TIP3   OH274823   6.428   0.412  16.929 -0.4860  0.1352  0.0781
17803TIP3    H174824   6.523   0.425  16.922 -0.5470  0.1734 -0.6457
17803TIP3    H274825   6.415   0.318  16.917 -0.4719  0.0237  0.9111
17804TIP3   OH274826   1.705   1.496   6.565  0.1404  0.3210  0.5200
17804TIP3    H174827   1.758   1.519   6.641 -0.5235 -0.7010  1.3027
17804TIP3    H274828   1.625   1.547   6.576 -0.2917 -0.4319  0.9469
17805TIP3   OH274829   4.739   3.548   0.363  0.7408 -0.2497 -0.0844
17805TIP3    H174830   4.773   3.630   0.329 -1.5436  0.0577 -1.8256
17805TIP3    H274831   4.813   3.505   0.404  2.4114  1.8036 -0.9011
17806TIP3   OH274832   6.245   2.303  14.196 -0.2091  1.0040  0.1650
17806TIP3    H174833   6.322   2.304  14.251 -0.1548 -0.1020  0.1111
17806TIP3    H274834   6.201   2.387  14.214  0.3578  1.0993  1.0844
17807TIP3   OH274835   5.975   1.940  15.838 -0.0863 -0.3359 -0.6730
17807TIP3    H174836   5.930   1.881  15.899 -0.3557  1.7225  1.1923
17807TIP3    H274837   6.064   1.948  15.874 -0.1568  0.6545 -0.7189
17808TIP3   OH274838   6.684   4.997  15.251 -0.1971  0.1671 -0.7502
17808TIP3    H174839   6.724   4.925  15.300 -0.2293 -1.0295 -2.4411
17808TIP3    H274840   6.743   5.071  15.266  0.4855 -0.5283  0.0471
17809TIP3   OH274841   2.837   4.018  14.134 -0.0596 -0.3367 -0.5168
17809TIP3    H174842   2.826   4.054  14.222 -0.9380 -1.0202 -0.3382
17809TIP3    H274843   2.758   4.045  14.086 -0.2243 -1.0947 -0.6896
17810TIP3   OH274844   0.997   1.902  14.053  0.5183  0.1641  0.2575
17810TIP3    H174845   0.961   1.892  14.141 -0.4379  1.0302 -0.0380
17810TIP3    H274846   0.978   1.992  14.028  1.2869  0.1021 -0.6212
17811TIP3   OH274847   2.327   5.676  14.156  0.6770 -0.1772 -0.3745
17811TIP3    H174848   2.287   5.762  14.141 -0.7461 -0.4141  1.8279
17811TIP3    H274849   2.257   5.614  14.136  0.9726 -0.7272  0.2965
17812TIP3   OH274850   1.917   3.706   3.620 -0.3230 -0.6224  0.7351
17812TIP3    H174851   1.880   3.794   3.609 -0.4558 -0.7703 -0.0038
17812TIP3    H274852   1.956   3.686   3.536  2.7191  0.1015  1.8893
17813TIP3   OH274853   4.720   6.766   1.092 -0.4328 -0.1197  0.4275
17813TIP3    H174854   4.767   6.788   1.173 -0.7807  0.2939  0.5167
17813TIP3    H274855   4.687   6.677   1.108 -0.0289 -0.2550  0.5234
17814TIP3   OH274856   0.288   6.019   5.626  0.4468  0.2310  0.1057
17814TIP3    H174857   0.272   6.045   5.535  0.8128 -0.2862 -0.1039
17814TIP3    H274858   0.292   5.924   5.624 -0.6811  0.1460  0.8542
17815TIP3   OH274859   4.030   0.076  13.334 -0.2958 -0.7529  0.2104
17815TIP3    H174860   4.089   0.066  13.409 -0.2580  0.2461  0.3217
17815TIP3    H274861   4.060   0.157  13.291 -3.7086  1.7023  2.2103
17816TIP3   OH274862   5.669   0.613   1.223  0.3269  0.3224  0.0115
17816TIP3    H174863   5.652   0.569   1.307 -0.8867  1.7551  0.5406
17816TIP3    H274864   5.678   0.706   1.246  1.3083  0.5587 -1.2777
17817TIP3   OH274865   4.861   4.514   0.134 -0.7367 -0.0365  0.3096
17817TIP3    H174866   4.943   4.508   0.085  0.0019 -1.8167  1.7109
17817TIP3    H274867   4.888   4.544   0.221 -1.1029 -4.0906  1.8937
17818TIP3   OH274868   6.711   4.717   2.483 -1.1670  0.1002 -1.0988
17818TIP3    H174869   6.781   4.716   2.418  0.3004  0.3757  0.4350
17818TIP3    H274870   6.697   4.810   2.502 -1.8137  0.0363 -1.2642
17819TIP3   OH274871   0.569   0.429   3.198  0.1807  0.6018 -0.2077
17819TIP3    H174872   0.528   0.497   3.251  0.0872  0.4185 -0.0422
17819TIP3    H274873   0.623   0.379   3.260 -0.9678 -0.4342 -0.0271
17820TIP3   OH274874   3.920   3.730  10.853  0.8704 -0.3911 -0.3195
17820TIP3    H174875   3.993   3.715  10.793  1.2758  0.5213 -0.0630
17820TIP3    H274876   3.844   3.742  10.796  1.0251 -0.7565 -0.6065
17821TIP3   OH274877   0.624   0.955  14.340 -0.8573 -0.4845 -0.2555
17821TIP3    H174878   0.665   0.907  14.412  0.9758 -0.8294 -1.5059
17821TIP3    H274879   0.648   1.047  14.356 -1.1588 -0.4598  0.0462
17822TIP3   OH274880   0.721   4.840  13.630  0.3576  0.3973  0.1655
17822TIP3    H174881   0.712   4.918  13.684 -0.0027  0.6295 -0.2329
17822TIP3    H274882   0.631   4.811  13.614  0.5217 -1.2815  2.0263
17823TIP3   OH274883   5.730   1.473   5.657 -0.4124 -0.2143 -0.5720
17823TIP3    H174884   5.761   1.537   5.721 -1.1771 -1.3408  0.9612
17823TIP3    H274885   5.765   1.390   5.688 -1.6240 -0.9109 -1.0635
17824TIP3   OH274886   4.692   1.263   5.171  0.4430  0.0925 -0.3784
17824TIP3    H174887   4.722   1.174   5.153  0.1235 -0.4624  1.6425
17824TIP3    H274888   4.695   1.270   5.267 -1.5035  1.5667 -0.3890
17825TIP3   OH274889   3.899   3.373  14.071 -0.4268  0.2404  0.1277
17825TIP3    H174890   3.952   3.342  14.144 -0.6383 -0.4120  0.0084
17825TIP3    H274891   3.831   3.427  14.111 -1.0276 -0.7700  0.4969
17826TIP3   OH274892   3.120   1.129   1.362  0.1194  0.6971 -0.0176
17826TIP3    H174893   3.104   1.041   1.398  1.0530  0.1808 -0.8297
17826TIP3    H274894   3.192   1.164   1.414 -0.2001  0.9482  0.2538
17827TIP3   OH274895   2.802   4.149  11.287  0.1528 -0.5732 -0.1924
17827TIP3    H174896   2.808   4.113  11.198 -1.9923 -1.9210  0.1747
17827TIP3    H274897   2.711   4.177  11.296  0.2601 -0.7440  1.6912
17828TIP3   OH274898   5.623   4.715   3.781  0.2001 -0.8149  0.2609
17828TIP3    H174899   5.686   4.666   3.728  0.2174 -0.3332 -0.1659
17828TIP3    H274900   5.545   4.659   3.783 -0.0276 -0.5443 -0.8139
17829TIP3   OH274901   0.021   5.355   3.794  0.1855  0.5234  0.0106
17829TIP3    H174902  -0.070   5.344   3.766  1.0123 -0.9497 -2.2562
17829TIP3    H274903   0.033   5.291   3.864  0.3868 -1.7052 -1.9970
17830TIP3   OH274904   2.743   2.677   4.014  0.4465  0.2776  0.0364
17830TIP3    H174905   2.828   2.646   3.985  0.2824 -0.0823 -0.0559
17830TIP3    H274906   2.682   2.608   3.990 -0.0148  0.9430 -0.7369
17831TIP3   OH274907   4.720   3.458  13.445 -0.1684  0.2655 -0.1581
17831TIP3    H174908   4.721   3.426  13.355 -2.8263  0.3117 -0.2411
17831TIP3    H274909   4.812   3.463  13.470  0.6620  1.2288 -3.2224
17832TIP3   OH274910   5.461   1.526  16.735  0.1117  0.6881 -0.1100
17832TIP3    H174911   5.460   1.602  16.793 -0.9261 -0.4258  1.3917
17832TIP3    H274912   5.369   1.502  16.725  0.3564  0.2876 -1.4424
17833TIP3   OH274913   0.573   3.314  15.407 -0.0048  0.0691 -0.5806
17833TIP3    H174914   0.499   3.371  15.431 -1.0420 -1.8052  0.8037
17833TIP3    H274915   0.554   3.286  15.318 -1.0387 -0.4773 -0.1970
17834TIP3   OH274916   3.062   0.720  12.884  0.3459  0.0431  0.3420
17834TIP3    H174917   3.080   0.798  12.833 -0.3679  0.3060  0.4874
17834TIP3    H274918   2.969   0.725  12.905  0.7153  0.2109  2.0896
17835TIP3   OH274919   4.515   0.796  12.802 -0.0649  0.1976 -0.0502
17835TIP3    H174920   4.436   0.828  12.759 -0.7306  1.4918  2.0594
17835TIP3    H274921   4.512   0.834  12.890  1.7938 -1.5112  0.8015
17836TIP3   OH274922   4.265   0.358   5.694  0.1467  0.0754 -0.5036
17836TIP3    H174923   4.356   0.381   5.714  0.1950  0.9306 -1.7049
17836TIP3    H274924   4.245   0.406   5.614 -0.6307 -1.9132 -1.5395
17837TIP3   OH274925   6.241   3.573   3.928  0.1562 -0.3350  0.6259
17837TIP3    H174926   6.218   3.666   3.917 -0.3445 -0.5275 -0.0234
17837TIP3    H274927   6.336   3.571   3.917  0.0031 -0.0989 -0.8967
17838TIP3   OH274928   5.566   0.286  16.706 -0.0593 -0.6770 -0.4321
17838TIP3    H174929   5.546   0.369  16.664 -0.6039 -0.0868  0.9623
17838TIP3    H274930   5.497   0.227  16.677 -1.0493  0.0199  0.4711
17839TIP3   OH274931   2.980   6.390  14.500  0.0437  0.6367 -0.0340
17839TIP3    H174932   2.948   6.302  14.480 -1.8241  1.5466 -1.1925
17839TIP3    H274933   2.927   6.420  14.574  1.1225  0.5560  0.7919
17840TIP3   OH274934   6.611   2.347  14.019  0.1556 -0.4112 -0.5744
17840TIP3    H174935   6.691   2.296  14.008  0.1528 -0.6095  0.2660
17840TIP3    H274936   6.631   2.432  13.980  0.0901 -1.1007 -2.1721
17841TIP3   OH274937   6.760   2.731   3.473  0.6183  0.4074  0.0507
17841TIP3    H174938   6.812   2.694   3.401 -1.3301  1.1908 -1.8212
17841TIP3    H274939   6.678   2.682   3.470 -0.3601  1.9908  0.2436
17842TIP3   OH274940   2.483   4.193   2.923 -0.3040 -0.6920  0.0583
17842TIP3    H174941   2.470   4.286   2.907  0.5961 -0.8421 -1.6692
17842TIP3    H274942   2.527   4.189   3.008 -0.7289  0.4297  0.3340
17843TIP3   OH274943   3.855   5.256  11.186  0.1299 -0.8828 -0.1963
17843TIP3    H174944   3.849   5.347  11.157 -4.8846 -0.6366  1.2719
17843TIP3    H274945   3.827   5.205  11.111  0.9173 -1.1460 -0.3213
17844TIP3   OH274946   1.550   6.022  16.905 -0.3413 -0.8622  0.7434
17844TIP3    H174947   1.483   5.954  16.909 -0.4923 -0.6600  1.6582
17844TIP3    H274948   1.624   5.987  16.955 -0.5875 -0.1709  1.6026
17845TIP3   OH274949   4.618   0.636  16.974  0.1980  0.3625  0.0678
17845TIP3    H174950   4.578   0.723  16.975 -0.6125 -0.0032  0.3010
17845TIP3    H274951   4.654   0.625  17.062 -1.1699 -0.1943  0.5710
17846TIP3   OH274952   5.836   0.374  13.023  0.3139 -0.4938  0.1886
17846TIP3    H174953   5.891   0.299  13.004 -0.4324 -1.2607  1.0544
17846TIP3    H274954   5.848   0.432  12.947  1.9152 -0.8612  0.1360
17847TIP3   OH274955   6.180   2.846  11.667 -0.1109 -0.3722 -0.2902
17847TIP3    H174956   6.121   2.912  11.701 -1.5514 -2.2847  1.0241
17847TIP3    H274957   6.253   2.896  11.628 -1.7865  1.9550 -0.5151
17848TIP3   OH274958   2.393   6.316  13.071  0.1736  0.0118  0.1786
17848TIP3    H174959   2.452   6.311  12.996 -0.4317  0.0620 -0.3056
17848TIP3    H274960   2.443   6.278  13.143  0.4541 -0.7887 -0.4371
17849TIP3   OH274961   5.542   4.867  15.778 -0.1725  0.3988  0.1724
17849TIP3    H174962   5.552   4.792  15.719 -0.8721  1.4793 -1.3487
17849TIP3    H274963   5.630   4.904  15.786 -0.1929  0.6316 -0.7016
17850TIP3   OH274964   5.976   0.777  12.008  0.0053 -0.3629  0.5547
17850TIP3    H174965   5.896   0.736  11.975  0.6255 -0.1893 -1.1892
17850TIP3    H274966   6.045   0.749  11.948  0.7207  2.0181  0.1938
17851TIP3   OH274967   1.499   3.366  15.545 -0.2304 -0.1864  0.1444
17851TIP3    H174968   1.531   3.276  15.544 -0.6721 -0.3441 -0.7179
17851TIP3    H274969   1.578   3.419  15.559 -0.2073 -0.7773  2.4557
17852TIP3   OH274970   6.738   3.980   5.133 -0.0308  0.3331 -0.5038
17852TIP3    H174971   6.739   4.027   5.049 -0.2158  0.5707 -0.3736
17852TIP3    H274972   6.821   3.933   5.135 -0.8000 -1.1474 -1.6493
17853TIP3   OH274973   6.227   0.894   2.239  0.4623 -0.3322  0.4863
17853TIP3    H174974   6.230   0.859   2.328  0.2710 -0.2726  0.5175
17853TIP3    H274975   6.143   0.863   2.204  0.5164 -0.3173  0.3430
17854TIP3   OH274976   4.300   2.863  10.271 -1.0125 -0.4141 -0.1415
17854TIP3    H174977   4.288   2.776  10.309 -1.9335 -0.2564 -0.0736
17854TIP3    H274978   4.212   2.893  10.250 -0.4750 -0.8588 -3.2378
17855TIP3   OH274979   6.091   5.280  14.127  0.0023 -0.8428  0.4692
17855TIP3    H174980   6.035   5.340  14.077  2.9710  3.2430  1.7658
17855TIP3    H274981   6.044   5.267  14.210  0.6353  2.1943  1.3692
17856TIP3   OH274982   5.658   4.136  15.868 -0.2536  0.0312 -0.5534
17856TIP3    H174983   5.642   4.044  15.888 -1.8949  0.7564  1.6355
17856TIP3    H274984   5.749   4.152  15.893 -1.1681 -0.0119  2.9488
17857TIP3   OH274985   6.330   5.282   3.466  0.1226 -0.7748  0.2736
17857TIP3    H174986   6.282   5.207   3.501  0.1385  0.0740  2.2146
17857TIP3    H274987   6.267   5.354   3.468  0.3543 -0.5333 -0.7915
17858TIP3   OH274988   6.634   6.248   1.849  0.6403 -0.4600  0.3581
17858TIP3    H174989   6.542   6.249   1.823  0.8844  2.2234 -0.5966
17858TIP3    H274990   6.632   6.265   1.943  0.1042 -2.0089  0.6366
17859TIP3   OH274991   6.767   1.964   0.649  0.5910  0.3672  0.0358
17859TIP3    H174992   6.824   1.930   0.581  2.2843 -1.1171  2.1084
17859TIP3    H274993   6.817   2.036   0.689  0.8129 -0.5642  1.4821
17860TIP3   OH274994   5.220   3.169  15.084  0.4886  0.0313  0.3500
17860TIP3    H174995   5.202   3.255  15.046  1.7470  0.8366  1.5118
17860TIP3    H274996   5.312   3.153  15.064  0.2159 -1.1357 -0.0031
17861TIP3   OH274997   4.249   0.142   4.385  0.0177  0.6554 -0.3962
17861TIP3    H174998   4.210   0.197   4.318 -0.4147  0.3854 -0.3665
17861TIP3    H274999   4.343   0.160   4.379 -0.1894  1.9215  0.0897
17862TIP3   OH275000   6.287   0.160  14.120 -0.6993  0.2060 -0.2316
17862TIP3    H175001   6.259   0.078  14.162 -2.1111 -0.6613 -2.7273
17862TIP3    H275002   6.355   0.195  14.178 -0.4449 -2.4584  1.1735
17863TIP3   OH275003   0.024   0.579   2.121  0.2522 -0.4097 -1.3807
17863TIP3    H175004   0.108   0.622   2.138 -0.4466  0.2782  0.4083
17863TIP3    H275005  -0.039   0.627   2.174 -0.9043 -2.3451 -0.9448
17864TIP3   OH275006   5.553   2.190   1.216 -0.3286 -0.2532  0.4615
17864TIP3    H175007   5.640   2.174   1.253 -0.4751  0.0937  0.9604
17864TIP3    H275008   5.568   2.252   1.145 -0.1778 -0.1382  0.5943
17865TIP3   OH275009   3.010   1.359  14.397 -0.5840 -0.7378  0.1783
17865TIP3    H175010   2.979   1.296  14.331 -1.2876 -1.4278  1.1431
17865TIP3    H275011   3.062   1.306  14.458  1.3767  0.1753 -0.6598
17866TIP3   OH275012   0.032   0.442   3.641 -0.5093  0.2705 -0.0822
17866TIP3    H175013   0.092   0.429   3.715  0.4439 -1.1148 -1.0848
17866TIP3    H275014  -0.048   0.476   3.681  0.8753  2.0248  1.2906
17867TIP3   OH275015   0.287   2.861  16.948  0.1983 -0.0771  0.2221
17867TIP3    H175016   0.279   2.778  16.901 -2.0591 -0.9933  2.0896
17867TIP3    H275017   0.363   2.850  17.005  1.5180  0.1675 -1.4597
17868TIP3   OH275018   4.118   1.585   5.112  0.1019  0.0681 -0.0740
17868TIP3    H175019   4.074   1.669   5.095 -0.2131 -0.2143 -0.6843
17868TIP3    H275020   4.064   1.543   5.179 -0.6036 -0.3054 -0.8656
17869TIP3   OH275021   4.756   2.030   4.353 -0.0231  0.4442 -0.8313
17869TIP3    H175022   4.791   1.974   4.283 -0.3907  0.3563 -0.9491
17869TIP3    H275023   4.710   2.100   4.306 -1.0541 -0.1155 -0.6808
17870TIP3   OH275024   0.243   1.269   2.456  0.3478  0.4595  0.0432
17870TIP3    H175025   0.270   1.354   2.489  1.6079 -0.2116  0.7957
17870TIP3    H275026   0.293   1.258   2.375 -0.6045  0.8825 -0.6071
17871TIP3   OH275027   1.836   0.544  11.435  0.0476 -0.2911  0.1225
17871TIP3    H175028   1.883   0.483  11.492 -0.9901  0.6254  2.0227
17871TIP3    H275029   1.744   0.533  11.459 -0.2546  1.2445 -0.2514
17872TIP3   OH275030   0.068   4.262  16.382  0.2121  0.3256  0.1767
17872TIP3    H175031   0.144   4.306  16.343 -0.3170  1.2979  0.2147
17872TIP3    H275032   0.054   4.309  16.464 -1.1186  0.8941 -0.3676
17873TIP3   OH275033   2.156   4.162   2.917 -0.1504 -0.2898 -0.1688
17873TIP3    H175034   2.161   4.218   2.994 -2.7061  0.4495 -0.5103
17873TIP3    H275035   2.213   4.204   2.853 -0.2388  0.6487  0.3571
17874TIP3   OH275036   0.484   4.942  13.990 -0.1911 -0.4040 -0.3804
17874TIP3    H175037   0.436   4.890  14.055  1.6041 -0.5383  0.8721
17874TIP3    H275038   0.502   4.880  13.919 -1.4369 -0.4678 -0.6674
17875TIP3   OH275039   5.061   4.701   4.218 -0.0701  0.1012 -0.1107
17875TIP3    H175040   4.983   4.750   4.244  0.1455  0.9788 -1.0533
17875TIP3    H275041   5.099   4.671   4.300 -2.0109 -1.3218  0.3045
17876TIP3   OH275042   4.931   0.759   3.958 -0.0305 -0.4151 -0.5592
17876TIP3    H175043   4.979   0.686   3.919 -1.1098 -1.3276 -0.1888
17876TIP3    H275044   4.995   0.830   3.962  0.7813 -1.0627 -1.7261
17877TIP3   OH275045   6.513   4.254  13.213 -0.6775  0.1692  0.4702
17877TIP3    H175046   6.469   4.318  13.158 -1.3408 -0.5044  0.2086
17877TIP3    H275047   6.458   4.249  13.292 -0.6709 -0.1322  0.4568
17878TIP3   OH275048   2.012   1.208   5.449  0.5239  0.2609  0.1822
17878TIP3    H175049   1.931   1.201   5.500  0.2197  0.6243 -0.2526
17878TIP3    H275050   2.081   1.184   5.511  0.1417  0.5463  0.7234
17879TIP3   OH275051   5.677   5.863  12.808  0.0270 -0.6763  0.3682
17879TIP3    H175052   5.728   5.848  12.728 -1.2189 -0.6953 -0.4268
17879TIP3    H275053   5.607   5.922  12.782  0.5313  0.6135  1.8190
17880TIP3   OH275054   4.165   1.878   1.783  1.0700  0.5956  0.2712
17880TIP3    H175055   4.243   1.864   1.838 -0.2413  2.3439  2.6827
17880TIP3    H275056   4.135   1.966   1.807 -2.8870 -0.8734  1.0093
17881TIP3   OH275057   5.055   5.697  12.184  0.6867  0.4546  0.1750
17881TIP3    H175058   5.038   5.769  12.123 -1.2670 -0.2437 -0.1371
17881TIP3    H275059   4.995   5.713  12.257 -0.1907 -1.1384 -0.1653
17882TIP3   OH275060   1.182   0.994   3.378  0.2270  0.2368 -0.1992
17882TIP3    H175061   1.222   0.997   3.291  0.4443  0.1050 -0.1048
17882TIP3    H275062   1.117   1.064   3.378  1.4116  1.3530  0.1275
17883TIP3   OH275063   4.449   2.410   5.863 -0.9933 -0.1636 -0.5799
17883TIP3    H175064   4.519   2.354   5.896 -1.9117 -1.6962 -1.2019
17883TIP3    H275065   4.488   2.497   5.860  0.7281 -0.9041 -0.4121
17884TIP3   OH275066   6.773   2.224   3.567 -0.1408 -0.0055  0.8464
17884TIP3    H175067   6.738   2.181   3.488  0.7313  0.3103  0.2821
17884TIP3    H275068   6.695   2.257   3.612 -0.5915  0.5823 -0.3390
17885TIP3   OH275069   5.956   4.599   0.649 -0.8997 -0.3383 -0.2792
17885TIP3    H175070   5.863   4.603   0.671 -0.5372 -0.9197  1.4597
17885TIP3    H275071   5.993   4.536   0.711  0.4975 -0.8241 -1.5515
17886TIP3   OH275072   2.391   3.863   2.573  0.0812  0.3049 -0.0315
17886TIP3    H175073   2.301   3.847   2.544 -0.1753 -0.5102  1.1870
17886TIP3    H275074   2.429   3.916   2.503 -1.1973  0.2511 -0.7917
17887TIP3   OH275075   4.757   4.032  15.770  0.9624  0.3610 -0.0086
17887TIP3    H175076   4.815   4.068  15.702  1.2361 -0.8615 -0.4358
17887TIP3    H275077   4.669   4.037  15.732  1.1222 -0.3817 -0.4881
17888TIP3   OH275078   0.064   5.321  16.070  0.1880  0.7839 -0.3930
17888TIP3    H175079   0.104   5.388  16.125 -0.2233 -0.9445  2.1285
17888TIP3    H275080  -0.030   5.332  16.083  0.1281 -0.8403  0.8356
17889TIP3   OH275081   5.228   6.443   5.830  0.0995  0.1536 -0.5063
17889TIP3    H175082   5.310   6.426   5.783 -0.6249  1.0074 -2.1288
17889TIP3    H275083   5.228   6.538   5.844 -1.0086  0.2801 -1.2948
17890TIP3   OH275084   2.769   3.006   1.056 -0.1890  0.1663 -0.4754
17890TIP3    H175085   2.773   2.954   0.976 -1.1878  0.3926 -0.6743
17890TIP3    H275086   2.789   3.096   1.027  1.4616 -0.0660 -0.1443
17891TIP3   OH275087   1.631   5.250  13.937 -0.8134  0.3122 -0.6620
17891TIP3    H175088   1.626   5.307  14.014  0.7630 -1.7556  1.0297
17891TIP3    H275089   1.633   5.311  13.863  0.3152  2.4502  1.0594
17892TIP3   OH275090   2.527   1.678   5.320 -0.4590  0.2409  0.7961
17892TIP3    H175091   2.520   1.680   5.416  1.3535 -1.4250  1.0112
17892TIP3    H275092   2.456   1.620   5.293 -0.6188  0.2495  1.1846
17893TIP3   OH275093   4.949   5.501   2.494  0.3369 -0.0019 -0.0771
17893TIP3    H175094   4.920   5.553   2.418  1.1062  0.7640  0.1490
17893TIP3    H275095   4.959   5.412   2.459  0.5736  0.3213 -0.8496
17894TIP3   OH275096   2.018   6.036  13.461 -0.0568  0.8976  0.1545
17894TIP3    H175097   1.972   6.117  13.438 -1.6220 -0.4172 -1.4838
17894TIP3    H275098   2.001   5.977  13.388  1.6057 -0.7169  1.0306
17895TIP3   OH275099   6.568   6.364  16.406 -0.1932 -0.1029  0.0522
17895TIP3    H175100   6.645   6.403  16.365  0.2934 -0.7163  0.3575
17895TIP3    H275101   6.574   6.390  16.498 -1.9175  2.2584 -0.4633
17896TIP3   OH275102   5.532   5.359   6.347 -0.0015  0.1205  0.5303
17896TIP3    H175103   5.437   5.366   6.356 -0.2527 -0.4065 -1.3687
17896TIP3    H275104   5.556   5.285   6.404 -1.2393 -2.0319 -1.6220
17897TIP3   OH275105   4.353   2.922  15.957  1.5427 -0.1001  0.0276
17897TIP3    H175106   4.416   2.879  16.014  0.2589  0.4134  1.8579
17897TIP3    H275107   4.273   2.928  16.009  0.4701  0.7547 -1.6713
17898TIP3   OH275108   0.264   0.863   4.012  0.5919  0.3505 -0.3111
17898TIP3    H175109   0.287   0.917   3.937  0.8894  1.7082  0.7313
17898TIP3    H275110   0.169   0.869   4.019  0.6116  0.6422 -0.2790
17899TIP3   OH275111   1.170   1.780   0.891  0.1355  0.4289  0.3507
17899TIP3    H175112   1.089   1.733   0.874  0.6730 -0.1523 -0.6544
17899TIP3    H275113   1.237   1.732   0.842  1.6211 -0.7854  3.4670
17900TIP3   OH275114   0.898   1.515   1.987  0.1985 -0.3383  0.3128
17900TIP3    H175115   0.849   1.433   1.987  0.5803 -0.5685  1.1171
17900TIP3    H275116   0.898   1.542   1.895  0.2780 -1.3639  0.0014
17901TIP3   OH275117   2.341   3.591  13.475  0.0446  0.1881 -0.0523
17901TIP3    H175118   2.287   3.638  13.539 -0.8237 -0.0500 -0.6017
17901TIP3    H275119   2.430   3.596  13.510 -0.4927 -0.3198  1.3982
17902TIP3   OH275120   2.921   0.611  11.709 -0.1200  0.5604 -0.4622
17902TIP3    H175121   2.990   0.589  11.771 -0.0486  1.5372 -0.1936
17902TIP3    H275122   2.878   0.688  11.746  0.5837  1.7903 -2.1310
17903TIP3   OH275123   1.750   6.309  10.760  0.0120  0.2089  0.8413
17903TIP3    H175124   1.687   6.240  10.741  0.2414 -0.1248  1.3073
17903TIP3    H275125   1.700   6.390  10.750 -0.6960 -0.0821  2.0121
17904TIP3   OH275126   1.870   6.369   0.028  0.2656  0.5070 -0.1815
17904TIP3    H175127   1.802   6.302   0.039 -0.3522  1.2238  0.3500
17904TIP3    H275128   1.949   6.329   0.065 -0.3836  0.5454  1.2531
17905TIP3   OH275129   3.820   1.855   3.115 -0.0754 -0.4423 -0.2839
17905TIP3    H175130   3.882   1.898   3.056  0.4100 -0.0601  0.4984
17905TIP3    H275131   3.757   1.923   3.138 -0.0090 -0.4687 -0.0146
17906TIP3   OH275132   3.899   1.338   1.490  0.0270  0.3234  0.5255
17906TIP3    H175133   3.979   1.370   1.531  0.4972 -1.5849  1.1907
17906TIP3    H275134   3.829   1.364   1.549  0.0147  2.9947 -0.6325
17907TIP3   OH275135   0.069   1.683   0.003  0.0851  0.2693 -0.1260
17907TIP3    H175136   0.130   1.665  -0.069 -0.3281  0.5048 -0.5378
17907TIP3    H275137   0.118   1.659   0.082  0.8927  0.9336 -0.4111
17908TIP3   OH275138   6.292   5.737   1.874 -0.2089  0.5620  0.4982
17908TIP3    H175139   6.296   5.666   1.810 -0.1044  0.1728  0.9377
17908TIP3    H275140   6.272   5.815   1.822  0.2996  0.3179 -0.0650
17909TIP3   OH275141   0.667   6.013  16.839  0.3694  0.0612  0.0538
17909TIP3    H175142   0.663   5.953  16.764 -1.3495 -0.1297  0.2702
17909TIP3    H275143   0.675   6.100  16.799 -1.0590  0.0075 -0.3946
17910TIP3   OH275144   2.038   3.300   4.283 -0.2767 -0.2792  0.2476
17910TIP3    H175145   2.002   3.389   4.281 -1.9402 -0.9298 -0.6249
17910TIP3    H275146   1.961   3.245   4.299  1.0099 -1.4487  2.6133
17911TIP3   OH275147   0.755   6.250   2.159  0.2595  0.2679 -0.4325
17911TIP3    H175148   0.704   6.271   2.081 -0.6421  0.9669  0.3258
17911TIP3    H275149   0.699   6.277   2.232  0.4899 -1.6777  0.4897
17912TIP3   OH275150   6.382   2.097   5.226 -1.1937  0.3459  0.1175
17912TIP3    H175151   6.456   2.057   5.179 -0.5516  1.2409  0.3539
17912TIP3    H275152   6.357   2.031   5.291 -1.3771 -0.4486 -0.7438
17913TIP3   OH275153   0.271   4.578  13.335 -0.1178 -0.1503  0.4435
17913TIP3    H175154   0.251   4.664  13.298 -1.0625 -0.7263 -0.4273
17913TIP3    H275155   0.358   4.558  13.301 -0.2513  0.0990 -0.0664
17914TIP3   OH275156   3.960   5.394  12.768  0.2757  0.0246  0.6178
17914TIP3    H175157   4.023   5.460  12.795 -0.0691  1.5981 -2.1531
17914TIP3    H275158   4.013   5.326  12.725  0.3369  0.0137  0.7103
17915TIP3   OH275159   1.607   0.647  13.464  0.0184 -0.3589 -0.1373
17915TIP3    H175160   1.561   0.616  13.542 -0.2356  1.9237  0.6573
17915TIP3    H275161   1.562   0.605  13.391 -1.0783 -0.8926  0.8303
17916TIP3   OH275162   3.118   4.292   6.219 -0.1510  0.1497 -0.5879
17916TIP3    H175163   3.165   4.267   6.140  0.9836  0.1559  0.0634
17916TIP3    H275164   3.074   4.212   6.247  0.7008 -0.2624 -0.3870
17917TIP3   OH275165   0.163   3.189   2.461  0.1339  0.5770 -0.3427
17917TIP3    H175166   0.210   3.252   2.406 -0.9397  2.1016  0.4409
17917TIP3    H275167   0.231   3.150   2.515  0.7076  1.6955 -0.2361
17918TIP3   OH275168   0.693   4.428  13.044 -0.1350  0.1068  0.5672
17918TIP3    H175169   0.730   4.356  12.994 -1.8958 -1.1932  1.1003
17918TIP3    H275170   0.769   4.478  13.074  0.9885  0.2638 -2.4048
17919TIP3   OH275171   5.900   1.636  15.933  0.1868 -0.2216  0.7711
17919TIP3    H175172   5.952   1.580  15.876  0.4993 -0.2261  1.0589
17919TIP3    H275173   5.824   1.660  15.880 -1.4732 -3.2904  1.5889
17920TIP3   OH275174   5.351   5.091  16.837  0.0983 -0.4874 -0.2715
17920TIP3    H175175   5.370   5.056  16.750  1.9497 -1.8989  0.6463
17920TIP3    H275176   5.266   5.054  16.860 -1.0240  0.9721 -1.9986
17921TIP3   OH275177   0.497   2.378   4.254 -0.2924  0.2942  0.4719
17921TIP3    H175178   0.446   2.333   4.187 -1.9998  2.2114  0.4194
17921TIP3    H275179   0.507   2.313   4.324  0.7998 -1.4544 -1.2599
17922TIP3   OH275180   3.222   3.853   2.320  0.7651 -0.1876  0.6118
17922TIP3    H175181   3.217   3.855   2.415  1.4623 -2.2051  0.7015
17922TIP3    H275182   3.216   3.945   2.294  1.5553  0.4576  2.6381
17923TIP3   OH275183   3.438   0.118   0.663 -0.3390  0.5004 -0.0390
17923TIP3    H175184   3.486   0.054   0.610 -0.2798  0.2280  0.3409
17923TIP3    H275185   3.349   0.082   0.668 -0.3902  0.6173 -0.0993
17924TIP3   OH275186   0.139   2.197   4.403  0.4021  0.1937  0.2579
17924TIP3    H175187   0.208   2.263   4.391  1.0104 -0.3806  0.5576
17924TIP3    H275188   0.186   2.113   4.403 -0.1282 -0.1131  1.9613
17925TIP3   OH275189   0.940   6.023  10.460 -0.1417 -0.0605  0.3989
17925TIP3    H175190   0.944   5.928  10.476  0.4198 -0.5711 -2.4815
17925TIP3    H275191   1.031   6.048  10.444 -0.4897  0.6702 -0.4210
17926TIP3   OH275192   2.596   4.476  13.876  0.1277 -0.2259 -0.3009
17926TIP3    H175193   2.630   4.408  13.817  0.3491  0.0211 -0.4615
17926TIP3    H275194   2.619   4.558  13.833 -1.5630 -0.0544 -0.9265
17927TIP3   OH275195   2.087   5.582  14.837 -0.5922  0.4215  0.0388
17927TIP3    H175196   2.066   5.495  14.803  0.4772 -0.1730  0.8616
17927TIP3    H275197   2.159   5.612  14.781 -0.1396  0.2600  0.5334
17928TIP3   OH275198   0.080   4.586  13.540 -0.3237 -0.2611  0.4390
17928TIP3    H175199   0.161   4.556  13.499  0.4470  0.8520  1.1406
17928TIP3    H275200   0.041   4.646  13.475  0.9779  1.6277  1.3561
17929TIP3   OH275201   4.233   4.220   3.496  0.6162 -0.6000 -0.5417
17929TIP3    H175202   4.190   4.300   3.527  1.0244  0.0336 -1.5732
17929TIP3    H275203   4.255   4.172   3.575  0.2079  0.2362  0.0840
17930TIP3   OH275204   0.684   5.575   4.968 -0.0308 -0.2007 -0.0673
17930TIP3    H175205   0.672   5.551   4.876 -1.2037  0.6872 -0.1505
17930TIP3    H275206   0.627   5.515   5.015 -1.0639  0.7522 -0.0880
17931TIP3   OH275207   5.391   5.576   2.610 -0.3298  0.4191  0.3152
17931TIP3    H175208   5.371   5.670   2.608  0.1862  0.5003 -1.2676
17931TIP3    H275209   5.452   5.563   2.537  1.1599 -0.7941  1.7416
17932TIP3   OH275210   3.835   3.766  11.743 -0.0510  0.2676 -0.1466
17932TIP3    H175211   3.901   3.834  11.726  0.5062 -0.4228 -0.7664
17932TIP3    H275212   3.826   3.721  11.659  0.1527 -0.9351  0.4760
17933TIP3   OH275213   5.147   1.292   5.329 -0.7127  0.0544 -0.1418
17933TIP3    H175214   5.079   1.355   5.351 -0.7516 -0.3433  0.8951
17933TIP3    H275215   5.117   1.251   5.248 -1.8452 -0.3017  0.4456
17934TIP3   OH275216   1.664   4.720  11.837  0.0165 -0.3120  0.1505
17934TIP3    H175217   1.600   4.671  11.784 -1.1425 -1.4144  2.4768
17934TIP3    H275218   1.645   4.694  11.927  2.5845  0.7659  1.0492
17935TIP3   OH275219   1.681   3.038   4.806 -0.4880 -0.9578 -0.2387
17935TIP3    H175220   1.669   3.095   4.882 -2.1021  0.2407 -1.3547
17935TIP3    H275221   1.774   3.045   4.786 -0.1886 -0.6908  1.1665
17936TIP3   OH275222   1.867   1.704   2.308  0.4138 -0.1651 -0.1761
17936TIP3    H175223   1.928   1.732   2.377  1.3097  0.9498 -1.3919
17936TIP3    H275224   1.780   1.722   2.344  0.8699  0.4722  0.6343
17937TIP3   OH275225   1.620   3.341  12.320 -0.4070 -0.5627  0.4452
17937TIP3    H175226   1.635   3.407  12.253 -1.6872 -0.9744 -0.2518
17937TIP3    H275227   1.698   3.285  12.317  0.2659  0.3798  0.4211
17938TIP3   OH275228   3.507   0.859  11.117  0.5076 -0.2025  0.4173
17938TIP3    H175229   3.430   0.806  11.139  0.6809 -1.1390 -1.1564
17938TIP3    H275230   3.476   0.918  11.048  0.5035  1.2617  1.6671
17939TIP3   OH275231   0.893   1.699   0.908  0.2535  0.3207 -0.4189
17939TIP3    H175232   0.860   1.685   0.819  2.4832 -0.3859 -1.1816
17939TIP3    H275233   0.934   1.616   0.932  0.1159  0.6732  1.0862
17940TIP3   OH275234   5.542   5.397   3.555  0.4308  0.3955  0.0865
17940TIP3    H175235   5.620   5.441   3.522  1.3632 -1.5755 -0.4001
17940TIP3    H275236   5.504   5.355   3.479 -0.9842  1.0992  0.3744
17941TIP3   OH275237   0.102   6.380   5.074 -0.3655 -0.3178 -0.3609
17941TIP3    H175238   0.026   6.427   5.039 -0.0310  0.5970  0.1120
17941TIP3    H275239   0.080   6.288   5.065 -1.1765 -0.0638 -1.0135
17942TIP3   OH275240   0.627   3.438  16.376  0.1269 -0.2136  0.3230
17942TIP3    H175241   0.593   3.497  16.309 -0.0813  0.1953  0.7918
17942TIP3    H275242   0.600   3.351  16.347  0.1380 -0.0515 -0.1857
17943TIP3   OH275243   5.471   4.733   2.705  0.1127  0.4581 -0.2517
17943TIP3    H175244   5.529   4.708   2.633  0.8187  0.3985  0.3361
17943TIP3    H275245   5.405   4.789   2.664  1.8838  2.4163 -0.5226
17944TIP3   OH275246   3.085   5.873   5.491  0.2203 -0.8909  0.0340
17944TIP3    H175247   3.177   5.848   5.484  0.4031  0.1787 -1.7368
17944TIP3    H275248   3.082   5.935   5.563  0.7107 -1.6839  0.7410
17945TIP3   OH275249   1.746   1.078   4.132 -0.4368 -0.2372  0.3446
17945TIP3    H175250   1.652   1.088   4.117 -0.6285 -0.2203  1.4816
17945TIP3    H275251   1.787   1.131   4.064 -1.2656  0.2944  0.2492
17946TIP3   OH275252   2.841   6.376   3.071  0.2145 -0.4986 -0.0058
17946TIP3    H175253   2.896   6.437   3.023  0.7518 -0.3789  0.7607
17946TIP3    H275254   2.831   6.301   3.012  1.3003 -0.5749 -0.0995
17947TIP3   OH275255   4.361   2.231  13.625  0.4444  0.3527 -0.3813
17947TIP3    H175256   4.273   2.247  13.591  0.1917  0.6394  0.4046
17947TIP3    H275257   4.412   2.306  13.595  0.7299 -0.4328 -1.9033
17948TIP3   OH275258   2.853   4.247   0.870 -0.3390  0.1338  0.5265
17948TIP3    H175259   2.820   4.246   0.780 -0.3731  2.6821  0.4797
17948TIP3    H275260   2.797   4.185   0.916 -2.2340  0.9868 -0.5707
17949TIP3   OH275261   3.646   0.920   0.650  0.0891  0.6061 -0.3086
17949TIP3    H175262   3.554   0.930   0.674 -0.3883 -0.9294 -1.3952
17949TIP3    H275263   3.676   0.846   0.703  0.8883  1.5136  0.5233
17950TIP3   OH275264   6.376   4.921   4.280  0.4805 -0.4626  0.4819
17950TIP3    H175265   6.336   5.007   4.295  0.2867 -0.8508  2.2300
17950TIP3    H275266   6.322   4.881   4.211  0.7119  0.8996 -0.5033
17951TIP3   OH275267   3.934   3.536  13.555  0.3605 -0.1716 -0.6975
17951TIP3    H175268   3.876   3.606  13.585 -0.0290 -1.2003  0.9996
17951TIP3    H275269   4.016   3.581  13.533 -0.0253  0.8834 -0.0098
17952TIP3   OH275270   4.295   4.927   6.030  0.3272 -0.5608 -0.0786
17952TIP3    H175271   4.207   4.895   6.051  0.5601 -1.2993 -0.1910
17952TIP3    H275272   4.351   4.887   6.097  0.3247  1.4491  1.1743
17953TIP3   OH275273   4.703   3.723  14.578 -0.2348  0.2765 -0.1450
17953TIP3    H175274   4.658   3.674  14.646  0.7352 -0.7721 -0.2393
17953TIP3    H275275   4.796   3.719  14.603  0.1487 -0.2617 -1.6105
17954TIP3   OH275276   6.111   0.380  14.164  0.3029  0.3208 -0.4209
17954TIP3    H175277   6.158   0.442  14.220  1.5137 -0.1038 -0.9480
17954TIP3    H275278   6.180   0.332  14.119 -0.6525  1.2108 -2.9023
17955TIP3   OH275279   3.635   4.042  12.398 -0.5698  0.8288  0.5763
17955TIP3    H175280   3.587   4.058  12.479 -1.2838 -2.8750  0.9869
17955TIP3    H275281   3.567   4.027  12.332  0.0239  0.6900 -0.0124
17956TIP3   OH275282   2.085   1.728  17.189  0.0585 -0.3095 -0.0374
17956TIP3    H175283   2.171   1.687  17.199 -0.3783 -1.4331 -0.7282
17956TIP3    H275284   2.030   1.659  17.152 -0.5891  1.0747 -1.6864
17957TIP3   OH275285   4.408   4.682   5.885 -0.3312 -0.1210 -0.1539
17957TIP3    H175286   4.455   4.617   5.937 -0.5615 -0.4790 -0.3862
17957TIP3    H275287   4.362   4.736   5.949  1.6543  1.2479  0.1812
17958TIP3   OH275288   4.762   0.806   5.718 -0.2094 -0.6867 -0.0616
17958TIP3    H175289   4.714   0.793   5.799 -2.1080 -1.3594 -1.2486
17958TIP3    H275290   4.761   0.900   5.704 -2.6052 -0.8103 -0.8765
17959TIP3   OH275291   2.821   3.383  16.979 -0.2960  0.0224 -0.7989
17959TIP3    H175292   2.882   3.377  17.052 -1.0795 -4.2203 -0.3805
17959TIP3    H275293   2.765   3.458  17.001 -0.1015 -0.7509  2.6480
17960TIP3   OH275294   3.991   5.489  16.909  0.3704 -0.1120  0.1673
17960TIP3    H175295   3.970   5.575  16.873  0.5114 -0.9313 -1.9389
17960TIP3    H275296   4.078   5.469  16.875  0.9348 -0.4822  1.8018
17961TIP3   OH275297   0.981   0.500  16.718 -0.0427 -0.5216 -0.5314
17961TIP3    H175298   1.017   0.542  16.640  0.0225 -1.6337 -1.1111
17961TIP3    H275299   0.890   0.531  16.722  0.1113 -0.0457 -0.7473
17962TIP3   OH275300   1.177   0.409  11.834  0.6088 -0.1068  0.2865
17962TIP3    H175301   1.082   0.394  11.839  0.5471 -0.0051 -0.4907
17962TIP3    H275302   1.186   0.481  11.772  1.0967  0.9854  1.5902
17963TIP3   OH275303   2.911   0.347  16.298 -0.0719 -0.3887  0.3784
17963TIP3    H175304   2.860   0.426  16.280  1.4637  0.2792 -1.2599
17963TIP3    H275305   2.847   0.281  16.322 -1.3211  1.5466  2.4449
17964TIP3   OH275306   3.715   1.470  16.633  0.7936 -0.7916  0.2101
17964TIP3    H175307   3.691   1.510  16.717 -1.2992  1.6538 -1.4899
17964TIP3    H275308   3.808   1.492  16.622  1.3617 -1.9999  2.3171
17965TIP3   OH275309   5.091   0.884  13.371 -0.0762 -0.6582 -0.0349
17965TIP3    H175310   5.073   0.790  13.371 -0.5763 -0.5678 -0.9325
17965TIP3    H275311   5.032   0.920  13.305 -0.3660  0.3826  0.7837
17966TIP3   OH275312   3.883   5.176  12.267  0.2593  0.2960  0.1347
17966TIP3    H175313   3.829   5.190  12.189  0.1231 -0.4312  0.0934
17966TIP3    H275314   3.867   5.085  12.292  3.4727 -0.7835 -1.4173
17967TIP3   OH275315   3.654   2.690   3.623  0.0125 -0.4700 -0.0106
17967TIP3    H175316   3.595   2.642   3.682 -1.6778 -0.0739 -1.3238
17967TIP3    H275317   3.595   2.740   3.566  1.6749  1.0761 -0.4175
17968TIP3   OH275318   6.455   4.234  16.852  0.6672 -0.0465  0.2409
17968TIP3    H175319   6.459   4.268  16.763  1.0338  1.8675  0.9764
17968TIP3    H275320   6.370   4.192  16.858  1.5887 -2.2958 -1.7472
17969TIP3   OH275321   4.073   1.105  12.687  0.3403 -0.6738 -0.2305
17969TIP3    H175322   4.073   1.195  12.720 -0.3734 -1.0319  0.7761
17969TIP3    H275323   4.148   1.101  12.629 -0.2719  0.9006 -1.1846
17970TIP3   OH275324   0.708   4.060   4.182  0.2610  0.0222  0.3909
17970TIP3    H175325   0.711   4.109   4.264  1.6471 -1.8495  1.5054
17970TIP3    H275326   0.759   3.980   4.200 -1.9047 -1.8156 -1.3608
17971TIP3   OH275327   2.473   3.682   3.521  0.0205 -0.2178  0.2161
17971TIP3    H175328   2.554   3.667   3.471 -0.4292 -0.1034 -0.5600
17971TIP3    H275329   2.409   3.622   3.481 -1.2954  2.3403 -1.6807
17972TIP3   OH275330   4.851   1.577  13.744 -0.2096  0.5013 -0.2813
17972TIP3    H175331   4.853   1.583  13.649 -1.4523 -0.3757 -0.3727
17972TIP3    H275332   4.792   1.504  13.762 -0.7700  1.3054  1.1798
17973TIP3   OH275333   1.143   4.663  13.086 -0.2265  0.1208  0.2927
17973TIP3    H175334   1.223   4.664  13.033 -0.5897  0.4380 -0.2575
17973TIP3    H275335   1.138   4.751  13.123  0.5618 -0.4015  1.6813
17974TIP3   OH275336   3.010   1.905   3.222 -0.3296 -0.1061  0.6062
17974TIP3    H175337   3.007   1.947   3.308 -1.2397 -1.2467  1.1469
17974TIP3    H275338   2.946   1.834   3.228 -0.7330  0.0895 -1.1766
17975TIP3   OH275339   5.489   0.919   5.566  0.3964  0.4864  0.2476
17975TIP3    H175340   5.575   0.961   5.569 -0.6283  2.8574 -1.5653
17975TIP3    H275341   5.429   0.985   5.601 -0.8780 -0.5308 -0.0080
17976TIP3   OH275342   3.097   5.912   0.683 -0.0704  0.3630  0.3185
17976TIP3    H175343   3.144   5.905   0.766  2.8907  2.1946 -1.1037
17976TIP3    H275344   3.056   5.826   0.671  3.0646 -1.3978  1.6356
17977TIP3   OH275345   1.043   4.574   1.940 -0.1935  0.0324 -0.1687
17977TIP3    H175346   1.037   4.641   1.871 -0.8430  0.3838  0.2155
17977TIP3    H275347   0.964   4.588   1.993  0.7619  0.3617  1.1896
17978TIP3   OH275348   0.092   6.377   5.346 -0.1114  0.3777 -0.0489
17978TIP3    H175349   0.050   6.460   5.368 -1.4320 -0.0938 -0.7750
17978TIP3    H275350   0.095   6.375   5.251 -1.9728 -1.3095 -0.1110
17979TIP3   OH275351   3.613   3.513  14.447  0.0095  0.5627  0.4000
17979TIP3    H175352   3.551   3.542  14.513 -1.8761  1.6409 -1.7646
17979TIP3    H275353   3.690   3.570  14.459 -0.5095  1.0747  1.3224
17980TIP3   OH275354   1.306   0.331  10.963  0.2044  0.9346 -0.3065
17980TIP3    H175355   1.339   0.379  10.887 -0.6966  1.1200 -0.5907
17980TIP3    H275356   1.319   0.239  10.940  0.3073  1.0018 -0.5199
17981TIP3   OH275357   2.764   3.897   3.523  0.0025  0.2285 -0.0622
17981TIP3    H175358   2.817   3.871   3.598  0.5121  3.6178  0.8499
17981TIP3    H275359   2.822   3.953   3.472 -0.7258 -1.0765 -2.3980
17982TIP3   OH275360   0.131   4.542  14.432  0.4780  0.2437  0.1179
17982TIP3    H175361   0.047   4.510  14.465  1.4092 -1.8958  0.5477
17982TIP3    H275362   0.156   4.613  14.492 -0.3025 -0.1508  0.9201
17983TIP3   OH275363   6.330   5.464  11.290 -0.4179  0.4253  0.2309
17983TIP3    H175364   6.318   5.371  11.310  0.8316  0.4635  1.2091
17983TIP3    H275365   6.411   5.488  11.336 -2.3049  2.7140  2.5238
17984TIP3   OH275366   0.998   3.023  14.153 -0.2108  0.0122 -0.3762
17984TIP3    H175367   0.917   2.972  14.145  0.9768 -1.6253 -2.9575
17984TIP3    H275368   1.065   2.958  14.176  0.3950  1.3576  1.8182
17985TIP3   OH275369   3.841   6.603   4.576  0.3598 -0.1532  0.0895
17985TIP3    H175370   3.906   6.669   4.548 -0.1888 -1.0531 -3.6413
17985TIP3    H275371   3.757   6.645   4.563  0.0271 -1.2966 -1.6574
17986TIP3   OH275372   5.196   5.339   2.961 -0.0721  0.2037  0.0729
17986TIP3    H175373   5.117   5.315   2.913  0.2062 -0.4024 -0.0888
17986TIP3    H275374   5.169   5.343   3.052 -0.7341  1.8986 -0.1814
17987TIP3   OH275375   1.097   5.815  14.753  0.0070  0.1786 -0.6440
17987TIP3    H175376   1.135   5.903  14.759  2.2552 -0.8433  0.6910
17987TIP3    H275377   1.012   5.823  14.795  0.9000  1.3591  0.9856
17988TIP3   OH275378   0.593   0.137   0.470 -0.1366  0.3210 -0.2610
17988TIP3    H175379   0.646   0.057   0.467 -0.0609  0.4103 -3.1473
17988TIP3    H275380   0.546   0.137   0.386  0.1491  3.5041 -0.4808
17989TIP3   OH275381   0.239   4.150  11.288  0.2414  0.1150  0.1602
17989TIP3    H175382   0.299   4.190  11.225 -1.3575 -0.7057 -1.9306
17989TIP3    H275383   0.285   4.071  11.317  0.3951 -0.2650 -1.0780
17990TIP3   OH275384   0.013   5.239  14.721 -0.2396  0.5756 -0.5758
17990TIP3    H175385   0.108   5.234  14.710 -0.1609  1.2377 -0.2684
17990TIP3    H275386  -0.015   5.148  14.728  0.4759  0.3937  0.0994
17991TIP3   OH275387   4.964   5.781  14.873  0.0158 -0.3821 -0.8428
17991TIP3    H175388   4.914   5.753  14.950 -0.1962  0.4998 -0.6530
17991TIP3    H275389   4.957   5.708  14.812 -1.1183 -0.4500 -0.6413
17992TIP3   OH275390   3.861   1.629  13.812  0.2682  0.5986 -0.2421
17992TIP3    H175391   3.813   1.712  13.810 -0.4802  0.1388 -1.4732
17992TIP3    H275392   3.793   1.562  13.814  0.8677 -0.0347 -1.0162
17993TIP3   OH275393   4.700   3.732   1.845  0.0831  0.2654 -0.6064
17993TIP3    H175394   4.788   3.745   1.810 -0.1037 -0.9890 -1.5848
17993TIP3    H275395   4.644   3.724   1.768 -0.3320 -2.5381 -0.0916
17994TIP3   OH275396   3.666   3.352  14.694 -0.5040  0.3654  0.2807
17994TIP3    H175397   3.701   3.274  14.652 -0.1145  1.3365 -1.2647
17994TIP3    H275398   3.590   3.376  14.641 -0.3310  1.3020  0.4347
17995TIP3   OH275399   1.247   6.230  15.991 -0.4342  0.2301  0.0861
17995TIP3    H175400   1.246   6.179  16.072 -0.0704 -0.2520 -0.2112
17995TIP3    H275401   1.155   6.240  15.968 -0.4722 -1.7003 -0.7192
17996TIP3   OH275402   6.400   5.425   6.414 -0.1958  0.7495  0.0877
17996TIP3    H175403   6.337   5.454   6.480 -1.0304 -0.3595 -0.1986
17996TIP3    H275404   6.346   5.405   6.338  0.4548 -0.7107  0.0078
17997TIP3   OH275405   4.185   1.730  10.741 -0.4543  0.8043 -0.1895
17997TIP3    H175406   4.118   1.751  10.676 -0.4932  0.5081 -0.2437
17997TIP3    H275407   4.239   1.663  10.699 -0.8933  0.1133  0.3561
17998TIP3   OH275408   6.682   2.422   1.787 -0.3824  0.5439 -0.1095
17998TIP3    H175409   6.700   2.396   1.878  0.2029 -1.2094 -0.6968
17998TIP3    H275410   6.764   2.461   1.757  0.3931 -1.5537 -0.7792
17999TIP3   OH275411   2.051   5.581  15.338  0.3441 -0.1463 -0.0806
17999TIP3    H175412   2.126   5.528  15.311 -0.3543 -0.0032 -2.3956
17999TIP3    H275413   2.029   5.633  15.261 -0.4400  1.8419  1.4269
18000TIP3   OH275414   3.949   0.574  12.032  0.0195  0.1320  0.0728
18000TIP3    H175415   4.001   0.596  11.955 -0.2284  0.9490  0.1453
18000TIP3    H275416   4.006   0.595  12.106  0.5337 -1.3273  0.1109
18001TIP3   OH275417   2.145   0.834  13.990  0.2625 -0.4297 -0.1066
18001TIP3    H175418   2.161   0.928  13.991  0.0841 -0.4007  1.7991
18001TIP3    H275419   2.129   0.813  13.898 -3.0622  2.0066 -0.1746
18002TIP3   OH275420   5.594   2.444   1.036  0.2583 -0.6933  0.6876
18002TIP3    H175421   5.627   2.473   0.951  1.1039  2.3623  1.9675
18002TIP3    H275422   5.670   2.447   1.094 -1.0624  1.0140  2.4113
18003TIP3   OH275423   6.255   3.990   6.025 -0.2412  0.0934  0.2896
18003TIP3    H175424   6.176   3.970   5.975 -0.0401  2.1470 -0.9146
18003TIP3    H275425   6.226   4.049   6.093 -0.0052 -0.4084  0.8299
18004TIP3   OH275426   2.721   1.439   0.398 -0.2125 -0.0494  0.2933
18004TIP3    H175427   2.683   1.443   0.310  0.1400  0.0324  0.1438
18004TIP3    H275428   2.650   1.465   0.456  0.2763  2.4967 -0.1650
18005TIP3   OH275429   3.423   3.546  11.683 -0.4996  0.2372 -0.2886
18005TIP3    H175430   3.426   3.479  11.616  0.2725  0.3197 -0.3349
18005TIP3    H275431   3.474   3.619  11.648 -0.0412  0.2593  0.3980
18006TIP3   OH275432   4.323   3.950   2.726 -0.1238  0.0502  0.9136
18006TIP3    H175433   4.269   3.898   2.666 -0.4371 -0.2415  1.4467
18006TIP3    H275434   4.314   4.040   2.695  0.5570 -0.2288 -0.1196
18007TIP3   OH275435   4.471   5.393   2.069  0.6763 -0.5375  0.3352
18007TIP3    H175436   4.502   5.401   1.978 -0.3576 -0.0805  0.0218
18007TIP3    H275437   4.450   5.483   2.095 -0.8896 -0.9077  0.3706
18008TIP3   OH275438   6.031   4.543   4.512 -0.2217 -0.7963  0.4316
18008TIP3    H175439   6.008   4.636   4.514  1.6311 -0.3508  2.1580
18008TIP3    H275440   5.951   4.498   4.538 -0.6207  0.4292  1.3534
18009TIP3   OH275441   1.897   3.409  14.041 -0.3617  0.0127 -0.3998
18009TIP3    H175442   1.883   3.317  14.018  0.6040 -1.0040  2.8706
18009TIP3    H275443   1.890   3.456  13.957 -1.2923 -2.9577 -2.0541
18010TIP3   OH275444   2.817   4.758   0.188  0.0898 -0.0388 -0.6418
18010TIP3    H175445   2.899   4.803   0.169 -0.7982  1.9701  0.1648
18010TIP3    H275446   2.758   4.785   0.119 -0.1070 -0.9692 -0.8518
18011TIP3   OH275447   6.426   6.626   3.388  0.0291  0.0424  0.1324
18011TIP3    H175448   6.420   6.532   3.367  0.6422  0.2253 -0.8871
18011TIP3    H275449   6.361   6.666   3.330 -1.2245  0.1174  1.5396
18012TIP3   OH275450   5.927   3.068   3.028 -0.2051  0.2734 -0.6946
18012TIP3    H175451   5.860   3.130   3.000 -0.8606  0.2942  0.8858
18012TIP3    H275452   5.904   3.047   3.118  1.8847  0.2563 -0.1343
18013TIP3   OH275453   6.006   2.592   5.224  0.8297  0.6507 -0.0304
18013TIP3    H175454   6.093   2.613   5.258  0.0110  1.4264  1.6788
18013TIP3    H275455   5.989   2.503   5.255  0.7948  0.7084  0.1180
18014TIP3   OH275456   5.356   2.078   5.641  0.0756  0.1973 -0.6129
18014TIP3    H175457   5.364   2.055   5.734 -0.7012 -0.5946 -0.7329
18014TIP3    H275458   5.376   2.171   5.637 -0.5412  0.3781  0.4441
18015TIP3   OH275459   5.256   2.932   1.262 -0.3162 -0.1963  0.1414
18015TIP3    H175460   5.300   2.847   1.251  0.2513  0.0625  0.3991
18015TIP3    H275461   5.310   2.979   1.325  0.4785  1.1108 -1.4727
18016TIP3   OH275462   1.613   3.580  16.561  0.4268 -0.4358 -0.0566
18016TIP3    H175463   1.636   3.601  16.651  0.1792  3.1887 -0.7754
18016TIP3    H275464   1.524   3.544  16.567 -0.0220  0.8287  1.0511
18017TIP3   OH275465   4.502   6.282   3.132  0.2457 -0.4348 -0.2536
18017TIP3    H175466   4.544   6.214   3.185 -0.6085 -0.4284  0.4472
18017TIP3    H275467   4.418   6.245   3.108  0.7419 -0.5360 -1.8470
18018TIP3   OH275468   5.656   2.943   5.812 -0.0297 -0.0631  0.5992
18018TIP3    H175469   5.591   2.953   5.743 -0.3461 -0.8553  0.7796
18018TIP3    H275470   5.685   2.852   5.805  2.5447  0.8028 -0.7926
18019TIP3   OH275471   6.062   5.412   2.197 -0.5611 -0.5475 -0.4233
18019TIP3    H175472   6.058   5.492   2.250 -0.5660 -0.7214 -0.1612
18019TIP3    H275473   6.138   5.364   2.231  0.9900  0.5350 -2.2783
18020TIP3   OH275474   5.195   6.266  15.131 -0.7991 -0.0519  0.2313
18020TIP3    H175475   5.128   6.201  15.106  1.4203 -2.3440  0.0361
18020TIP3    H275476   5.278   6.221  15.117  0.8126  2.7001  0.6177
18021TIP3   OH275477   0.806   1.269   2.068  0.6221 -0.0649 -0.4790
18021TIP3    H175478   0.765   1.252   2.153 -0.7902  0.3763 -1.0586
18021TIP3    H275479   0.832   1.183   2.036 -0.2577 -0.4033 -0.2923
18022TIP3   OH275480   6.629   6.041  16.683  0.0235 -0.1879 -0.1224
18022TIP3    H175481   6.605   6.017  16.593 -0.0122 -1.5998  0.2502
18022TIP3    H275482   6.720   6.070  16.676 -0.6878  1.9089 -0.9774
18023TIP3   OH275483   0.041   5.314  17.181  0.3246  0.1771  0.2631
18023TIP3    H175484  -0.021   5.354  17.242  0.8843  0.9522  0.3198
18023TIP3    H275485  -0.011   5.247  17.136 -0.8138  1.4299 -0.3275
18024TIP3   OH275486   6.619   4.136   0.366  0.1148 -0.1813  0.2431
18024TIP3    H175487   6.560   4.093   0.303  1.6076 -0.3328 -1.0792
18024TIP3    H275488   6.560   4.178   0.428 -1.3959 -1.2473 -0.4178
18025TIP3   OH275489   0.513   1.591   6.027 -0.2297 -1.1803  0.2825
18025TIP3    H175490   0.453   1.591   6.101  1.1925 -0.5087  1.4575
18025TIP3    H275491   0.476   1.655   5.966 -0.4082 -0.3216  1.2688
18026TIP3   OH275492   2.505   2.529  14.596  0.1768  0.0310  0.2713
18026TIP3    H175493   2.427   2.573  14.630  1.0875  0.7956  1.4423
18026TIP3    H275494   2.532   2.470  14.666  0.1002 -0.9466 -0.5151
18027TIP3   OH275495   5.600   1.644  13.561  0.4934  0.1692 -0.7449
18027TIP3    H175496   5.648   1.566  13.589 -1.0409 -0.6285 -0.2773
18027TIP3    H275497   5.569   1.683  13.643  0.6671  0.8811 -1.0176
18028TIP3   OH275498   1.920   5.687   3.032 -0.3850 -0.2703 -0.4412
18028TIP3    H175499   1.980   5.697   3.107  0.1414 -0.2424 -0.8638
18028TIP3    H275500   1.834   5.710   3.067 -0.3959 -1.7468  0.5529
18029TIP3   OH275501   0.872   6.560   0.984 -0.4595  0.1105 -0.3671
18029TIP3    H175502   0.911   6.566   0.897  4.7871  0.6028  1.7964
18029TIP3    H275503   0.801   6.623   0.984  2.1673  3.2583 -3.0292
18030TIP3   OH275504   5.953   1.879  10.544  0.1526  0.2659 -0.0404
18030TIP3    H175505   6.004   1.958  10.563 -0.6856  0.8264 -0.1278
18030TIP3    H275506   5.969   1.822  10.620  1.0998  0.3372 -0.1763
18031TIP3   OH275507   1.294   3.293  14.759 -0.0344 -0.2103  0.5607
18031TIP3    H175508   1.275   3.207  14.722  1.8204 -0.6765  0.6489
18031TIP3    H275509   1.226   3.305  14.826 -0.9681 -1.1086 -0.1909
18032TIP3   OH275510   0.320   3.685  14.280  0.3064 -0.4793  0.2909
18032TIP3    H175511   0.357   3.622  14.218 -2.4518 -2.9412  1.0224
18032TIP3    H275512   0.353   3.656  14.366 -2.1939 -1.9271  0.8001
18033TIP3   OH275513   4.290   1.133   2.811 -0.1413 -0.3605  0.2712
18033TIP3    H175514   4.382   1.148   2.789 -0.3675  0.1584 -0.3269
18033TIP3    H275515   4.281   1.037   2.810  0.1512 -0.3834 -0.6730
18034TIP3   OH275516   0.823   4.226   5.118 -0.0718  0.4329 -0.2266
18034TIP3    H175517   0.750   4.171   5.148  1.8325 -0.1809  3.4874
18034TIP3    H275518   0.847   4.188   5.033 -2.5636 -0.7817 -0.4448
18035TIP3   OH275519   3.792   1.836   3.998 -0.4338 -0.4608  0.1840
18035TIP3    H175520   3.853   1.799   3.934  0.6716 -1.0163  1.5251
18035TIP3    H275521   3.758   1.761   4.046 -3.1992 -0.2739 -1.3838
18036TIP3   OH275522   5.130   2.132  11.874 -0.5303 -0.4932  0.1304
18036TIP3    H175523   5.165   2.068  11.937 -1.9077  0.3928  1.8403
18036TIP3    H275524   5.142   2.216  11.917 -0.1728  0.2807 -1.4398
18037TIP3   OH275525   5.101   6.423  12.692  0.2948  0.3590 -0.3552
18037TIP3    H175526   5.070   6.494  12.637 -0.7103  0.6577  0.5689
18037TIP3    H275527   5.128   6.354  12.631  3.0790  2.2100 -1.3402
18038TIP3   OH275528   1.044   5.575  11.723 -0.0529 -0.0388 -0.5140
18038TIP3    H175529   0.969   5.562  11.780 -0.1638  0.9271 -0.4370
18038TIP3    H275530   1.073   5.486  11.701 -1.8866 -0.4261 -1.4485
18039TIP3   OH275531   3.573   0.123  14.740 -0.0386 -0.3157  0.1127
18039TIP3    H175532   3.502   0.162  14.688 -0.1313 -1.6384 -0.7762
18039TIP3    H275533   3.562   0.161  14.827 -0.7354  0.8655 -0.4717
18040TIP3   OH275534   6.259   5.346  14.716  0.1080  0.4230 -0.3839
18040TIP3    H175535   6.315   5.372  14.642  0.4795 -1.7714 -0.9341
18040TIP3    H275536   6.174   5.385  14.697  0.2273 -0.0143 -1.9406
18041TIP3   OH275537   2.836   0.542  15.672  0.0419  0.6464 -0.7186
18041TIP3    H175538   2.830   0.581  15.759 -0.9017  0.2007 -0.5887
18041TIP3    H275539   2.928   0.555  15.647  0.6880 -0.5604  0.9496
18042TIP3   OH275540   5.212   6.598  14.072  0.2109 -0.0121  0.4719
18042TIP3    H175541   5.223   6.691  14.053  0.4647  0.0431  0.8818
18042TIP3    H275542   5.133   6.593  14.125  0.3018 -0.0077  0.6077
18043TIP3   OH275543   6.043   4.380  12.570 -0.0706 -0.4830  0.1258
18043TIP3    H175544   6.041   4.473  12.590  0.3387 -0.5664  0.5651
18043TIP3    H275545   6.094   4.374  12.489  0.2792 -0.3619  0.3334
18044TIP3   OH275546   3.894   3.369  13.040 -0.1869  0.3408 -0.0628
18044TIP3    H175547   3.904   3.273  13.038 -0.4813  0.1835  3.2777
18044TIP3    H275548   3.941   3.399  12.962  0.0431 -2.4954 -1.1091
18045TIP3   OH275549   1.601   3.172  15.774 -0.0590  0.1606 -0.1275
18045TIP3    H175550   1.548   3.120  15.715 -1.4616  1.1469  0.2373
18045TIP3    H275551   1.676   3.199  15.720 -0.5186 -0.2564 -0.9961
18046TIP3   OH275552   4.274   3.123   3.503 -0.1647 -0.3121 -0.3291
18046TIP3    H175553   4.318   3.042   3.530 -1.4031 -1.5058 -1.8067
18046TIP3    H275554   4.215   3.144   3.575  0.4580 -0.5112  0.2354
18047TIP3   OH275555   3.457   4.344   2.785  0.2037  0.1214 -0.1762
18047TIP3    H175556   3.449   4.424   2.734 -1.6207  0.1877  0.2047
18047TIP3    H275557   3.381   4.291   2.761 -0.2309 -0.2090  1.8178
18048TIP3   OH275558   2.046   3.639   1.265 -0.2887  0.4610 -0.3728
18048TIP3    H175559   1.969   3.676   1.309 -0.6190  1.1347 -1.5004
18048TIP3    H275560   2.054   3.551   1.302 -0.6781  0.9386  0.8829
18049TIP3   OH275561   5.469   2.083  14.677 -0.0394  0.2045  0.1157
18049TIP3    H175562   5.484   2.177  14.688 -0.4623  0.6060 -2.3894
18049TIP3    H275563   5.472   2.070  14.582 -0.5409 -2.2226  0.4179
18050TIP3   OH275564   5.409   6.323   6.258  0.4415  0.0261 -0.4127
18050TIP3    H175565   5.360   6.318   6.177 -0.9214  0.6825  0.3559
18050TIP3    H275566   5.356   6.276   6.322  0.6482  0.9931  0.5007
18051TIP3   OH275567   5.102   1.931  15.606  0.0275 -0.4361 -0.4693
18051TIP3    H175568   5.198   1.925  15.605  0.1732  0.4112  2.5195
18051TIP3    H275569   5.080   1.986  15.532  2.0169  0.8762 -0.1070
18052TIP3   OH275570   4.819   1.952  10.298  0.5687 -0.0335  0.0911
18052TIP3    H175571   4.886   1.965  10.364  1.9829  1.6580 -1.6176
18052TIP3    H275572   4.774   2.036  10.291  1.0405  0.0938 -1.7182
18053TIP3   OH275573   4.947   4.117  10.970  0.0014  0.1883  0.3023
18053TIP3    H175574   4.905   4.196  10.935  0.1903  0.4047  0.5631
18053TIP3    H275575   4.904   4.045  10.924 -0.9155  0.3923  0.8379
18054TIP3   OH275576   1.555   3.713  11.054 -0.0753 -0.1037 -0.0779
18054TIP3    H175577   1.603   3.634  11.077  0.4758 -0.3005 -1.8091
18054TIP3    H275578   1.571   3.724  10.960 -0.0260  2.1295  0.1580
18055TIP3   OH275579   4.732   1.306   1.420 -0.2729  0.0163  0.0537
18055TIP3    H175580   4.825   1.323   1.402 -0.0038  0.3438  1.6714
18055TIP3    H275581   4.686   1.337   1.341  1.0147 -0.5593 -0.9465
18056TIP3   OH275582   1.074   1.082  15.443  0.3365  0.4325  0.5115
18056TIP3    H175583   1.120   1.000  15.430  0.1344 -0.1148  3.0583
18056TIP3    H275584   1.052   1.084  15.536 -5.2556  0.4283 -0.6294
18057TIP3   OH275585   4.062   6.128  16.289  0.0557 -0.0466 -0.2646
18057TIP3    H175586   4.079   6.095  16.377 -1.3326 -0.9208 -0.3104
18057TIP3    H275587   3.978   6.173  16.295  0.0720  0.1118 -1.0886
18058TIP3   OH275588   0.245   0.907  16.589  0.6002  0.3189  0.3595
18058TIP3    H175589   0.283   0.955  16.662  1.7911  1.8090 -1.1889
18058TIP3    H275590   0.231   0.973  16.521  0.0247 -1.1123 -0.9610
18059TIP3   OH275591   1.518   6.476   2.971 -0.4056 -0.1100  0.0785
18059TIP3    H175592   1.484   6.513   2.890 -0.2701  1.0668  0.5485
18059TIP3    H275593   1.448   6.419   3.003  0.2067 -1.8836 -1.7209
18060TIP3   OH275594   3.951   1.089  12.187 -0.6314 -0.2715 -0.1595
18060TIP3    H175595   3.954   1.068  12.281  0.2671  2.2468  0.4070
18060TIP3    H275596   3.915   1.177  12.183 -3.2234 -1.3698 -2.3959
18061TIP3   OH275597   1.604   2.817  10.694  0.2417  0.1298  0.0830
18061TIP3    H175598   1.524   2.765  10.690  0.3063  0.0631 -0.3453
18061TIP3    H275599   1.675   2.752  10.689  0.3272  0.3083 -1.3410
18062TIP3   OH275600   6.481   6.165  11.296  0.2082 -0.2068 -0.5211
18062TIP3    H175601   6.548   6.097  11.293 -0.2584 -0.7648  1.0539
18062TIP3    H275602   6.529   6.246  11.308  0.5853 -0.6609  1.1256
18063TIP3   OH275603   0.294   3.163  11.432  0.0191  0.1171 -0.3624
18063TIP3    H175604   0.231   3.128  11.370  1.6870 -1.4935 -1.1998
18063TIP3    H275605   0.293   3.102  11.505  1.5933 -0.7450 -1.0168
18064TIP3   OH275606   3.769   1.407   5.551  0.1477 -0.6812 -0.7255
18064TIP3    H175607   3.694   1.457   5.582 -0.2500 -1.2299 -0.7949
18064TIP3    H275608   3.733   1.321   5.528  1.3109 -1.9582  2.0801
18065TIP3   OH275609   0.559   5.247   0.920  0.4863 -0.6116 -0.4606
18065TIP3    H175610   0.513   5.172   0.956  0.2116 -0.4674 -0.5099
18065TIP3    H275611   0.602   5.288   0.995 -1.4967  0.6904 -0.0025
18066TIP3   OH275612   3.637   3.516   5.747 -0.0961  0.2032 -0.4248
18066TIP3    H175613   3.639   3.607   5.776 -0.8953 -0.0017  0.2767
18066TIP3    H275614   3.682   3.517   5.663  0.5373  1.1253 -0.0831
18067TIP3   OH275615   3.126   2.881   6.004  0.0962 -0.0995 -0.6260
18067TIP3    H175616   3.138   2.948   6.072 -0.2220 -0.4069 -0.2635
18067TIP3    H275617   3.123   2.798   6.053 -0.7259 -0.2716 -0.9632
18068TIP3   OH275618   4.398   0.576  14.735 -0.3959 -0.1950 -0.3534
18068TIP3    H175619   4.479   0.622  14.716 -1.2231  0.7726 -1.6599
18068TIP3    H275620   4.345   0.588  14.656 -1.9056 -0.6012  0.5796
18069TIP3   OH275621   2.775   1.755  16.688  0.1182  0.2986  0.0303
18069TIP3    H175622   2.836   1.828  16.674  0.6806 -0.3261 -0.8387
18069TIP3    H275623   2.743   1.767  16.777  0.0527  1.7283 -0.1684
18070TIP3   OH275624   4.023   0.949  10.811  0.2363  0.1932 -0.0936
18070TIP3    H175625   4.055   1.004  10.882  1.1677  0.2223 -0.5307
18070TIP3    H275626   3.975   1.009  10.754 -0.1975  0.2358  0.3174
18071TIP3   OH275627   5.474   3.105   4.450 -0.2402  1.0397  0.3921
18071TIP3    H175628   5.537   3.132   4.383  1.5373  0.7152  1.9144
18071TIP3    H275629   5.519   3.037   4.500 -1.9184  0.5675  1.3056
18072TIP3   OH275630   1.661   3.521  12.122 -0.0587  0.3328 -0.8176
18072TIP3    H175631   1.666   3.614  12.143  0.0178  0.3597 -0.9515
18072TIP3    H275632   1.694   3.515  12.032 -0.0687  0.1779 -0.8116
18073TIP3   OH275633   4.259   0.190   3.258 -0.3342 -0.2845  0.2314
18073TIP3    H175634   4.349   0.181   3.227 -0.8873  0.4905 -1.7070
18073TIP3    H275635   4.265   0.183   3.353  1.8828  0.5718  0.1776
18074TIP3   OH275636   4.025   2.726   4.090 -0.0071 -0.1519 -0.4086
18074TIP3    H175637   4.014   2.770   4.174 -1.4141  0.0641 -0.6959
18074TIP3    H275638   4.091   2.778   4.044  0.5109 -0.0709  0.4111
18075TIP3   OH275639   4.008   5.451   1.014 -0.6853  0.3272  0.3862
18075TIP3    H175640   4.016   5.404   0.931 -0.9901  0.7119  0.1389
18075TIP3    H275641   4.089   5.502   1.020 -0.6417  0.2626  0.3522
18076TIP3   OH275642   5.528   4.323   5.107 -0.5610  0.2722 -0.6491
18076TIP3    H175643   5.534   4.417   5.125 -1.6402  0.1706  0.3023
18076TIP3    H275644   5.463   4.315   5.038 -1.0007  0.1776 -0.2299
18077TIP3   OH275645   4.702   4.220   6.178  0.0663 -0.7663  0.4503
18077TIP3    H175646   4.714   4.137   6.132 -3.1349 -0.6838 -0.7056
18077TIP3    H275647   4.647   4.198   6.254 -0.2077  0.1559  0.5339
18078TIP3   OH275648   3.408   3.057  13.653 -0.1586  0.1843  0.2868
18078TIP3    H175649   3.382   2.995  13.585  0.5250  0.9502 -0.6953
18078TIP3    H275650   3.422   3.139  13.605  0.3741  0.7200  1.3557
18079TIP3   OH275651   3.044   6.586   1.380  0.1969 -0.2360 -0.2178
18079TIP3    H175652   3.026   6.613   1.470  1.6826  1.1564 -0.3163
18079TIP3    H275653   2.958   6.570   1.342 -0.5028  0.2905  1.1186
18080TIP3   OH275654   5.757   3.126  12.560 -0.0636 -0.9239  0.2004
18080TIP3    H175655   5.740   3.040  12.522  1.9704 -0.1866 -2.4413
18080TIP3    H275656   5.684   3.180  12.529 -0.2353 -1.1595  0.1856
18081TIP3   OH275657   5.565   0.028   0.570  0.1397  0.3881  0.0020
18081TIP3    H175658   5.487  -0.026   0.568  0.2124  0.2600  0.4818
18081TIP3    H275659   5.631  -0.023   0.522  0.0798  0.2585  0.0584
18082TIP3   OH275660   0.231   3.637  10.484  0.4180  0.4968 -0.0431
18082TIP3    H175661   0.204   3.690  10.559  0.0302 -0.9189  0.8359
18082TIP3    H275662   0.312   3.678  10.454 -0.1490  1.8958  0.2888
18083TIP3   OH275663   6.668   2.866   1.622  0.2459 -0.0347 -0.4403
18083TIP3    H175664   6.712   2.941   1.662  2.2273 -1.4260  0.0487
18083TIP3    H275665   6.592   2.904   1.578  1.0294  2.2183  0.0831
18084TIP3   OH275666   1.986   5.107   5.594  0.2277 -0.4300 -0.1480
18084TIP3    H175667   2.082   5.104   5.596  0.2325 -0.9162 -0.9808
18084TIP3    H275668   1.959   5.025   5.637  0.1695  0.1167  0.8860
18085TIP3   OH275669   1.430   1.897  16.358  0.0670  0.0242 -0.1057
18085TIP3    H175670   1.443   1.809  16.321  0.9385 -0.0883  0.4704
18085TIP3    H275671   1.336   1.900  16.377  0.2990 -1.3777  1.3756
18086TIP3   OH275672   4.942   1.556   5.675 -0.5505  0.1120  0.2246
18086TIP3    H175673   4.973   1.571   5.586 -1.0356  2.1804  0.3823
18086TIP3    H275674   5.022   1.541   5.726 -0.0892  1.3627 -0.1145
18087TIP3   OH275675   3.141   3.660   0.963  0.2492 -0.1960 -0.3518
18087TIP3    H175676   3.086   3.587   0.932  1.5787 -0.4429 -2.2246
18087TIP3    H275677   3.110   3.736   0.914  0.3749  0.0389 -0.0684
18088TIP3   OH275678   1.514   2.811  14.887 -0.0273 -0.6746  0.5911
18088TIP3    H175679   1.451   2.766  14.943 -0.2177 -1.6364 -0.3706
18088TIP3    H275680   1.598   2.801  14.932 -0.2947 -0.8090  1.0591
18089TIP3   OH275681   5.174   2.555  11.306 -0.2605  0.2856  0.3597
18089TIP3    H175682   5.115   2.630  11.305 -2.3819 -1.3625 -1.0879
18089TIP3    H275683   5.180   2.527  11.215  0.5216 -1.2972  0.8737
18090TIP3   OH275684   3.512   0.654   1.022  0.4087  0.0294  0.7305
18090TIP3    H175685   3.461   0.652   0.941  2.2173  0.2416 -0.4277
18090TIP3    H275686   3.448   0.635   1.090 -0.8002 -2.0899 -0.9172
18091TIP3   OH275687   2.814   3.036   4.370 -0.1382  0.1045  0.1204
18091TIP3    H175688   2.908   3.018   4.364 -0.3696 -1.2533  0.4444
18091TIP3    H275689   2.804   3.125   4.334  1.2735  0.2956  0.1760
18092TIP3   OH275690   3.372   1.737   4.052  0.0191  0.2429 -0.4597
18092TIP3    H175691   3.329   1.716   3.969  0.9535 -2.0843 -0.4037
18092TIP3    H275692   3.403   1.826   4.042 -1.4341  0.6026 -1.9452
18093TIP3   OH275693   1.255   4.695  12.063  0.1637  0.0629 -0.2149
18093TIP3    H175694   1.201   4.666  11.988 -0.2978 -2.3037  0.9716
18093TIP3    H275695   1.252   4.790  12.059 -4.3331  0.0543 -0.0926
18094TIP3   OH275696   1.035   5.144  13.651 -0.3019 -0.4344  0.2651
18094TIP3    H175697   1.068   5.087  13.581 -1.7360 -0.0606 -0.7457
18094TIP3    H275698   0.975   5.204  13.606 -2.1279 -0.9128  2.0024
18095TIP3   OH275699   4.564   5.412   0.329 -0.0479 -0.5103 -0.5201
18095TIP3    H175700   4.516   5.447   0.253  0.6752  1.2082 -0.2251
18095TIP3    H275701   4.632   5.357   0.292  0.0035 -0.0524 -1.1140
18096TIP3   OH275702   6.427   3.014   1.817 -0.2903  0.1774  0.6120
18096TIP3    H175703   6.370   2.959   1.870 -0.0510  1.9911  2.8349
18096TIP3    H275704   6.383   3.019   1.732 -1.3171 -1.7750  0.9941
18097TIP3   OH275705   6.538   6.724   4.856 -0.3862 -0.2701  0.2240
18097TIP3    H175706   6.606   6.661   4.882 -0.0813  1.0997  2.8102
18097TIP3    H275707   6.476   6.672   4.805  1.3139 -2.0741 -0.0581
18098TIP3   OH275708   4.789   0.273   0.682 -0.1179 -0.0937  0.5150
18098TIP3    H175709   4.844   0.234   0.615 -0.3575  0.2593  0.1079
18098TIP3    H275710   4.736   0.201   0.715  0.4688 -0.3988  0.7876
18099TIP3   OH275711   1.550   1.401  16.417  0.6893 -0.3998  0.4846
18099TIP3    H175712   1.610   1.332  16.445  0.1466 -1.4028 -0.7103
18099TIP3    H275713   1.513   1.367  16.335  1.3557  1.8939 -0.7805
18100TIP3   OH275714   1.531   2.212   2.949 -0.0320 -0.2027 -0.4008
18100TIP3    H175715   1.493   2.148   3.009 -0.8642 -0.3791 -1.1059
18100TIP3    H275716   1.625   2.206   2.965 -0.2775  0.2570  1.3825
18101TIP3   OH275717   5.660   0.067  11.758  0.6755  1.0122 -0.0538
18101TIP3    H175718   5.699  -0.013  11.723 -1.5063 -1.3219  2.6369
18101TIP3    H275719   5.667   0.058  11.853 -0.5171  3.5635  0.3239
18102TIP3   OH275720   0.330   2.429  13.599  0.0143  0.4073  0.3756
18102TIP3    H175721   0.407   2.452  13.651 -0.5138  0.6036  1.0879
18102TIP3    H275722   0.266   2.497  13.621  0.0018  0.8833 -1.0539
18103TIP3   OH275723   6.255   1.834   4.922 -0.0393  0.1817 -0.4795
18103TIP3    H175724   6.343   1.872   4.923  0.2501 -0.5087  0.7594
18103TIP3    H275725   6.200   1.902   4.883  0.9873  0.7313 -0.9875
18104TIP3   OH275726   4.857   3.361  11.613 -0.5302  0.0872 -0.1536
18104TIP3    H175727   4.831   3.410  11.535  0.4911  2.2414  0.8110
18104TIP3    H275728   4.776   3.351  11.663 -1.0082 -0.4494 -1.0261
18105TIP3   OH275729   3.137   0.909  15.483 -0.2138 -0.1936 -0.1629
18105TIP3    H175730   3.069   0.844  15.465 -0.5997  0.4723 -1.1489
18105TIP3    H275731   3.112   0.986  15.431  0.3252  0.6905  0.8505
18106TIP3   OH275732   1.816   0.896  16.999  0.0034 -0.2574  0.5278
18106TIP3    H175733   1.813   0.981  16.955  0.3181 -0.3536  0.3201
18106TIP3    H275734   1.906   0.889  17.033  0.4410 -1.1577 -0.7537
18107TIP3   OH275735   0.909   0.089  13.312 -0.5720 -0.0837  0.0380
18107TIP3    H175736   0.927   0.026  13.382 -2.0671 -1.3781 -0.7398
18107TIP3    H275737   0.930   0.043  13.231  0.0861  1.0453 -0.4456
18108TIP3   OH275738   1.822   3.180  12.396  0.3927  0.7706 -1.0358
18108TIP3    H175739   1.842   3.151  12.307 -1.1213 -1.9132 -0.5646
18108TIP3    H275740   1.821   3.099  12.447 -0.3375  2.1038  1.0961
18109TIP3   OH275741   1.471   0.360  11.875 -0.0466  0.2592  1.2680
18109TIP3    H175742   1.467   0.332  11.784  0.9686  0.6393  1.1049
18109TIP3    H275743   1.416   0.298  11.922 -0.2988 -0.1375  0.4455
18110TIP3   OH275744   0.802   2.501  16.357  0.5586 -0.0751 -0.7194
18110TIP3    H175745   0.887   2.488  16.399  1.5132  0.5915 -2.4092
18110TIP3    H275746   0.773   2.413  16.335  0.5283 -0.3516  0.4024
18111TIP3   OH275747   2.620   1.473  16.896  0.1564 -0.5018  0.2226
18111TIP3    H175748   2.677   1.405  16.859  0.1666  0.5780 -1.7689
18111TIP3    H275749   2.551   1.424  16.940  2.6650 -1.8632  2.8539
18112TIP3   OH275750   5.275   2.102   0.239 -0.3680 -0.6727  0.3697
18112TIP3    H175751   5.304   2.186   0.203 -2.1345 -0.0628  0.3057
18112TIP3    H275752   5.351   2.044   0.229  1.7455  1.5651  2.7394
18113TIP3   OH275753   2.894   3.335   0.451 -0.2307  0.0551 -0.1104
18113TIP3    H175754   2.811   3.339   0.498 -0.4567 -3.9720  0.0375
18113TIP3    H275755   2.960   3.360   0.515 -1.0270 -0.0151  0.7421
18114TIP3   OH275756   6.284   2.598  17.204  0.3119  0.1851  0.4745
18114TIP3    H175757   6.326   2.681  17.227 -2.1912  1.6417 -0.0854
18114TIP3    H275758   6.287   2.547  17.285  1.7594  0.8455  0.8583
18115TIP3   OH275759   3.723   0.866   1.365  0.6159  0.6790 -0.3225
18115TIP3    H175760   3.724   0.908   1.451 -0.3431  2.0206 -0.9501
18115TIP3    H275761   3.767   0.928   1.307  1.7553 -0.4667 -0.6998
18116TIP3   OH275762   1.005   6.181   2.085 -0.3037 -0.5547 -0.1019
18116TIP3    H175763   0.925   6.233   2.097  0.1586  0.0899  0.2357
18116TIP3    H275764   1.076   6.238   2.116  0.5908 -0.0674 -2.8877
18117TIP3   OH275765   2.809   5.692   6.403  0.3363  0.2383  0.2793
18117TIP3    H175766   2.778   5.760   6.463 -1.2884 -1.9248  1.9728
18117TIP3    H275767   2.894   5.666   6.440  1.2187  1.6738 -0.6806
18118TIP3   OH275768   4.295   0.465  12.093  0.2036  0.2740 -0.2345
18118TIP3    H175769   4.220   0.479  12.151  0.5681 -1.1234  0.5950
18118TIP3    H275770   4.371   0.471  12.150  0.6897  0.9362 -0.9419
18119TIP3   OH275771   0.312   1.181  10.529 -0.3682 -0.9428 -0.4095
18119TIP3    H175772   0.368   1.258  10.517 -1.5376  0.1281  0.8992
18119TIP3    H275773   0.374   1.109  10.537  0.7980  0.0199 -0.5109
18120TIP3   OH275774   1.859   5.542  14.003  0.2523 -0.3120  0.2973
18120TIP3    H175775   1.882   5.519  13.913 -1.3730 -2.2965  0.3511
18120TIP3    H275776   1.775   5.588  13.996 -0.1488 -0.9389  0.8098
18121TIP3   OH275777   4.995   2.131   0.196 -0.5999 -0.3797  0.4287
18121TIP3    H175778   5.090   2.136   0.198 -0.6006  0.1483 -1.0513
18121TIP3    H275779   4.967   2.182   0.273  0.2453  0.8606 -0.0757
18122TIP3   OH275780   3.583   5.267  11.936  0.2405  0.2661 -0.0292
18122TIP3    H175781   3.654   5.321  11.972 -0.2731  1.2329 -0.4343
18122TIP3    H275782   3.614   5.245  11.848 -0.3956  1.5757 -0.6065
18123TIP3   OH275783   3.992   5.758  15.470  0.2681  0.9059  0.2070
18123TIP3    H175784   4.056   5.688  15.454 -0.9919 -0.5088  1.1618
18123TIP3    H275785   3.980   5.800  15.385 -0.0804 -1.0421 -0.7473
18124TIP3   OH275786   0.384   3.303  14.554  0.2150 -0.4807  0.2968
18124TIP3    H175787   0.479   3.306  14.568  0.5972  0.1335 -2.2018
18124TIP3    H275788   0.350   3.258  14.631  2.6185 -1.4679  0.8251
18125TIP3   OH275789   6.000   4.089  12.694 -0.6424 -0.1802 -0.1560
18125TIP3    H175790   6.057   4.023  12.655 -0.6958 -0.1106 -0.3532
18125TIP3    H275791   6.046   4.172  12.679 -1.1936 -0.0335 -1.0522
18126TIP3   OH275792   3.433   5.566  17.141  0.3209  0.4323 -0.1450
18126TIP3    H175793   3.391   5.586  17.058 -0.7230 -2.1479 -0.2802
18126TIP3    H275794   3.479   5.484  17.126  2.1029  1.1532  1.1678
18127TIP3   OH275795   2.810   2.887   6.124 -0.1922  0.0023  0.0969
18127TIP3    H175796   2.759   2.844   6.192  1.2248  0.5740  1.5533
18127TIP3    H275797   2.812   2.979   6.150  1.8238 -0.0662  0.2412
18128TIP3   OH275798   0.819   3.405  13.904  0.1462  0.4971  0.3011
18128TIP3    H175799   0.827   3.443  13.991  1.3715  1.3951 -0.1875
18128TIP3    H275800   0.897   3.435  13.857 -0.6655  0.3048 -1.2085
18129TIP3   OH275801   3.201   5.140  11.245  0.0776 -0.5242  0.0739
18129TIP3    H175802   3.113   5.107  11.265 -1.1502  1.6115 -1.6177
18129TIP3    H275803   3.195   5.172  11.155  2.5229 -0.0836  0.0326
18130TIP3   OH275804   4.655   1.012   2.305 -0.0977 -0.2134  0.5893
18130TIP3    H175805   4.593   1.073   2.265  0.9785 -0.1410 -1.0528
18130TIP3    H275806   4.626   1.003   2.395 -1.9562  0.5090  0.0844
18131TIP3   OH275807   4.886   4.478   5.077  0.2566 -0.2221 -0.5935
18131TIP3    H175808   4.940   4.541   5.029 -0.6395 -1.2840 -3.0754
18131TIP3    H275809   4.949   4.417   5.116  0.9689  0.0402 -1.3222
18132TIP3   OH275810   0.851   6.039  15.793 -0.5693 -0.2687 -0.5137
18132TIP3    H175811   0.762   6.032  15.759 -0.5718  2.3873 -1.2097
18132TIP3    H275812   0.868   6.133  15.797  2.4601 -0.7099 -1.1073
18133TIP3   OH275813   4.062   3.354  15.703 -0.0939  0.4417 -0.5544
18133TIP3    H175814   4.035   3.405  15.779  1.0379 -1.2373  1.0014
18133TIP3    H275815   3.985   3.356  15.645 -2.2609 -1.0908  2.1229
18134TIP3   OH275816   6.282   0.049   3.878  0.1238 -0.1174 -0.5904
18134TIP3    H175817   6.340  -0.018   3.842 -0.0948 -0.3122 -0.5787
18134TIP3    H275818   6.216   0.000   3.928  0.2033  0.1278 -0.2393
18135TIP3   OH275819   3.176   2.123  15.091  0.2837 -0.0487 -0.6844
18135TIP3    H175820   3.189   2.037  15.052  0.8560 -0.0035 -0.5975
18135TIP3    H275821   3.263   2.164  15.088 -0.3137  1.1588 -2.2423
18136TIP3   OH275822   3.394   6.037   5.731  0.2027  0.1995  0.1943
18136TIP3    H175823   3.448   5.960   5.709 -0.7957 -0.7824  1.0892
18136TIP3    H275824   3.417   6.057   5.822  0.5570  1.0420 -0.0828
18137TIP3   OH275825   3.579   4.178  11.291  0.4334 -0.1134  0.2837
18137TIP3    H175826   3.621   4.242  11.233  1.1442 -2.6579 -2.1248
18137TIP3    H275827   3.653   4.132  11.331 -0.0640 -1.0322  0.1418
18138TIP3   OH275828   6.384   2.715  16.274 -0.1840  0.2615  0.0664
18138TIP3    H175829   6.311   2.778  16.273  0.1367  0.6729  1.4503
18138TIP3    H275830   6.400   2.696  16.182 -1.0770  1.2970 -0.3195
18139TIP3   OH275831   2.667   0.158  12.675 -0.1168 -0.3203  0.5778
18139TIP3    H175832   2.595   0.216  12.699 -0.9216 -0.9919 -0.1921
18139TIP3    H275833   2.744   0.215  12.674 -0.5495  0.3133  1.8333
18140TIP3   OH275834   6.025   6.405   0.734 -0.2028 -0.1201  0.4775
18140TIP3    H175835   6.103   6.371   0.780 -0.4160 -0.1411  0.8257
18140TIP3    H275836   5.975   6.327   0.711 -0.5441 -0.0598  1.0123
18141TIP3   OH275837   1.205   6.213   5.297  0.1171 -0.2473  0.6058
18141TIP3    H175838   1.166   6.290   5.257 -1.1907  0.0964  2.4772
18141TIP3    H275839   1.131   6.154   5.312  0.8014 -0.9746  1.1605
18142TIP3   OH275840   3.925   4.367   2.426 -0.2433 -0.0958 -0.2329
18142TIP3    H175841   4.009   4.397   2.390  0.6090 -0.9217  1.0295
18142TIP3    H275842   3.919   4.275   2.399  0.9577 -1.0648  2.6437
18143TIP3   OH275843   5.330   3.150   6.459 -0.5234  0.7609  0.1041
18143TIP3    H175844   5.302   3.241   6.445  0.0673  0.9468  0.0874
18143TIP3    H275845   5.319   3.108   6.374 -1.1709  0.7168  0.2119
18144TIP3   OH275846   5.367   2.220   0.922  0.5867 -0.2965  0.6293
18144TIP3    H175847   5.371   2.282   0.995  0.7248  1.7758 -1.1059
18144TIP3    H275848   5.456   2.215   0.889  0.4412 -0.8890  0.3143
18145TIP3   OH275849   4.364   2.202  12.683 -0.2029 -0.2058 -0.1619
18145TIP3    H175850   4.332   2.187  12.594 -0.6232 -0.6485  0.0621
18145TIP3    H275851   4.453   2.169  12.682 -0.5467 -1.1618 -0.1460
18146TIP3   OH275852   0.936   2.592  13.420 -0.2442 -0.0590  0.7895
18146TIP3    H175853   1.007   2.621  13.478  0.8577 -0.5168 -0.3084
18146TIP3    H275854   0.858   2.634  13.456  0.6642  0.9466  1.6604
18147TIP3   OH275855   5.236   4.477   3.343 -0.5515 -0.4806  0.1178
18147TIP3    H175856   5.244   4.482   3.439  1.0540 -2.1371  0.1065
18147TIP3    H275857   5.327   4.475   3.312 -1.0598  0.7279 -1.4860
18148TIP3   OH275858   2.183   5.814  12.477 -0.5762  0.3401  0.2100
18148TIP3    H175859   2.262   5.867  12.465  0.1073 -0.6610  0.2892
18148TIP3    H275860   2.111   5.876  12.461  0.2230  1.0116 -0.8905
18149TIP3   OH275861   5.705   2.222  12.578 -0.1013  0.4744 -0.2105
18149TIP3    H175862   5.696   2.220  12.673 -0.3143  3.0518 -0.1353
18149TIP3    H275863   5.640   2.159  12.546 -0.5578  0.1574  1.3211
18150TIP3   OH275864   0.325   3.651   4.411  0.2676  0.4986  0.5577
18150TIP3    H175865   0.259   3.709   4.374  1.7022  1.7910 -0.0601
18150TIP3    H275866   0.359   3.699   4.486  0.4296 -0.1936  0.9290
18151TIP3   OH275867   5.146   1.741  11.366  0.4229  0.9494 -0.1454
18151TIP3    H175868   5.171   1.775  11.451  0.3813 -2.3980  1.2878
18151TIP3    H275869   5.224   1.695  11.334 -0.6668 -0.9505 -0.1858
18152TIP3   OH275870   5.204   0.598  11.114  0.2542 -0.5137  0.0334
18152TIP3    H175871   5.166   0.538  11.051 -0.8521 -0.9204  1.0666
18152TIP3    H275872   5.295   0.568  11.124  0.4120 -0.4955 -1.2805
18153TIP3   OH275873   2.083   3.576  12.309 -0.6751  0.1629  0.6712
18153TIP3    H175874   2.072   3.663  12.349 -0.9557  0.3037  0.2839
18153TIP3    H275875   2.164   3.543  12.349  0.8123  1.6204 -1.0033
18154TIP3   OH275876   0.436   0.033   0.920  0.1039  0.1532 -0.9506
18154TIP3    H175877   0.446  -0.060   0.941 -0.2992  0.7089  1.8714
18154TIP3    H275878   0.426   0.035   0.825  0.5457 -2.6518 -1.0965
18155TIP3   OH275879   5.992   5.704   1.937 -0.4145  0.0693 -1.0232
18155TIP3    H175880   5.956   5.679   1.852 -0.5573  0.9588 -1.2365
18155TIP3    H275881   6.085   5.685   1.930 -0.6697 -1.2869 -0.8323
18156TIP3   OH275882   2.391   4.924  10.951 -0.0840 -0.0736  0.0731
18156TIP3    H175883   2.473   4.877  10.938  0.0718  0.6969 -2.0835
18156TIP3    H275884   2.361   4.945  10.862 -1.4661  1.6104  0.8870
18157TIP3   OH275885   0.470   0.679   4.413  0.2545  0.3687  0.2279
18157TIP3    H175886   0.540   0.660   4.351 -0.3591 -0.6865 -0.1627
18157TIP3    H275887   0.446   0.770   4.397  0.3515  0.2079 -0.8374
18158TIP3   OH275888   1.601   2.752   3.109  0.1921  0.3014 -0.1174
18158TIP3    H175889   1.531   2.816   3.102  0.0783  0.0840 -1.0396
18158TIP3    H275890   1.557   2.667   3.103  0.4711  0.1545 -0.1146
18159TIP3   OH275891   5.080   4.013  11.437 -0.3780  0.1562  1.0155
18159TIP3    H175892   4.998   4.002  11.485 -1.5321 -1.2333 -1.1623
18159TIP3    H275893   5.062   3.975  11.351  1.5754  2.6504 -0.5581
18160TIP3   OH275894   5.293   2.579   2.309  0.4909  0.4353 -0.4353
18160TIP3    H175895   5.234   2.506   2.293 -1.1039  0.9878  2.4939
18160TIP3    H275896   5.339   2.592   2.226  0.0625 -3.1763 -1.3125
18161TIP3   OH275897   2.229   2.087  12.477  0.1915  0.0619  0.0500
18161TIP3    H175898   2.172   2.156  12.510  0.2939  0.0424  0.2677
18161TIP3    H275899   2.252   2.116  12.388 -2.8874 -1.5750 -1.3694
18162TIP3   OH275900   5.660   0.835   4.572  0.0102  0.1295 -0.7071
18162TIP3    H175901   5.704   0.891   4.509 -0.5451 -0.4889 -1.6434
18162TIP3    H275902   5.569   0.830   4.542 -0.1871 -0.4371 -0.0468
18163TIP3   OH275903   6.289   0.881  13.637 -0.3441 -0.2278 -0.0564
18163TIP3    H175904   6.248   0.847  13.717 -1.6694  0.5477 -0.3984
18163TIP3    H275905   6.271   0.975  13.639  1.8516  0.2199  0.0324
18164TIP3   OH275906   0.590   3.603   6.126  0.0811 -0.4651  0.4692
18164TIP3    H175907   0.518   3.575   6.182  0.8811 -2.4162  0.5524
18164TIP3    H275908   0.666   3.604   6.184  0.0773  1.9881  0.4831
18165TIP3   OH275909   0.657   3.512   1.038 -0.4953 -0.3201 -0.0991
18165TIP3    H175910   0.696   3.503   1.125 -1.3071  0.6949  0.3829
18165TIP3    H275911   0.566   3.487   1.050 -0.7237  0.2776 -0.5582
18166TIP3   OH275912   2.815   5.901   2.984  0.6856 -0.0850  0.0879
18166TIP3    H175913   2.891   5.871   2.933 -0.2311  0.3046 -1.5647
18166TIP3    H275914   2.740   5.862   2.939 -0.2103  1.0647  0.5625
18167TIP3   OH275915   0.838   4.594   2.250  0.0882 -0.8358  0.4173
18167TIP3    H175916   0.817   4.604   2.157 -0.4714 -1.2214  0.4968
18167TIP3    H275917   0.847   4.683   2.282 -1.5785 -0.6492  0.3983
18168TIP3   OH275918   0.133   4.775  11.081 -0.1614  0.3232  0.2028
18168TIP3    H175919   0.178   4.826  11.013  0.0382  0.9152  0.7798
18168TIP3    H275920   0.138   4.685  11.049  0.3036  0.5443 -0.3695
18169TIP3   OH275921   5.203   2.929  14.820  0.0226  0.5209 -0.3907
18169TIP3    H175922   5.174   2.861  14.759  0.7220 -0.2676  0.1403
18169TIP3    H275923   5.122   2.958  14.863 -0.3672  0.4980 -1.1053
18170TIP3   OH275924   4.268   2.275  15.129 -0.3776  0.2300  0.5000
18170TIP3    H175925   4.264   2.182  15.109 -1.2115  0.6285 -1.2954
18170TIP3    H275926   4.360   2.298  15.116 -0.5976  0.1278 -1.3678
18171TIP3   OH275927   1.402   5.477   3.023 -0.2759  0.3405 -0.2392
18171TIP3    H175928   1.323   5.454   2.975  0.7170 -0.9398 -1.3010
18171TIP3    H275929   1.421   5.567   2.997 -1.1194  0.5035 -0.3154
18172TIP3   OH275930   1.745   1.803   1.850 -0.5042  0.1790  0.3823
18172TIP3    H175931   1.792   1.840   1.924 -0.3260  0.0678  0.3274
18172TIP3    H275932   1.750   1.870   1.782 -0.4731  0.1907  0.3959
18173TIP3   OH275933   1.012   6.254  13.340 -0.0531 -0.4565  0.0213
18173TIP3    H175934   0.932   6.303  13.360  1.0624  0.4400  2.3780
18173TIP3    H275935   1.083   6.316  13.358  1.2311 -1.5636 -1.1412
18174TIP3   OH275936   6.503   3.572  14.745 -0.1376 -0.0991  0.5008
18174TIP3    H175937   6.594   3.566  14.715 -0.2245 -1.1176  0.4090
18174TIP3    H275938   6.503   3.525  14.828 -0.8542 -1.2768 -0.1562
18175TIP3   OH275939   5.977   3.665  13.744  0.2845 -0.0016  0.4883
18175TIP3    H175940   5.967   3.709  13.829 -0.8950 -0.2172  0.4748
18175TIP3    H275941   5.893   3.622  13.730  0.1258  0.8658 -1.2848
18176TIP3   OH275942   0.548   4.283  17.145  0.1593  0.1279  0.3954
18176TIP3    H175943   0.598   4.364  17.128  0.6522 -0.2385  0.0823
18176TIP3    H275944   0.592   4.217  17.093  0.4501 -0.5897  1.5265
18177TIP3   OH275945   6.740   0.339  17.232  0.0113 -0.1041 -0.4898
18177TIP3    H175946   6.766   0.402  17.165 -0.8949  0.9912  0.1698
18177TIP3    H275947   6.655   0.306  17.202 -0.2185  0.1090 -0.0818
18178TIP3   OH275948   0.272   5.635   2.000 -0.1301  0.0626  0.4035
18178TIP3    H175949   0.340   5.587   1.953 -0.8702 -0.4091 -0.1891
18178TIP3    H275950   0.295   5.727   1.987 -0.5658 -0.0383 -1.2668
18179TIP3   OH275951   4.983   0.404  14.508  0.2208  0.0377 -0.2764
18179TIP3    H175952   4.996   0.427  14.416 -1.9534  0.1658 -0.5671
18179TIP3    H275953   4.893   0.430  14.527  0.3695 -0.7902  1.6495
18180TIP3   OH275954   4.912   4.009   6.537  0.2163  0.3239 -0.2491
18180TIP3    H175955   5.001   4.011   6.501 -0.3112  1.8001 -1.5860
18180TIP3    H275956   4.919   4.052   6.622  1.5096 -3.3098  1.6017
18181TIP3   OH275957   3.195   1.279   0.016  0.1657  0.2200  0.1614
18181TIP3    H175958   3.183   1.316  -0.072 -0.6848 -1.9466 -0.6519
18181TIP3    H275959   3.289   1.260   0.021 -0.2238 -2.2963 -1.3768
18182TIP3   OH275960   5.458   6.675   1.120  0.0144 -0.0004  0.0343
18182TIP3    H175961   5.514   6.710   1.189 -0.0613  1.9738 -0.8515
18182TIP3    H275962   5.519   6.639   1.056  0.2815  1.6048 -0.6461
18183TIP3   OH275963   2.565   5.266   0.379  0.5625  0.2554 -0.1804
18183TIP3    H175964   2.500   5.336   0.372  2.6868  2.2274 -0.6399
18183TIP3    H275965   2.540   5.217   0.457 -1.1885  1.2746 -0.0881
18184TIP3   OH275966   5.296   2.483   3.101 -0.5721  0.4951 -0.0328
18184TIP3    H175967   5.377   2.454   3.059 -0.2867  0.8308  0.2760
18184TIP3    H275968   5.264   2.406   3.148  0.2087  0.6773  0.8323
18185TIP3   OH275969   2.771   2.186  15.006 -0.0662  0.0666 -0.2366
18185TIP3    H175970   2.840   2.251  15.014  0.1851 -0.4067  1.6332
18185TIP3    H275971   2.787   2.144  14.921  0.2887  1.8120 -1.0504
18186TIP3   OH275972   6.298   4.727  13.268 -0.1336  0.2974  0.6513
18186TIP3    H175973   6.357   4.764  13.333 -0.0537  2.8736 -0.8385
18186TIP3    H275974   6.219   4.780  13.274 -0.6037 -0.2494 -0.4934
18187TIP3   OH275975   2.949   2.755  12.703  0.0177  0.2088 -0.2876
18187TIP3    H175976   2.900   2.827  12.742  0.5400  2.1515 -3.0135
18187TIP3    H275977   2.882   2.693  12.672 -0.6306  1.4367 -1.3903
18188TIP3   OH275978   2.057   2.524  14.853 -0.5156 -0.0501  0.3048
18188TIP3    H175979   2.004   2.527  14.773 -0.3841 -0.6501  0.1939
18188TIP3    H275980   1.994   2.519  14.924 -0.5928 -2.3390  0.0996
18189TIP3   OH275981   2.750   2.421   2.686  0.3086  0.2592 -0.1512
18189TIP3    H175982   2.735   2.326   2.682 -0.1584  0.3744 -1.1885
18189TIP3    H275983   2.835   2.430   2.729  0.4101 -0.6362 -0.1551
18190TIP3   OH275984   5.639   5.305   5.914 -0.5255 -0.1015  0.3110
18190TIP3    H175985   5.679   5.338   5.995  0.0457 -0.7196  0.2888
18190TIP3    H275986   5.618   5.383   5.864  0.0890  0.2567  0.6043
18191TIP3   OH275987   5.382   3.986   2.046 -0.8364  0.0329 -0.2498
18191TIP3    H175988   5.415   3.984   2.136 -1.4348  3.3336  0.0900
18191TIP3    H275989   5.333   3.904   2.036  1.6011 -1.6950  1.4785
18192TIP3   OH275990   2.603   2.285  11.400 -0.1472 -0.2534  0.1205
18192TIP3    H175991   2.557   2.261  11.481 -2.6710  0.8930 -0.9072
18192TIP3    H275992   2.567   2.226  11.333 -0.1187  0.6515 -0.7013
18193TIP3   OH275993   5.432   0.216   6.167 -0.2735  0.0518 -0.5816
18193TIP3    H175994   5.481   0.257   6.238  0.6779 -1.0468 -0.5926
18193TIP3    H275995   5.465   0.256   6.087  0.2481 -0.3098 -0.5508
18194TIP3   OH275996   3.470   0.996   1.341 -0.3619 -0.8646 -0.1285
18194TIP3    H175997   3.410   0.977   1.268 -0.8578  0.1870 -0.0036
18194TIP3    H275998   3.538   0.929   1.333 -1.4090 -1.9289 -0.4261
18195TIP3   OH275999   1.814   4.850   6.214 -0.4015 -0.0970  0.2540
18195TIP3    H176000   1.797   4.932   6.168 -2.2976 -1.4103 -1.4856
18195TIP3    H276001   1.727   4.815   6.234  0.3882 -0.7324  2.7904
18196TIP3   OH276002   5.176   3.130   6.095  0.4139  0.9145 -0.0169
18196TIP3    H176003   5.226   3.066   6.146  0.6485 -1.0883 -2.6320
18196TIP3    H276004   5.241   3.175   6.042  0.0741  2.4451  0.8226
18197TIP3   OH276005   3.996   4.959  15.295 -0.8444  0.1029 -0.5955
18197TIP3    H176006   4.005   4.961  15.199  0.8038  2.0363 -0.4415
18197TIP3    H276007   4.069   4.906  15.325 -2.3270 -1.9124 -0.4788
18198TIP3   OH276008   5.787   1.078  16.407 -0.3080  0.7387  0.1980
18198TIP3    H176009   5.761   1.029  16.485 -1.0020 -0.2830 -0.6675
18198TIP3    H276010   5.882   1.066  16.403 -0.3928 -0.0264  0.3366
18199TIP3   OH276011   1.545   2.660   1.417  0.3533  0.0179  0.3989
18199TIP3    H176012   1.451   2.643   1.410  0.4703 -0.2313 -0.6171
18199TIP3    H276013   1.564   2.653   1.511 -0.2690 -1.9019  0.3902
18200TIP3   OH276014   0.784   3.890  11.770  0.5494 -0.3541  0.2666
18200TIP3    H176015   0.689   3.879  11.770  0.7012 -1.8108  0.7280
18200TIP3    H276016   0.797   3.984  11.761 -0.9114 -0.2696 -1.5007
18201TIP3   OH276017   4.344   3.746   3.836  0.2317 -0.5192  0.2546
18201TIP3    H176018   4.410   3.684   3.806  2.4571  1.2112  1.4348
18201TIP3    H276019   4.273   3.691   3.868  1.1381 -2.4266 -0.9143
18202TIP3   OH276020   0.939   0.156   5.121  0.0640  0.0901  0.1706
18202TIP3    H176021   0.896   0.090   5.066 -0.7315 -0.6897  1.6783
18202TIP3    H276022   0.899   0.239   5.095 -1.5816 -0.4918  0.7947
18203TIP3   OH276023   6.739   4.902  11.236 -0.5646 -0.4782  0.0979
18203TIP3    H176024   6.780   4.880  11.320  2.3929  0.1559 -1.1270
18203TIP3    H276025   6.776   4.838  11.174 -2.2886 -0.5915 -0.8478
18204TIP3   OH276026   6.772   4.259   1.228  0.6169 -0.3496 -0.0319
18204TIP3    H176027   6.848   4.316   1.217  0.2883 -0.1317 -1.2119
18204TIP3    H276028   6.801   4.191   1.288  1.9893 -0.7334 -1.1179
18205TIP3   OH276029   3.821   5.100   0.613  0.2561  0.1946  0.1580
18205TIP3    H176030   3.824   5.052   0.530 -1.6740 -0.2742  0.3302
18205TIP3    H276031   3.782   5.184   0.591 -0.7803 -0.1403  0.6660
18206TIP3   OH276032   0.355   2.868  12.857 -0.2262  1.0061 -0.0705
18206TIP3    H176033   0.415   2.795  12.842 -0.4574  0.9629 -0.7797
18206TIP3    H276034   0.341   2.867  12.952 -0.0191  0.2960 -0.0393
18207TIP3   OH276035   1.723   5.653   5.863  0.5986 -0.4049  0.3618
18207TIP3    H176036   1.706   5.735   5.910 -2.0756 -0.9288  0.4069
18207TIP3    H276037   1.747   5.591   5.932 -0.1243 -0.3359  0.6911
18208TIP3   OH276038   2.004   4.150  11.387  0.2258  0.3826 -0.2739
18208TIP3    H176039   2.002   4.062  11.425  2.2841 -0.1370 -1.3147
18208TIP3    H276040   1.981   4.137  11.295 -0.7745  1.1235 -0.1404
18209TIP3   OH276041   4.472   1.211  16.855  0.0425 -0.0913 -0.0368
18209TIP3    H176042   4.403   1.151  16.883  0.5889 -0.6644  0.0939
18209TIP3    H276043   4.468   1.283  16.918  0.6856 -0.9530  1.0134
18210TIP3   OH276044   1.025   2.782  12.171 -0.2503  0.8461 -0.0484
18210TIP3    H176045   1.062   2.696  12.188 -0.1581  1.0048  0.5526
18210TIP3    H276046   1.020   2.787  12.075 -2.6037 -0.8109 -0.0605
18211TIP3   OH276047   6.411   2.794   5.686  0.2126  0.1866 -0.0240
18211TIP3    H176048   6.333   2.842   5.657  0.9709  0.5053 -1.5483
18211TIP3    H276049   6.438   2.744   5.609  1.5802  0.1521  0.4795
18212TIP3   OH276050   2.881   2.392   0.369  0.2455  0.0030  0.2788
18212TIP3    H176051   2.913   2.438   0.290  1.8761  0.0362  0.9325
18212TIP3    H276052   2.887   2.300   0.346  0.7144  0.0124  0.3574
18213TIP3   OH276053   0.652   5.853  11.004 -0.3190  0.7776 -0.2337
18213TIP3    H176054   0.662   5.788  10.935 -1.4030 -0.6236  0.9052
18213TIP3    H276055   0.740   5.867  11.038 -0.0813 -0.0348 -0.5217
18214TIP3   OH276056   5.079   0.343  16.236  0.1159 -0.0619  0.3286
18214TIP3    H176057   5.120   0.263  16.269  1.5195 -0.0144 -1.2501
18214TIP3    H276058   5.123   0.414  16.283  0.9925 -0.0740 -0.4656
18215TIP3   OH276059   1.891   4.421   3.462 -0.3891 -0.1101  0.2733
18215TIP3    H176060   1.965   4.377   3.503 -0.2389  0.1583  0.2940
18215TIP3    H276061   1.906   4.514   3.478 -0.5731 -0.0335  0.0152
18216TIP3   OH276062   0.832   4.903   2.596 -0.0985  0.2285 -0.3098
18216TIP3    H176063   0.860   4.839   2.661 -2.4814  0.1691  0.6853
18216TIP3    H276064   0.767   4.956   2.641 -0.4583  1.3432 -2.1055
18217TIP3   OH276065   4.785   0.942   3.795 -0.1843  0.1597  0.0896
18217TIP3    H176066   4.857   0.984   3.748 -0.7689  0.9599 -0.0905
18217TIP3    H276067   4.827   0.870   3.843  0.6117  0.1234 -0.6441
18218TIP3   OH276068   2.935   5.010   3.576 -0.0094 -0.8559 -0.6496
18218TIP3    H176069   2.973   5.007   3.664  1.3454  1.0329 -1.1362
18218TIP3    H276070   2.945   4.921   3.542  0.4379 -1.3310  0.7064
18219TIP3   OH276071   2.535   4.402  15.412 -0.1660 -0.2297 -0.8565
18219TIP3    H176072   2.467   4.462  15.444  0.2366 -0.4022  0.3496
18219TIP3    H276073   2.576   4.368  15.491  0.9181 -0.6102 -1.5750
18220TIP3   OH276074   2.589   0.024   2.287 -0.3589  0.4863 -0.7078
18220TIP3    H176075   2.612  -0.054   2.237 -0.6378 -1.5536  2.2159
18220TIP3    H276076   2.494   0.028   2.284 -0.3047  1.2309 -1.5807
18221TIP3   OH276077   3.921   5.199  14.197  0.3409 -0.2217 -0.2086
18221TIP3    H176078   3.963   5.221  14.114  0.0521 -0.9530 -0.5493
18221TIP3    H276079   3.829   5.188  14.175 -0.0573  1.4702  0.5526
18222TIP3   OH276080   5.480   1.957  16.775  0.0589  0.3494 -0.4093
18222TIP3    H176081   5.502   2.050  16.767  3.9164 -0.4740 -0.4384
18222TIP3    H276082   5.503   1.935  16.866 -3.1130 -0.0598  0.3350
18223TIP3   OH276083   6.544   3.133   4.750  0.9227  0.3762 -0.7493
18223TIP3    H176084   6.459   3.127   4.794  1.8360 -0.7673  0.9335
18223TIP3    H276085   6.533   3.203   4.686 -1.4771 -0.1789 -1.0028
18224TIP3   OH276086   6.373   3.379  13.799 -0.2184  0.2123  0.2394
18224TIP3    H176087   6.366   3.471  13.825 -1.1535 -0.0493  0.9338
18224TIP3    H276088   6.284   3.345  13.808  0.4527 -1.2060  1.7219
18225TIP3   OH276089   1.205   4.884   0.552  0.2194  0.2929  0.7234
18225TIP3    H176090   1.163   4.969   0.567  0.0927  0.2672  0.5213
18225TIP3    H276091   1.133   4.821   0.551  0.0995  0.4104 -0.9593
18226TIP3   OH276092   0.487   3.437  14.197 -0.2988 -0.2375  0.3297
18226TIP3    H176093   0.551   3.384  14.151 -0.5386 -0.1217 -0.1394
18226TIP3    H276094   0.404   3.391  14.183 -0.7037  0.8996 -1.0948
18227TIP3   OH276095   6.535   3.272   1.715 -0.0222 -0.0471 -0.4549
18227TIP3    H176096   6.505   3.362   1.729  1.0228  0.3881 -0.9789
18227TIP3    H276097   6.456   3.219   1.723 -0.9322  1.0780 -1.7245
18228TIP3   OH276098   1.795   2.031   4.711  0.0340  0.2587  0.7024
18228TIP3    H176099   1.781   1.952   4.659 -0.1221  0.7788 -0.0458
18228TIP3    H276100   1.719   2.034   4.770 -0.7549  0.6853 -0.3283
18229TIP3   OH276101   3.417   3.448   2.834  0.8378 -0.0303 -0.0323
18229TIP3    H176102   3.505   3.465   2.800  0.9902 -2.6961 -1.0979
18229TIP3    H276103   3.362   3.448   2.756 -0.0385  1.1188  0.5812
18230TIP3   OH276104   4.327   1.498   1.210  0.2386 -0.2516  0.4435
18230TIP3    H176105   4.277   1.566   1.255  0.3215 -0.2651  0.5552
18230TIP3    H276106   4.418   1.516   1.232  0.4222  0.6996 -1.0097
18231TIP3   OH276107   3.229   1.300   4.803 -0.1570  0.2136  0.2367
18231TIP3    H176108   3.217   1.360   4.729  0.7562 -0.7592 -0.7163
18231TIP3    H276109   3.276   1.351   4.868 -0.5884  0.9461 -0.0187
18232TIP3   OH276110   5.915   1.522  16.699  0.6135  0.2705  0.7848
18232TIP3    H176111   5.867   1.443  16.673  1.1512 -0.0616  0.8105
18232TIP3    H276112   5.893   1.534  16.791 -1.0092  1.2464  0.2960
18233TIP3   OH276113   4.740   4.318   1.589  0.4329  0.7106 -0.1061
18233TIP3    H176114   4.834   4.333   1.591  1.0059 -2.3403 -1.5588
18233TIP3    H276115   4.719   4.286   1.677  1.1172 -0.5278 -0.3849
18234TIP3   OH276116   3.604   6.607   3.181 -0.7579 -0.2568  0.0473
18234TIP3    H176117   3.545   6.634   3.111 -0.5523 -0.5102 -0.2227
18234TIP3    H276118   3.561   6.638   3.261 -0.5094  0.9091 -0.2629
18235TIP3   OH276119   4.299   2.925  11.999  0.1111 -0.1342 -0.0898
18235TIP3    H176120   4.273   2.918  11.907  0.0962 -0.9057 -0.0368
18235TIP3    H276121   4.249   2.999  12.033  1.0839  0.9723 -1.0262
18236TIP3   OH276122   5.402   3.812   2.337 -0.3622  0.3533  0.4669
18236TIP3    H176123   5.355   3.881   2.384 -0.5304  1.4075 -1.1792
18236TIP3    H276124   5.339   3.740   2.331 -1.3417  1.2673 -0.5635
18237TIP3   OH276125   5.120   6.035  15.355  0.1208 -0.0477 -0.3507
18237TIP3    H176126   5.149   6.126  15.364  1.3359 -0.4923  0.2697
18237TIP3    H276127   5.121   6.000  15.444  0.3150 -0.8620 -0.6677
18238TIP3   OH276128   3.263   4.290  12.787 -0.2940  0.6766 -0.4051
18238TIP3    H176129   3.176   4.257  12.764 -1.5355  2.3983  1.6707
18238TIP3    H276130   3.316   4.211  12.798 -1.7767 -0.4135 -0.9041
18239TIP3   OH276131   1.921   3.804   0.434  0.6481  0.4716 -0.0386
18239TIP3    H176132   2.010   3.832   0.452  0.8166 -0.2663  0.2684
18239TIP3    H276133   1.893   3.757   0.513  0.3139 -0.0905 -0.4837
18240TIP3   OH276134   0.010   3.327  15.847  0.6822  0.3256 -0.0639
18240TIP3    H176135   0.082   3.299  15.903  1.1117  0.4246 -0.5645
18240TIP3    H276136  -0.056   3.362  15.908  0.4952 -0.9866  0.5035
18241TIP3   OH276137   4.493   5.631   4.799 -0.4122  0.0142  0.9784
18241TIP3    H176138   4.469   5.584   4.719 -0.0345  2.0564 -0.3768
18241TIP3    H276139   4.582   5.661   4.784  0.1950 -0.8690  2.7962
18242TIP3   OH276140   0.367   1.470   4.397 -0.4566  0.3090  0.5385
18242TIP3    H176141   0.437   1.464   4.462  1.2654 -1.1826 -1.3817
18242TIP3    H276142   0.398   1.536   4.335 -1.3403  0.5323  0.3337
18243TIP3   OH276143   5.370   5.849   2.605  0.0135 -0.0718  0.1194
18243TIP3    H176144   5.434   5.883   2.668 -0.0375  2.4275 -1.1100
18243TIP3    H276145   5.418   5.844   2.522 -0.2448 -2.2179  0.0833
18244TIP3   OH276146   1.630   0.742   3.833  0.0919  0.0795 -0.2446
18244TIP3    H176147   1.655   0.650   3.831 -2.5906 -0.6825 -2.3095
18244TIP3    H276148   1.654   0.776   3.747  0.8595  1.2793  0.4271
18245TIP3   OH276149   3.613   2.786  14.483  0.4334 -0.0213  0.0504
18245TIP3    H176150   3.571   2.716  14.534  1.0323 -0.6153 -0.2645
18245TIP3    H276151   3.663   2.836  14.548  2.2798 -1.5802 -0.1266
18246TIP3   OH276152   0.397   4.155  11.067 -0.1335  0.0700  0.2009
18246TIP3    H176153   0.313   4.171  11.023 -0.1004  0.7579  0.3943
18246TIP3    H276154   0.445   4.099  11.005 -2.0320 -3.1999  1.5377
18247TIP3   OH276155   4.980   4.891  15.930  0.0120 -0.3776 -0.7632
18247TIP3    H176156   4.926   4.853  15.999  1.7009  0.0854  0.8786
18247TIP3    H276157   5.031   4.958  15.974  0.9864  0.0672 -2.5204
18248TIP3   OH276158   0.559   0.509  16.275 -0.3171 -0.8167  0.5489
18248TIP3    H176159   0.492   0.465  16.222 -0.0203  0.2402 -0.7260
18248TIP3    H276160   0.515   0.525  16.359 -1.0200 -1.8770  0.4005
18249TIP3   OH276161   3.703   3.788  11.987  0.1422  0.0162 -0.4202
18249TIP3    H176162   3.731   3.759  11.901  0.3624 -1.9170  0.2595
18249TIP3    H276163   3.686   3.882  11.978  0.1048 -0.1872 -2.5563
18250TIP3   OH276164   3.825   5.121   4.986  0.2348 -0.2243 -0.7221
18250TIP3    H176165   3.858   5.176   4.916  0.3633  0.8792  0.1854
18250TIP3    H276166   3.742   5.162   5.012 -0.2056 -1.0700 -0.7500
18251TIP3   OH276167   4.426   4.577   1.351 -0.1914  0.1501 -0.5759
18251TIP3    H176168   4.439   4.657   1.300 -0.0592 -0.7267 -1.9322
18251TIP3    H276169   4.331   4.569   1.360 -0.2234  0.0759 -1.0206
18252TIP3   OH276170   3.984   2.617  16.620 -0.5213  0.3600  0.4649
18252TIP3    H176171   4.068   2.571  16.628 -0.8298 -0.0544  1.5305
18252TIP3    H276172   3.981   2.673  16.698 -1.1015  0.5984  0.2674
18253TIP3   OH276173   2.016   1.595   4.444 -0.2471  0.1093  0.0121
18253TIP3    H176174   1.985   1.554   4.364 -0.6811  0.5513 -0.0481
18253TIP3    H276175   2.106   1.564   4.454 -0.7402 -1.2732  0.2496
18254TIP3   OH276176   2.221   4.275  12.931  0.0064 -0.3875 -0.2219
18254TIP3    H176177   2.164   4.217  12.982  0.3260 -0.0484  0.5241
18254TIP3    H276178   2.191   4.264  12.841 -0.0166 -1.6243 -0.0798
18255TIP3   OH276179   5.444   6.279  14.368 -0.2891 -0.2548  0.3990
18255TIP3    H176180   5.420   6.187  14.358 -1.1864  0.2127 -1.9476
18255TIP3    H276181   5.460   6.310  14.279  0.2445  1.8017  1.1827
18256TIP3   OH276182   5.066   5.987  12.585 -0.8036  0.2701 -0.1602
18256TIP3    H176183   5.123   5.915  12.558 -1.5546 -1.0116  1.5902
18256TIP3    H276184   5.023   6.014  12.504  0.4989 -0.3367 -1.0820
18257TIP3   OH276185   2.962   2.562  15.694 -0.8160  0.0072 -0.6051
18257TIP3    H176186   2.989   2.650  15.667 -0.0514  0.1965  0.7417
18257TIP3    H276187   2.980   2.508  15.617 -0.6116  0.8984 -1.1992
18258TIP3   OH276188   5.341   4.528  16.366  0.1221  0.6689  0.0722
18258TIP3    H176189   5.355   4.434  16.354  1.7609  1.1469 -2.0034
18258TIP3    H276190   5.388   4.549  16.447  2.2910  0.2093 -1.0300
18259TIP3   OH276191   6.780   3.450  11.360  0.2764 -0.0358 -0.5520
18259TIP3    H176192   6.826   3.403  11.429  0.1696  0.7395  0.0478
18259TIP3    H276193   6.841   3.448  11.285  1.2713  0.8971  0.2049
18260TIP3   OH276194   5.088   3.583   6.673  0.0853  0.5702  0.0262
18260TIP3    H176195   5.094   3.679   6.667 -0.6573  0.5373 -1.5445
18260TIP3    H276196   5.177   3.554   6.690  0.4172  1.5109 -0.0844
18261TIP3   OH276197   5.622   3.036  13.635 -0.3681  0.0904 -0.6178
18261TIP3    H176198   5.664   3.036  13.548  2.3500 -0.8322  0.6327
18261TIP3    H276199   5.574   2.954  13.638 -1.5503  0.7212 -1.7203
18262TIP3   OH276200   2.824   5.126  14.435  0.2155 -0.3811  0.7646
18262TIP3    H176201   2.802   5.122  14.342 -1.6404 -0.2645  1.1715
18262TIP3    H276202   2.802   5.040  14.469 -0.0193 -0.1161  1.2886
18263TIP3   OH276203   0.172   4.155   5.317  0.0091  0.3955  0.6483
18263TIP3    H176204   0.127   4.085   5.364  0.2755  0.7896  1.4973
18263TIP3    H276205   0.239   4.109   5.265 -0.3381 -0.0458  0.5907
18264TIP3   OH276206   0.644   0.952   4.585  0.0930 -0.0981  0.0674
18264TIP3    H176207   0.585   1.023   4.559  2.4786  1.8989 -0.0495
18264TIP3    H276208   0.702   0.941   4.510 -0.2876 -2.2512  0.0696
18265TIP3   OH276209   3.059   3.907  15.820 -0.1368 -0.0735 -0.0167
18265TIP3    H176210   3.029   3.898  15.910 -0.5408  1.7378  0.0544
18265TIP3    H276211   3.023   3.831  15.775  0.6096 -1.3520  1.4776
18266TIP3   OH276212   6.626   5.124   0.384  0.3697 -0.0205  0.0963
18266TIP3    H176213   6.688   5.090   0.320 -1.3134 -1.3354 -0.8657
18266TIP3    H276214   6.553   5.061   0.384 -0.0673  0.4117  2.6637
18267TIP3   OH276215   6.137   3.325  16.527  0.5224  0.1766 -0.0652
18267TIP3    H176216   6.204   3.310  16.594  0.0458  2.4805  0.9667
18267TIP3    H276217   6.168   3.401  16.478 -0.4768  0.1705 -0.7358
18268TIP3   OH276218   0.440   4.185  13.334  0.4017 -0.1689 -0.3549
18268TIP3    H176219   0.388   4.259  13.363  1.0969  0.6805 -1.2257
18268TIP3    H276220   0.379   4.129  13.285  0.1432  0.4193 -0.7006
18269TIP3   OH276221   4.314   2.443   1.590 -0.2473  0.0829  0.0436
18269TIP3    H176222   4.346   2.484   1.510 -1.6277  0.4289 -0.3578
18269TIP3    H276223   4.225   2.415   1.568 -1.1915  1.5106  1.9186
18270TIP3   OH276224   1.235   1.698   1.734 -0.0748  0.1178  0.2299
18270TIP3    H176225   1.319   1.737   1.711  0.1418 -0.5968 -0.1955
18270TIP3    H276226   1.251   1.654   1.817 -0.0586  0.0672  0.1997
18271TIP3   OH276227   5.920   1.532  14.971 -0.1948 -0.3805 -0.2234
18271TIP3    H176228   5.865   1.610  14.970  0.5117  0.1449  0.7497
18271TIP3    H276229   6.008   1.565  14.955  0.1634 -0.9250  0.5961
18272TIP3   OH276230   4.799   1.537   1.949 -0.3265 -0.1245 -0.1679
18272TIP3    H176231   4.861   1.468   1.973  0.9679  1.8549  2.4566
18272TIP3    H276232   4.853   1.606   1.910 -1.3013  0.3691 -0.6814
18273TIP3   OH276233   6.581   2.814   5.099 -0.0338 -0.9479 -0.0951
18273TIP3    H176234   6.595   2.904   5.129 -0.3035 -1.0353  0.2939
18273TIP3    H276235   6.503   2.820   5.043  1.7330 -0.3861 -2.5954
18274TIP3   OH276236   4.645   1.159   0.926 -0.4412  0.2066 -0.1584
18274TIP3    H176237   4.580   1.173   0.995 -0.3405  1.6005 -0.3307
18274TIP3    H276238   4.729   1.161   0.972 -0.4638 -0.4721 -0.0925
18275TIP3   OH276239   0.313   6.635   1.631 -0.3576 -0.0942 -0.3707
18275TIP3    H176240   0.224   6.602   1.645 -0.3338  0.0117  0.0401
18275TIP3    H276241   0.365   6.596   1.701  0.0668 -0.7143 -1.0353
18276TIP3   OH276242   0.428   3.505   6.317  1.0133 -0.4606 -0.5075
18276TIP3    H176243   0.389   3.420   6.296  0.3592 -0.3463  0.2415
18276TIP3    H276244   0.368   3.544   6.380  0.6169  1.1366 -1.8446
18277TIP3   OH276245   2.032   5.578   4.715 -0.2627  0.3377 -0.4742
18277TIP3    H176246   1.996   5.586   4.803 -0.0401  1.3126 -0.4647
18277TIP3    H276247   1.993   5.651   4.666 -0.8043 -0.5153 -1.3311
18278TIP3   OH276248   1.059   0.470   3.674  0.2782 -0.1068 -0.1421
18278TIP3    H176249   1.011   0.465   3.591 -1.1045  1.8666  0.5262
18278TIP3    H276250   1.012   0.412   3.733 -1.1192  1.5555  0.4084
18279TIP3   OH276251   6.499   6.674   0.157 -0.0992  0.0461 -0.0551
18279TIP3    H176252   6.424   6.630   0.196 -0.3588  0.9414  0.4801
18279TIP3    H276253   6.561   6.687   0.229  0.6630 -0.8755 -0.5369
18280TIP3   OH276254   0.748   0.423   4.651  0.0770  0.2039  0.3850
18280TIP3    H176255   0.774   0.334   4.675 -1.1485 -0.6275 -1.2664
18280TIP3    H276256   0.830   0.470   4.640  0.7217 -0.4946  2.1176
18281TIP3   OH276257   0.485   1.197   4.251  0.6083 -0.3424  0.0053
18281TIP3    H176258   0.575   1.177   4.276 -0.3829 -3.0388  1.5901
18281TIP3    H276259   0.445   1.232   4.331  0.9990  3.8036 -1.4806
18282TIP3   OH276260   1.710   1.989  16.600 -0.4327  0.2708 -0.5876
18282TIP3    H176261   1.635   2.017  16.652  0.0850  1.2456 -0.3493
18282TIP3    H276262   1.758   2.070  16.582  1.1514 -0.4739  0.1885
18283TIP3   OH276263   4.376   0.242   0.945 -0.2327 -0.4350  0.5129
18283TIP3    H176264   4.436   0.302   0.901 -0.7908  0.1955  0.5967
18283TIP3    H276265   4.310   0.221   0.879  0.4680 -1.7013  0.1954
18284TIP3   OH276266   0.173   3.514   6.018 -0.5227  0.3294 -0.1140
18284TIP3    H176267   0.260   3.474   6.015  0.1116  1.1183  3.9187
18284TIP3    H276268   0.122   3.457   6.076 -1.9054  1.2202 -0.4267
18285TIP3   OH276269   3.885   5.630   3.616 -0.2758 -0.0146  0.5529
18285TIP3    H176270   3.826   5.620   3.541  1.9822  1.1928 -1.4500
18285TIP3    H276271   3.915   5.721   3.610  1.8378 -0.6420  1.4842
18286TIP3   OH276272   3.828   0.939  13.204 -0.2464  0.0685 -0.5468
18286TIP3    H176273   3.846   0.908  13.115  0.4835  1.6202 -0.9531
18286TIP3    H276274   3.733   0.938  13.211 -0.2922 -0.4797 -1.1912
18287TIP3   OH276275   6.300   5.327  10.786 -0.7061 -0.4809 -0.2044
18287TIP3    H176276   6.215   5.347  10.826 -0.2519  1.8105 -0.3302
18287TIP3    H276277   6.362   5.328  10.859 -0.1446  1.9974 -0.6993
18288TIP3   OH276278   2.768   3.241   3.553 -0.0521 -0.1250  0.1900
18288TIP3    H176279   2.822   3.309   3.594  0.4278 -0.6620  0.4483
18288TIP3    H276280   2.824   3.203   3.486 -0.4607  0.0071 -0.2276
18289TIP3   OH276281   4.079   0.635   0.968  0.0630  0.0913  0.3581
18289TIP3    H176282   4.148   0.592   1.019  0.9797 -0.2505 -1.1494
18289TIP3    H276283   4.025   0.564   0.936  0.6929  0.1549 -0.8643
18290TIP3   OH276284   2.323   0.734  11.689 -0.4058 -0.0708 -0.5169
18290TIP3    H176285   2.375   0.793  11.743  1.6790 -0.3641 -2.1334
18290TIP3    H276286   2.247   0.712  11.743 -0.7443  3.3035  0.4590
18291TIP3   OH276287   3.112   2.863   2.471  0.8012 -0.3569  0.1711
18291TIP3    H176288   3.055   2.915   2.414  1.2912 -1.1076 -1.0182
18291TIP3    H276289   3.071   2.777   2.474  0.8001 -0.3294  0.9296
18292TIP3   OH276290   4.111   0.564  12.271 -0.0882 -0.1862 -0.1968
18292TIP3    H176291   4.043   0.576  12.338 -2.0190  0.3640 -2.2063
18292TIP3    H276292   4.190   0.599  12.312 -0.7722 -1.6853  2.5352
18293TIP3   OH276293   3.911   6.191  14.643  0.5806 -0.1269 -0.1565
18293TIP3    H176294   3.845   6.146  14.696  1.7524 -0.1404  1.3304
18293TIP3    H276295   3.882   6.282  14.639 -0.7076 -0.5692 -1.4318
18294TIP3   OH276296   5.497   0.349   4.366  0.8275 -0.2607 -0.2516
18294TIP3    H176297   5.454   0.283   4.311 -1.2042  1.9044 -1.3144
18294TIP3    H276298   5.582   0.363   4.324 -0.4922  0.9867 -2.6314
18295TIP3   OH276299   6.620   4.167   1.849  0.1342  0.2394  0.0199
18295TIP3    H176300   6.624   4.255   1.888 -0.1420  0.3364 -0.1674
18295TIP3    H276301   6.702   4.159   1.801 -0.9987  1.4775 -2.2321
18296TIP3   OH276302   4.488   6.517  11.313 -0.2846  0.4648  0.1341
18296TIP3    H176303   4.484   6.436  11.262 -0.6114  0.4029  0.2542
18296TIP3    H276304   4.414   6.510  11.374 -0.7438  1.1715 -0.3332
18297TIP3   OH276305   0.473   6.626   3.225 -0.2102  0.3745 -0.1746
18297TIP3    H176306   0.399   6.671   3.185 -0.4353  0.7250  0.6241
18297TIP3    H276307   0.483   6.668   3.311 -1.3405 -2.0615  1.1798
18298TIP3   OH276308   6.555   4.074  16.529 -0.1328 -0.4362  0.2806
18298TIP3    H176309   6.636   4.082  16.580 -1.0741  1.5278  1.5476
18298TIP3    H276310   6.576   4.116  16.445 -0.1275  0.9839  0.9785
18299TIP3   OH276311   0.086   1.124  11.490 -0.5718  0.0612 -0.0396
18299TIP3    H176312   0.144   1.155  11.560  0.1261 -2.1794  0.4312
18299TIP3    H276313   0.003   1.169  11.506 -0.0235  0.5886  1.4565
18300TIP3   OH276314   1.516   3.096   3.992  0.1627  0.4085 -0.0952
18300TIP3    H176315   1.603   3.109   3.956  0.0787 -0.2380 -0.5412
18300TIP3    H276316   1.531   3.064   4.081  0.3879 -1.0456 -0.6534
18301TIP3   OH276317   5.784   2.288   4.576  0.9284 -0.2089 -0.9747
18301TIP3    H176318   5.787   2.207   4.525 -0.9415 -0.2378 -1.0738
18301TIP3    H276319   5.846   2.347   4.533  3.6617 -2.1562  0.1376
18302TIP3   OH276320   0.445   1.157   4.561 -0.5967 -0.1205  0.1039
18302TIP3    H176321   0.358   1.195   4.565 -0.1960  0.9187 -0.6670
18302TIP3    H276322   0.465   1.131   4.651 -1.2955  0.5711  0.4635
18303TIP3   OH276323   3.619   0.512  11.698  0.0180  0.6182  0.2509
18303TIP3    H176324   3.568   0.443  11.657  1.8742  0.0957 -1.2323
18303TIP3    H276325   3.704   0.472  11.716  0.9847  2.3803 -0.2695
18304TIP3   OH276326   2.586   0.281   6.272 -0.2000  0.3099  0.6364
18304TIP3    H176327   2.633   0.275   6.355  0.6860 -1.7411  0.0309
18304TIP3    H276328   2.500   0.244   6.291 -0.3428  0.7650  0.8793
18305TIP3   OH276329   4.982   2.909  16.518 -0.3844 -0.2017 -0.1481
18305TIP3    H176330   4.927   2.983  16.493 -0.1210 -0.0336 -0.2299
18305TIP3    H276331   4.925   2.832  16.504 -0.8026  0.0132  0.3602
18306TIP3   OH276332   6.676   5.042  17.094  0.0121 -0.2354  0.5854
18306TIP3    H176333   6.741   5.039  17.023  1.0295 -2.3440  1.5599
18306TIP3    H276334   6.602   4.992  17.060  0.0636 -0.3042  0.5707
18307TIP3   OH276335   0.406   0.536   4.810 -0.1715 -0.2742  0.0362
18307TIP3    H176336   0.439   0.619   4.775  0.1079  0.2234  1.4303
18307TIP3    H276337   0.313   0.553   4.828 -0.3024 -0.5112 -0.4130
18308TIP3   OH276338   6.418   1.549   4.758 -0.2884  0.0635 -0.4611
18308TIP3    H176339   6.501   1.580   4.794 -0.2503 -0.6819  0.1289
18308TIP3    H276340   6.389   1.618   4.699  0.3054  0.7307  0.0216
18309TIP3   OH276341   5.667   5.693   3.545  0.0146  0.1711 -0.0937
18309TIP3    H176342   5.737   5.656   3.597  0.7789  1.3095 -0.2995
18309TIP3    H276343   5.690   5.672   3.455 -0.3537 -0.1904 -0.1067
18310TIP3   OH276344   5.910   1.859   4.808  0.4234 -0.2198 -0.5781
18310TIP3    H176345   5.888   1.802   4.735 -0.7252 -1.9790  1.1043
18310TIP3    H276346   5.988   1.905   4.779  0.4675 -1.4851 -2.5868
18311TIP3   OH276347   4.283   0.813   1.780  0.5963 -0.1125 -0.1897
18311TIP3    H176348   4.193   0.838   1.763  0.4656  0.2406  0.9684
18311TIP3    H276349   4.333   0.857   1.711  0.2028  2.2011  0.9230
18312TIP3   OH276350   2.692   6.359   2.371  0.1495 -0.4389 -0.7895
18312TIP3    H176351   2.702   6.374   2.465 -1.2541 -0.9042 -0.5440
18312TIP3    H276352   2.776   6.384   2.333  0.5985  0.1219  0.5465
18313TIP3   OH276353   1.922   5.653  12.734 -0.3736 -0.2817  0.0830
18313TIP3    H176354   1.905   5.746  12.752 -2.3729 -0.5638 -0.2522
18313TIP3    H276355   1.922   5.611  12.820  0.9107  0.0597  0.2707
18314TIP3   OH276356   4.634   1.188  12.088  0.5109  0.0593 -0.1204
18314TIP3    H176357   4.575   1.194  12.012  1.7087 -2.2587 -1.2917
18314TIP3    H276358   4.664   1.278  12.102  0.2964  0.5330 -2.4569
18315TIP3   OH276359   6.163   6.475  15.499 -0.4428 -0.0755 -0.2816
18315TIP3    H176360   6.238   6.429  15.461  1.2329  0.7525  1.9249
18315TIP3    H276361   6.087   6.440  15.452  1.3577 -0.4918 -2.9979
18316TIP3   OH276362   1.553   1.078  16.361  0.2117  0.4490 -0.2163
18316TIP3    H176363   1.530   1.007  16.301 -1.1247  0.2751  0.4711
18316TIP3    H276364   1.618   1.130  16.314 -0.7949  0.3034 -1.8125
18317TIP3   OH276365   3.829   5.004   6.039  0.2818 -0.0784 -0.3035
18317TIP3    H176366   3.862   5.016   6.128  0.0120  0.7151 -0.3063
18317TIP3    H276367   3.786   5.087   6.018  1.1345  0.0657 -1.5111
18318TIP3   OH276368   3.358   5.828  14.877 -0.1882  0.2807  0.0895
18318TIP3    H176369   3.411   5.892  14.831 -1.1415  1.3243  0.4217
18318TIP3    H276370   3.393   5.827  14.966  0.5251 -0.4625 -0.1917
18319TIP3   OH276371   1.812   6.142  15.439 -0.2286  0.5949  0.2774
18319TIP3    H176372   1.770   6.126  15.354 -1.7411  3.2009  0.4728
18319TIP3    H276373   1.769   6.081  15.498  0.5249 -0.9398 -0.7245
18320TIP3   OH276374   4.407   4.498  15.578 -0.0081  0.3656 -0.3728
18320TIP3    H176375   4.385   4.494  15.485  0.5446  2.7335 -0.6330
18320TIP3    H276376   4.502   4.506  15.580 -0.0061  0.2122  0.4067
18321TIP3   OH276377   1.649   4.176  12.114 -0.0782 -0.0544  0.1224
18321TIP3    H176378   1.554   4.178  12.105  0.0680 -2.1996 -2.7019
18321TIP3    H276379   1.666   4.206  12.204 -3.2123  2.8926 -0.2016
18322TIP3   OH276380   1.742   2.475   1.171 -0.0979 -0.1138  0.1031
18322TIP3    H176381   1.798   2.552   1.159  0.3180 -0.6060 -1.3145
18322TIP3    H276382   1.780   2.429   1.246 -1.1313  1.7085  1.7872
18323TIP3   OH276383   0.549   5.698   5.567 -0.4493 -0.4084 -0.0893
18323TIP3    H176384   0.478   5.761   5.582 -0.6053 -0.4541 -0.6311
18323TIP3    H276385   0.618   5.750   5.526  1.1046  0.3709  3.3061
18324TIP3   OH276386   4.869   6.732   1.590  0.2737  0.1033  0.0685
18324TIP3    H176387   4.817   6.795   1.639  2.4566  0.9176  1.3873
18324TIP3    H276388   4.934   6.700   1.652  0.1387 -2.3608 -0.9903
18325TIP3   OH276389   6.659   2.421   4.403 -0.5209  0.2602  0.3819
18325TIP3    H176390   6.671   2.431   4.308  0.0926  2.2545  0.6499
18325TIP3    H276391   6.717   2.486   4.442 -1.6608  0.2894  2.1055
18326TIP3   OH276392   0.071   4.490  11.080 -0.1908  0.3619  0.3004
18326TIP3    H176393  -0.010   4.441  11.070 -0.2700  0.6102 -0.2716
18326TIP3    H276394   0.135   4.444  11.026  0.4655 -0.7628  1.9899
18327TIP3   OH276395   2.562   5.105  11.085 -0.4061 -0.0631  0.3485
18327TIP3    H176396   2.524   5.022  11.056 -0.5501 -0.0641  0.5392
18327TIP3    H276397   2.599   5.143  11.006  0.0141 -0.4971  0.3294
18328TIP3   OH276398   1.872   2.722  10.768  0.1419 -0.4879 -0.1089
18328TIP3    H176399   1.891   2.674  10.848 -0.2092  2.4834  1.8632
18328TIP3    H276400   1.949   2.710  10.713  0.7194 -1.9300  0.9829
18329TIP3   OH276401   1.349   4.286  15.744  0.1642 -0.0087  0.0739
18329TIP3    H176402   1.337   4.315  15.654 -0.6653 -1.0535 -0.1539
18329TIP3    H276403   1.438   4.252  15.747  0.0433 -0.3729 -0.4618
18330TIP3   OH276404   4.978   3.192  14.686  0.4297 -0.5264 -0.2786
18330TIP3    H176405   4.920   3.256  14.728  1.3371 -0.6684  1.2482
18330TIP3    H276406   5.008   3.137  14.759  3.4460  0.3097 -0.8503
18331TIP3   OH276407   1.611   5.235  13.155 -0.1194  0.2777  0.0273
18331TIP3    H176408   1.595   5.205  13.066 -1.8095  3.1045 -0.6848
18331TIP3    H276409   1.600   5.330  13.151  1.0396  0.5987  2.9893
18332TIP3   OH276410   4.155   4.133  16.121 -0.0532  0.5614  0.3704
18332TIP3    H176411   4.117   4.211  16.079  1.0134  0.2331 -1.2569
18332TIP3    H276412   4.101   4.061  16.089 -0.6862  0.5405  1.4356
18333TIP3   OH276413   5.847   0.021   1.478 -0.0161 -0.3870  0.5768
18333TIP3    H176414   5.766   0.055   1.516 -0.1483 -0.5528  0.4432
18333TIP3    H276415   5.913   0.037   1.545  0.2516  1.6091 -0.1282
18334TIP3   OH276416   1.593   0.499  16.801  0.2158  0.7359 -0.3992
18334TIP3    H176417   1.561   0.551  16.874  0.9159 -0.8383  1.0720
18334TIP3    H276418   1.514   0.467  16.758 -0.2002  1.9688 -0.5698
18335TIP3   OH276419   2.461   6.408  15.672  0.0717  0.0197 -0.1622
18335TIP3    H176420   2.420   6.425  15.587 -0.4707 -0.8946 -0.0904
18335TIP3    H276421   2.435   6.483  15.726 -3.0494 -1.4143  0.4228
18336TIP3   OH276422   0.694   6.630   1.882 -0.3303  0.8783 -0.1220
18336TIP3    H176423   0.778   6.675   1.892 -0.2699  0.6713  0.3530
18336TIP3    H276424   0.641   6.662   1.956  0.0218 -0.4975  0.7468
18337TIP3   OH276425   0.521   2.666  16.434 -0.5194 -0.3764 -0.0154
18337TIP3    H176426   0.578   2.598  16.398 -1.1176 -0.2385 -1.2726
18337TIP3    H276427   0.514   2.646  16.527  1.1766 -0.6724  0.0524
18338TIP3   OH276428   1.279   5.902   3.675  0.0389  0.3097 -0.3952
18338TIP3    H176429   1.234   5.887   3.592 -2.3669 -0.9884  1.0606
18338TIP3    H276430   1.336   5.826   3.686 -0.2771  0.0593 -0.4817
18339TIP3   OH276431   2.659   5.051   0.802  0.0038 -0.9377 -0.0803
18339TIP3    H176432   2.679   5.006   0.720 -1.6903  0.5708 -1.3669
18339TIP3    H276433   2.743   5.054   0.848  2.0273  1.9625 -3.6582
18340TIP3   OH276434   4.959   0.565  14.256 -0.0042 -0.1287  0.2282
18340TIP3    H176435   5.035   0.548  14.202  0.0432  1.5113 -0.2634
18340TIP3    H276436   4.884   0.544  14.200  0.0651 -0.3268  0.2103
18341TIP3   OH276437   3.913   0.285  16.442 -0.3875 -0.0028 -0.0179
18341TIP3    H176438   3.945   0.327  16.362 -0.5094  2.7935  1.3445
18341TIP3    H276439   3.834   0.334  16.465 -0.5250 -0.9728  1.6629
18342TIP3   OH276440   2.810   0.405   4.205 -0.6726 -0.0187  0.1196
18342TIP3    H176441   2.869   0.373   4.273  0.5175 -0.1339 -0.9401
18342TIP3    H276442   2.809   0.500   4.216 -0.4136 -0.0313  0.2434
18343TIP3   OH276443   1.310   2.485   5.729 -0.2176 -0.7684  0.0024
18343TIP3    H176444   1.251   2.457   5.799 -0.9457 -1.2409 -0.7917
18343TIP3    H276445   1.274   2.445   5.650  0.8085 -0.5396 -0.5894
18344TIP3   OH276446   5.308   4.979  16.180  0.5370 -0.1091 -0.3084
18344TIP3    H176447   5.246   5.021  16.120  1.9404  1.3691 -0.7382
18344TIP3    H276448   5.260   4.974  16.263  0.4619  2.7838 -0.1056
18345TIP3   OH276449   1.907   3.988   2.398 -0.1111 -0.4647 -0.3631
18345TIP3    H176450   1.844   3.975   2.470 -0.1650 -0.7007 -0.4528
18345TIP3    H276451   1.852   4.001   2.321 -0.0508 -0.4247 -0.3988
18346TIP3   OH276452   4.338   6.333  16.743  0.5342  0.0499 -0.3318
18346TIP3    H176453   4.348   6.332  16.648  1.8577 -1.1696 -0.1926
18346TIP3    H276454   4.423   6.361  16.776  1.0587 -2.4727  0.5744
18347TIP3   OH276455   4.110   4.888   0.854  0.0788  0.0194  0.1350
18347TIP3    H176456   4.174   4.898   0.784 -1.6340  0.4869 -1.4264
18347TIP3    H276457   4.034   4.848   0.811 -0.5205 -0.9503  2.0246
18348TIP3   OH276458   2.894   5.783  16.481 -0.2603 -0.1072  0.0788
18348TIP3    H176459   2.884   5.876  16.501 -0.3153 -0.1354  0.1825
18348TIP3    H276460   2.866   5.775  16.390 -1.1416 -0.1757  0.3510
18349TIP3   OH276461   5.040   2.363   3.974 -0.4115  0.6940 -0.0467
18349TIP3    H176462   5.096   2.439   3.992  1.6225 -0.4055 -1.6343
18349TIP3    H276463   4.959   2.401   3.939  0.4015  2.1537 -0.3782
18350TIP3   OH276464   2.026   2.647  12.781  0.2970 -0.0705 -0.1751
18350TIP3    H176465   1.955   2.659  12.844 -0.6383 -2.8716 -0.6212
18350TIP3    H276466   2.101   2.621  12.836  0.0410 -0.4895 -0.0220
18351TIP3   OH276467   4.449   0.063   1.775 -0.1042 -0.9550 -0.2034
18351TIP3    H176468   4.386   0.054   1.704 -0.4078 -1.3067  0.1075
18351TIP3    H276469   4.396   0.094   1.849  0.2117 -0.5658 -0.1372
18352TIP3   OH276470   3.187   1.810  15.300 -0.2269 -0.0269 -0.0898
18352TIP3    H176471   3.132   1.877  15.341 -1.8701 -1.3320 -0.0985
18352TIP3    H276472   3.189   1.738  15.363  0.3567 -0.5347 -0.6731
18353TIP3   OH276473   2.982   2.380  15.497  0.4831  0.1057 -0.1462
18353TIP3    H176474   3.056   2.332  15.461 -0.7104 -0.7290 -1.5594
18353TIP3    H276475   2.947   2.429  15.423 -0.1973  0.7269  0.5754
18354TIP3   OH276476   2.250   0.690  15.745  0.7494  0.6132 -0.0474
18354TIP3    H176477   2.325   0.661  15.692 -0.6042 -0.9700 -1.1511
18354TIP3    H276478   2.204   0.752  15.690 -1.5909 -2.2794 -1.4842
18355TIP3   OH276479   5.481   2.073   6.572  0.4440  0.5441  0.5486
18355TIP3    H176480   5.477   2.158   6.617  0.2280  0.0401  1.4940
18355TIP3    H276481   5.426   2.016   6.624  2.3684 -0.7655  1.2045
18356TIP3   OH276482   4.699   3.817  12.853  0.3558  0.0633 -0.2968
18356TIP3    H176483   4.776   3.764  12.874  0.2471  0.6810  1.7504
18356TIP3    H276484   4.629   3.754  12.838  0.2908 -0.4336  1.8924
18357TIP3   OH276485   0.541   3.355  12.666 -0.3180  0.1973  0.1145
18357TIP3    H176486   0.519   3.264  12.647  1.1397  0.0447 -0.9138
18357TIP3    H276487   0.458   3.395  12.692 -0.9546 -1.4332  0.6503
18358TIP3   OH276488   1.576   3.725   2.511 -0.3941 -0.2097  0.1840
18358TIP3    H176489   1.612   3.662   2.448  0.1033 -1.4511  1.6667
18358TIP3    H276490   1.651   3.778   2.538 -0.1645 -1.0982  1.3322
18359TIP3   OH276491   0.524   6.275  12.163  0.0109  0.0764  0.2356
18359TIP3    H176492   0.435   6.280  12.127  0.0532 -0.2128  0.0896
18359TIP3    H276493   0.569   6.213  12.107 -0.3170 -1.4181  1.5995
18360TIP3   OH276494   2.153   3.240  13.600 -0.7032  0.0699 -0.0696
18360TIP3    H176495   2.211   3.283  13.538  2.4001 -2.0079  1.2819
18360TIP3    H276496   2.125   3.310  13.659 -1.4773  1.5241 -2.1041
18361TIP3   OH276497   0.835   2.463   4.030  0.0736  0.7608 -0.2410
18361TIP3    H176498   0.793   2.416   4.101 -0.9384  1.1877 -0.5461
18361TIP3    H276499   0.775   2.534   4.009 -0.9364 -0.8670 -3.2644
18362TIP3   OH276500   5.485   4.883   0.570  0.5222 -0.3488 -0.2431
18362TIP3    H176501   5.405   4.901   0.619 -0.0856 -2.3484 -0.4374
18362TIP3    H276502   5.551   4.942   0.607 -0.7378  0.4406  0.7488
18363TIP3   OH276503   5.643   1.976  15.458  0.8240 -0.3098 -0.2185
18363TIP3    H176504   5.719   2.031  15.474 -0.2642  1.4671 -0.9833
18363TIP3    H276505   5.676   1.904  15.405  2.1880 -0.1819  0.4245
18364TIP3   OH276506   0.653   2.397   1.228 -0.1034 -0.0531  0.5781
18364TIP3    H176507   0.749   2.398   1.222 -0.1585 -1.1189 -0.8271
18364TIP3    H276508   0.629   2.488   1.240  1.0984  0.2181  1.0524
18365TIP3   OH276509   2.330   4.897  13.871 -0.2310 -0.2350  0.2225
18365TIP3    H176510   2.411   4.847  13.871  1.1920  1.9822 -1.4313
18365TIP3    H276511   2.266   4.840  13.915  2.2088 -1.9654  1.6307
18366TIP3   OH276512   1.366   3.413  12.021 -0.7995 -0.0891 -0.0196
18366TIP3    H176513   1.418   3.425  12.101 -1.1568 -0.6971  0.3038
18366TIP3    H276514   1.431   3.411  11.950 -0.2529 -2.2713  0.5211
18367TIP3   OH276515   0.363   3.461  13.139  0.1576  0.3227 -0.1843
18367TIP3    H176516   0.447   3.499  13.163  0.5473  0.3715 -1.5778
18367TIP3    H276517   0.386   3.378  13.097 -0.3964  0.9857 -1.8446
18368TIP3   OH276518   2.719   2.131   4.694 -0.2856 -0.0143  0.2199
18368TIP3    H176519   2.740   2.224   4.691  0.3942 -0.1850 -0.4060
18368TIP3    H276520   2.741   2.104   4.783  0.3339  0.2377  0.1470
18369TIP3   OH276521   1.302   5.371  13.746  0.1402 -0.0659 -0.3487
18369TIP3    H176522   1.212   5.380  13.717  0.2948  0.9402 -0.5307
18369TIP3    H276523   1.341   5.307  13.687  0.0231  0.8109 -1.3780
18370TIP3   OH276524   4.511   5.044  11.363  0.5853 -0.1101 -0.1187
18370TIP3    H176525   4.572   5.087  11.302  1.0273  1.7712  1.6201
18370TIP3    H276526   4.557   5.043  11.446  0.1217 -2.9937  0.1715
18371TIP3   OH276527   3.144   6.383  16.729  0.3232  0.1465  0.4160
18371TIP3    H176528   3.102   6.366  16.644  0.5032 -0.9720  0.5464
18371TIP3    H276529   3.082   6.440  16.775 -1.4218 -2.0499  0.8668
18372TIP3   OH276530   1.298   1.187   0.686  0.3058 -0.4080 -0.1452
18372TIP3    H176531   1.360   1.216   0.753  1.1538  0.2195 -1.1826
18372TIP3    H276532   1.219   1.164   0.735  1.1597 -0.6552  1.1330
18373TIP3   OH276533   5.643   1.085   5.071 -0.0769  0.2921 -0.3331
18373TIP3    H176534   5.699   1.060   4.997  0.2911 -0.1740  0.1018
18373TIP3    H276535   5.659   1.018   5.137  0.4949  1.3502  0.6327
18374TIP3   OH276536   1.974   4.815  11.265  0.0181 -0.2089  0.3952
18374TIP3    H176537   2.065   4.832  11.241 -0.1542  0.2147  0.0247
18374TIP3    H276538   1.955   4.878  11.334  0.4467 -1.2819  1.5172
18375TIP3   OH276539   1.618   3.795   4.663  0.2900 -0.1154 -0.4827
18375TIP3    H176540   1.631   3.710   4.703  0.1195 -0.1816 -0.5671
18375TIP3    H276541   1.656   3.857   4.725 -1.0948 -0.1058  0.3831
18376TIP3   OH276542   6.086   0.159  10.882 -0.1101  0.0600 -0.2701
18376TIP3    H176543   6.094   0.069  10.913 -0.8084 -0.3403 -1.2183
18376TIP3    H276544   6.014   0.196  10.932 -0.1548 -0.0682 -0.2415
18377TIP3   OH276545   5.683   2.677   2.053 -0.4317 -0.1823 -0.4249
18377TIP3    H176546   5.757   2.647   2.000 -0.5118  0.1399 -0.7267
18377TIP3    H276547   5.686   2.773   2.046 -1.7218 -0.1979 -1.6437
18378TIP3   OH276548   3.205   4.177  16.109 -0.2396  0.3827 -0.2894
18378TIP3    H176549   3.297   4.159  16.087 -0.0463 -0.3027  1.0181
18378TIP3    H276550   3.208   4.251  16.169 -0.3300 -1.1533  1.6748
18379TIP3   OH276551   5.163   5.122  15.642 -0.5232  0.0849 -0.0392
18379TIP3    H176552   5.085   5.174  15.663 -0.9745 -0.8096  0.5370
18379TIP3    H276553   5.128   5.043  15.601  0.1988  0.5577 -1.5965
18380TIP3   OH276554   2.863   4.312   1.835  0.3059  0.2209  0.1776
18380TIP3    H176555   2.775   4.303   1.798 -0.2259  0.2438  1.4076
18380TIP3    H276556   2.915   4.245   1.789 -0.8194 -1.1195  0.8068
18381TIP3   OH276557   0.875   6.093  11.540  0.2913 -0.0039  0.1275
18381TIP3    H176558   0.801   6.125  11.592 -0.3078 -1.0246 -0.0843
18381TIP3    H276559   0.937   6.165  11.541  0.0418  0.2175  1.7821
18382TIP3   OH276560   5.301   2.484  16.900 -0.0979 -0.3549 -0.2338
18382TIP3    H176561   5.264   2.513  16.817  0.3008 -1.3602 -0.7705
18382TIP3    H276562   5.391   2.517  16.898 -0.5069  0.8611  0.4501
18383TIP3   OH276563   2.195   1.181  15.008  0.0843  0.3360 -0.1267
18383TIP3    H176564   2.165   1.257  15.059  0.3862  0.6401 -0.3975
18383TIP3    H276565   2.158   1.196  14.920 -0.1401 -0.0070 -0.0901
18384TIP3   OH276566   2.204   0.796   0.493 -0.3194  0.1571 -0.0668
18384TIP3    H176567   2.296   0.792   0.466 -0.0534  3.7420  0.1207
18384TIP3    H276568   2.207   0.803   0.588 -0.6971  2.2160 -0.1933
18385TIP3   OH276569   4.407   2.016  17.073  0.2401 -0.4951 -0.1343
18385TIP3    H176570   4.471   2.087  17.082 -1.0082  0.5651  0.6197
18385TIP3    H276571   4.387   1.991  17.163  0.3418 -1.5118 -0.3930
18386TIP3   OH276572   4.047   0.258  11.899 -0.0531 -0.4642  0.3758
18386TIP3    H176573   4.093   0.260  11.816 -1.3049  2.7967 -0.2971
18386TIP3    H276574   4.103   0.307  11.959  0.6263 -2.4122  1.4019
18387TIP3   OH276575   2.129   2.774   3.819 -0.3287 -0.0728 -0.1164
18387TIP3    H176576   2.154   2.846   3.760 -0.0063  0.2635  0.4216
18387TIP3    H276577   2.043   2.745   3.786  0.0898 -0.2548 -1.0775
18388TIP3   OH276578   4.291   0.769  16.536 -0.1932 -0.2970  0.1038
18388TIP3    H176579   4.214   0.715  16.553 -1.5753  1.9147  1.1835
18388TIP3    H276580   4.346   0.757  16.614 -1.2431  1.0250  1.0819
18389TIP3   OH276581   4.909   3.461   1.476  0.9132  0.0284 -0.4531
18389TIP3    H176582   4.861   3.490   1.554  1.5119  0.9669 -0.4205
18389TIP3    H276583   4.909   3.538   1.419 -0.0355 -0.8318 -1.6451
18390TIP3   OH276584   3.117   4.764   4.352 -0.0865 -0.0683 -0.9985
18390TIP3    H176585   3.113   4.729   4.441  2.2102 -0.8815 -1.1943
18390TIP3    H276586   3.136   4.689   4.297 -0.9953  0.5172 -2.1416
18391TIP3   OH276587   2.123   3.901   2.734 -0.0135 -0.3739  0.2454
18391TIP3    H176588   2.090   3.989   2.755  1.1179 -0.0939  0.8995
18391TIP3    H276589   2.201   3.891   2.789 -1.4041 -2.6896  1.8686
18392TIP3   OH276590   3.550   6.584   5.632  0.0926 -0.1155 -0.3085
18392TIP3    H176591   3.624   6.638   5.603  0.3610 -1.2166 -1.7482
18392TIP3    H276592   3.555   6.584   5.727  2.5607 -1.0020 -0.4171
18393TIP3   OH276593   0.696   6.443  13.152 -1.0532 -0.3433  0.0812
18393TIP3    H176594   0.621   6.384  13.155 -2.1972  1.1146  1.1558
18393TIP3    H276595   0.724   6.451  13.243  1.5317 -2.2246 -0.4934
18394TIP3   OH276596   3.211   0.990   1.908 -0.0002 -0.3129 -0.5623
18394TIP3    H176597   3.142   0.932   1.877  0.0770 -0.2352 -0.8736
18394TIP3    H276598   3.272   0.932   1.954  0.0013 -0.4552 -0.7447
18395TIP3   OH276599   1.871   2.667   3.688  0.8890  0.5096  0.3901
18395TIP3    H176600   1.940   2.623   3.638  0.5118 -0.8783  1.0778
18395TIP3    H276601   1.824   2.597   3.732 -1.4064  1.3666 -0.6132
18396TIP3   OH276602   6.049   3.994   4.641  0.5380  0.6419 -0.2305
18396TIP3    H176603   6.094   4.078   4.648 -0.5892  1.1830  0.6683
18396TIP3    H276604   6.119   3.930   4.632  1.3889  1.7229 -1.5091
18397TIP3   OH276605   6.409   4.108   0.182 -0.3699  0.0875 -0.3249
18397TIP3    H176606   6.376   4.183   0.133 -0.4344 -0.6486 -1.4540
18397TIP3    H276607   6.366   4.033   0.141 -0.5048 -0.5449  0.9485
18398TIP3   OH276608   5.364   3.227  12.858  0.9442  0.0141 -0.0554
18398TIP3    H176609   5.331   3.159  12.799  0.2849  0.0370  0.2809
18398TIP3    H276610   5.429   3.275  12.807  0.3145  0.0847 -0.7848
18399TIP3   OH276611   0.218   4.129   3.260  0.0465 -0.5911 -0.3714
18399TIP3    H176612   0.210   4.034   3.247  1.5621 -0.4488 -2.6416
18399TIP3    H276613   0.307   4.141   3.292  0.2217  0.1527 -1.1269
18400TIP3   OH276614   3.784   2.541  11.245  0.2743  0.1080  0.2990
18400TIP3    H176615   3.862   2.594  11.229  0.5191 -0.2064  0.4349
18400TIP3    H276616   3.773   2.542  11.340  0.9403 -1.0074  0.3953
18401TIP3   OH276617   4.391   5.071  13.017  0.2426  0.0016  0.4113
18401TIP3    H176618   4.325   5.006  12.995 -1.3290  1.3897  0.9516
18401TIP3    H276619   4.369   5.147  12.963  0.3778  1.0741  1.8295
18402TIP3   OH276620   1.987   6.084   1.212 -0.3096  0.0553  0.7645
18402TIP3    H176621   2.049   6.084   1.140  0.3640 -1.6626  1.3295
18402TIP3    H276622   1.906   6.051   1.174 -0.2193  0.0456  0.5814
18403TIP3   OH276623   0.490   5.757   1.128  0.2312  0.1075 -0.7885
18403TIP3    H176624   0.420   5.693   1.115  0.7524 -1.0735  1.8342
18403TIP3    H276625   0.449   5.841   1.109 -1.2404 -0.7614 -1.6146
18404TIP3   OH276626   1.913   4.572   0.711 -0.1302 -0.0952 -0.3555
18404TIP3    H176627   1.977   4.503   0.729  0.5514  0.7602  0.4803
18404TIP3    H276628   1.900   4.616   0.794  0.7135  1.8901 -1.2476
18405TIP3   OH276629   1.875   3.889   5.580  0.0368  0.1600 -0.0272
18405TIP3    H176630   1.829   3.972   5.594 -1.2761 -0.2805 -1.5706
18405TIP3    H276631   1.884   3.852   5.668 -2.5767  0.2540  0.3093
18406TIP3   OH276632   1.030   0.870  15.658 -0.8346  0.2532  0.0059
18406TIP3    H176633   0.987   0.810  15.597  0.5950 -1.1162  0.3075
18406TIP3    H276634   1.121   0.841  15.660 -0.8140  0.3819  2.6563
18407TIP3   OH276635   4.418   0.659  10.664  0.6007  0.3832 -0.0920
18407TIP3    H176636   4.374   0.576  10.679  1.7590 -0.2628 -0.1659
18407TIP3    H276637   4.348   0.722  10.652 -0.3024 -0.9177 -1.8641
18408TIP3   OH276638   2.782   3.079   2.064 -0.3089  0.2311 -0.5225
18408TIP3    H176639   2.860   3.111   2.018  1.2605 -0.0277  1.9040
18408TIP3    H276640   2.771   2.989   2.032  0.3161  0.3017 -0.9392
18409TIP3   OH276641   1.838   6.665  12.428  0.3722 -0.1205 -0.2761
18409TIP3    H176642   1.822   6.573  12.407 -0.2389  0.0827 -0.7433
18409TIP3    H276643   1.808   6.712  12.350 -1.1503  0.5934  0.7193
18410TIP3   OH276644   5.017   4.423  17.130 -0.5766  0.0930  0.1256
18410TIP3    H176645   5.081   4.494  17.132 -0.1154 -0.3332  1.0636
18410TIP3    H276646   5.029   4.382  17.045  1.9218 -1.3451  1.1203
18411TIP3   OH276647   3.715   5.127  16.774  0.2761  0.0267 -0.0470
18411TIP3    H176648   3.637   5.077  16.798 -0.4328  2.0802  2.1474
18411TIP3    H276649   3.723   5.114  16.679 -0.8506 -2.8003  0.2083
18412TIP3   OH276650   3.359   4.924  11.152  0.1483 -0.3355  0.2661
18412TIP3    H176651   3.320   4.986  11.214 -0.8322 -0.5760 -0.1018
18412TIP3    H276652   3.365   4.842  11.200  2.4089  0.2670  1.1036
18413TIP3   OH276653   6.177   0.732   0.388  0.7129 -0.2982  0.4665
18413TIP3    H176654   6.198   0.825   0.378 -1.0220  0.0713  0.1770
18413TIP3    H276655   6.155   0.721   0.480 -0.0232 -0.2302  0.2982
18414TIP3   OH276656   1.393   5.849   0.820 -0.3552 -0.1448  0.0563
18414TIP3    H176657   1.471   5.795   0.807 -1.2311 -1.3368 -0.2785
18414TIP3    H276658   1.422   5.938   0.801  0.8515 -0.6234 -0.3539
18415TIP3   OH276659   0.638   0.014  11.302  0.0783 -0.1085  0.5723
18415TIP3    H176660   0.648   0.074  11.228 -1.4008 -0.5725 -0.0129
18415TIP3    H276661   0.597   0.068  11.370  1.4236  0.3139  1.0671
18416TIP3   OH276662   0.082   0.556  13.960 -0.3376  0.0641  0.8272
18416TIP3    H176663   0.096   0.468  13.927 -1.1115 -0.2810  1.3956
18416TIP3    H276664   0.169   0.593  13.970  0.0505 -1.1433  1.9623
18417TIP3   OH276665   2.543   6.381   0.008  0.2510 -0.1771  0.0680
18417TIP3    H176666   2.612   6.434   0.047 -1.2754  0.0655  2.5141
18417TIP3    H276667   2.466   6.437   0.009 -0.7915 -1.5868  0.4805
18418TIP3   OH276668   0.352   0.666  11.917  0.7718 -0.0027 -0.7745
18418TIP3    H176669   0.291   0.670  11.991  0.9822 -0.8003 -0.5607
18418TIP3    H276670   0.439   0.660  11.958  0.8248 -1.3776 -1.0955
18419TIP3   OH276671   0.643   5.993  15.147  0.2498 -0.4688 -0.0568
18419TIP3    H176672   0.552   5.965  15.138 -0.8026  1.7207  2.9049
18419TIP3    H276673   0.674   5.950  15.227  1.6222 -0.7390 -0.7217
18420TIP3   OH276674   6.278   6.774  14.546 -0.4937  0.3715  0.0399
18420TIP3    H176675   6.348   6.817  14.496 -1.3229  0.5964 -0.9439
18420TIP3    H276676   6.201   6.830  14.532 -1.2266 -0.6695 -0.0945
18421TIP3   OH276677   0.566   1.555  14.093  0.0128 -0.0819  0.4956
18421TIP3    H176678   0.659   1.534  14.081  0.4022  0.6510  2.1056
18421TIP3    H276679   0.553   1.635  14.041  0.1233 -0.5519 -0.2569
18422TIP3   OH276680   1.969   3.113  14.393  0.1004 -0.3181  0.1729
18422TIP3    H176681   2.026   3.187  14.374 -0.4877  0.1216  0.1194
18422TIP3    H276682   1.927   3.135  14.477  0.2598 -0.7921  0.3813
18423TIP3   OH276683   2.187   2.963   3.596  0.1594  0.6397 -0.3925
18423TIP3    H176684   2.228   2.921   3.520  0.4603 -0.4438  0.3551
18423TIP3    H276685   2.260   2.995   3.648  0.0546 -0.6415  0.5719
18424TIP3   OH276686   6.202   5.935   5.162 -0.5950 -0.1702  0.7441
18424TIP3    H176687   6.119   5.957   5.204 -0.8368  0.1751  0.0967
18424TIP3    H276688   6.185   5.853   5.115 -1.0199  0.6751 -0.6292
18425TIP3   OH276689   5.700   6.402  16.546 -0.3326 -0.1236  0.4507
18425TIP3    H176690   5.613   6.433  16.520 -0.1507 -0.0529 -0.0792
18425TIP3    H276691   5.723   6.457  16.622  0.2276  1.4433 -0.8221
18426TIP3   OH276692   1.518   4.575  12.086 -0.1050  0.3765 -0.1996
18426TIP3    H176693   1.445   4.633  12.062 -0.1818  0.2404 -0.2963
18426TIP3    H276694   1.477   4.490  12.099 -0.1995  0.6210  1.2285
18427TIP3   OH276695   6.008   4.600   3.251  0.3758  0.0371  0.0661
18427TIP3    H176696   6.081   4.561   3.203  1.4608  2.4590 -0.3274
18427TIP3    H276697   5.933   4.545   3.229  0.8995  0.8446 -4.1815
18428TIP3   OH276698   3.842   2.317   0.405  0.2945 -0.3676 -0.7842
18428TIP3    H176699   3.873   2.253   0.340  1.3916  0.2345 -0.8654
18428TIP3    H276700   3.814   2.392   0.352 -1.5385 -1.0013 -0.7219
18429TIP3   OH276701   6.394   1.134   2.143 -0.2316  0.3069 -1.0702
18429TIP3    H176702   6.484   1.139   2.177 -0.4061  0.6467 -0.6495
18429TIP3    H276703   6.362   1.049   2.175 -0.8992  1.2665  0.9059
18430TIP3   OH276704   5.565   3.675   3.157 -0.5227 -0.5260  0.3044
18430TIP3    H176705   5.523   3.735   3.095  0.2908 -0.7359 -0.4636
18430TIP3    H276706   5.592   3.730   3.230 -1.5060 -0.2768  0.4791
18431TIP3   OH276707   4.650   1.545  15.317 -0.1626 -0.4450  0.1655
18431TIP3    H176708   4.730   1.537  15.369  0.1309 -2.1227 -0.5220
18431TIP3    H276709   4.628   1.456  15.293 -2.0099  0.0468 -0.0326
18432TIP3   OH276710   1.437   0.146  12.136  0.2577  0.5985 -0.0426
18432TIP3    H176711   1.388   0.135  12.054  0.4679  2.2771 -0.4164
18432TIP3    H276712   1.372   0.176  12.200  0.5300  1.5822 -0.2139
18433TIP3   OH276713   2.432   2.514  16.185  0.4496  0.1505 -0.0016
18433TIP3    H176714   2.494   2.543  16.253 -0.1216 -0.9128  0.9960
18433TIP3    H276715   2.447   2.419  16.179 -0.2944  0.0699 -0.5660
18434TIP3   OH276716   6.313   4.639  12.259  0.0773 -0.5181  0.6891
18434TIP3    H176717   6.273   4.660  12.343 -0.3913  1.2424  0.0405
18434TIP3    H276718   6.408   4.644  12.275 -0.0105 -0.2602  1.1313
18435TIP3   OH276719   3.761   3.697  11.095  0.1811 -0.2432  0.2492
18435TIP3    H176720   3.832   3.692  11.031  1.6275 -1.5843  1.9207
18435TIP3    H276721   3.780   3.775  11.147 -1.5520  1.4423 -1.5162
18436TIP3   OH276722   1.263   4.015  14.750 -0.1043  0.5411  0.0058
18436TIP3    H176723   1.221   3.953  14.810  2.2223  2.3333  3.6243
18436TIP3    H276724   1.201   4.087  14.744  0.6369  1.3802  2.1353
18437TIP3   OH276725   5.300   1.716  17.141 -0.1451  0.3515  0.0472
18437TIP3    H176726   5.227   1.695  17.199 -0.0178 -0.3397 -0.0315
18437TIP3    H276727   5.331   1.801  17.172  0.8856 -0.6819  1.9876
18438TIP3   OH276728   4.782   3.118   5.060  0.4328  0.0068 -0.1493
18438TIP3    H176729   4.873   3.098   5.081  0.7146  0.5443 -0.8178
18438TIP3    H276730   4.737   3.033   5.061  0.3632  0.0390  2.8179
18439TIP3   OH276731   5.855   5.526  15.529 -0.1127 -0.1376  0.4455
18439TIP3    H176732   5.865   5.451  15.587 -0.7813 -2.0477 -1.8436
18439TIP3    H276733   5.939   5.534  15.484 -0.1135  0.3648  0.5221
18440TIP3   OH276734   6.474   5.919   1.289 -0.1639 -0.4984 -0.0836
18440TIP3    H176735   6.545   5.904   1.226  0.7222  0.6267  0.6426
18440TIP3    H276736   6.397   5.936   1.234  0.6271  0.5635 -0.8701
18441TIP3   OH276737   1.962   2.249  16.337 -0.2836 -0.1497  0.1978
18441TIP3    H176738   2.043   2.202  16.317 -0.7214 -0.7531 -0.1698
18441TIP3    H276739   1.991   2.337  16.362  0.6086 -0.8430  1.7135
18442TIP3   OH276740   1.013   0.619  14.549 -0.1568  0.6713  0.1167
18442TIP3    H176741   0.935   0.662  14.584 -0.6773 -0.9327  0.9925
18442TIP3    H276742   1.044   0.678  14.480 -1.2041  2.1158  0.8415
18443TIP3   OH276743   6.302   0.787   0.060 -0.4344 -0.4336 -0.0565
18443TIP3    H176744   6.377   0.740   0.024  0.9681 -0.0026  2.1825
18443TIP3    H276745   6.226   0.741   0.025  0.8771 -1.8246 -1.1701
18444TIP3   OH276746   4.104   4.751   4.609 -0.1738 -0.8645  0.1197
18444TIP3    H176747   4.131   4.693   4.681 -2.4855 -3.5179 -1.0412
18444TIP3    H276748   4.015   4.777   4.631 -0.1116  0.0749 -0.7245
18445TIP3   OH276749   4.676   3.089  16.182 -0.8364 -0.3773 -0.5037
18445TIP3    H176750   4.755   3.136  16.209 -1.0051 -0.5079  0.2340
18445TIP3    H276751   4.672   3.101  16.088  0.8046 -1.5028 -0.7515
18446TIP3   OH276752   3.908   3.729  16.290  0.2135  0.3938  0.2116
18446TIP3    H176753   3.991   3.745  16.247 -0.2743 -0.5011 -1.0973
18446TIP3    H276754   3.931   3.697  16.377  1.2439 -0.2828 -0.3045
18447TIP3   OH276755   5.583   3.554  13.133  0.2486  0.0535  0.2979
18447TIP3    H176756   5.544   3.573  13.219 -0.7051 -2.9266  0.5543
18447TIP3    H276757   5.616   3.639  13.104 -1.0722  1.4994  2.7725
18448TIP3   OH276758   6.175   6.619   2.548  0.0847  0.3167 -0.1783
18448TIP3    H176759   6.184   6.711   2.525 -0.0633  0.6262  1.0238
18448TIP3    H276760   6.230   6.608   2.626 -0.2395 -0.5135 -0.0645
18449TIP3   OH276761   2.320   2.955  17.224 -0.0724  0.1192 -0.1417
18449TIP3    H176762   2.230   2.986  17.229  0.3766  1.5755 -0.9387
18449TIP3    H276763   2.315   2.876  17.171 -1.0845 -0.6707  1.0992
18450TIP3   OH276764   2.318   0.132  15.348  0.0946 -0.1328  0.2442
18450TIP3    H176765   2.411   0.145  15.367 -0.0976  0.0220  1.0641
18450TIP3    H276766   2.299   0.195  15.278  0.3236  0.6419  0.8825
18451TIP3   OH276767   5.103   5.426  16.258  0.0422  0.1079  0.0220
18451TIP3    H176768   5.043   5.412  16.185 -0.8784 -1.4686  1.0559
18451TIP3    H276769   5.186   5.448  16.216 -0.6783  0.0793 -1.4752
18452TIP3   OH276770   4.343   5.425   0.527  0.5210 -0.4427  0.1957
18452TIP3    H176771   4.292   5.441   0.448  0.6567  1.7978  0.5408
18452TIP3    H276772   4.292   5.361   0.576 -1.4414  0.9538  0.0408
18453TIP3   OH276773   5.918   1.779  14.752 -0.0060  0.3344  0.0412
18453TIP3    H176774   5.914   1.843  14.681  1.2311  2.8468  2.1605
18453TIP3    H276775   5.837   1.729  14.742 -0.7919  1.9006 -1.9628
18454TIP3   OH276776   4.285   0.516  14.195  0.0393 -0.0080 -0.6154
18454TIP3    H176777   4.208   0.478  14.237  1.8615 -1.0057  1.9098
18454TIP3    H276778   4.357   0.498  14.255  2.1471  1.5199 -2.5939
18455TIP3   OH276779   3.484   5.551   4.947  0.6654 -0.2378  0.4987
18455TIP3    H176780   3.560   5.602   4.918  0.1666  0.6285  0.6974
18455TIP3    H276781   3.468   5.580   5.036 -0.9476  0.8403 -0.1241
18456TIP3   OH276782   4.519   1.521   4.411 -0.3966  0.6291 -0.0797
18456TIP3    H176783   4.561   1.564   4.337 -0.4439  2.1125  0.7444
18456TIP3    H276784   4.453   1.464   4.372  1.0032 -0.1964 -1.2803
18457TIP3   OH276785   0.503   1.687  15.193 -0.1425 -0.4884  0.1770
18457TIP3    H176786   0.466   1.599  15.203 -0.2583 -0.3403  1.0706
18457TIP3    H276787   0.434   1.746  15.222  0.0604 -0.1145 -0.0991
18458TIP3   OH276788   2.229   1.049  15.868  0.5804 -0.4546 -0.1789
18458TIP3    H176789   2.245   1.141  15.888 -1.8876 -0.3263  1.3929
18458TIP3    H276790   2.166   1.052  15.796 -0.6573 -0.8923  0.8760
18459TIP3   OH276791   4.717   5.704   2.495  0.8393  0.0203 -0.5442
18459TIP3    H176792   4.800   5.747   2.516  0.1994  0.9813  0.0718
18459TIP3    H276793   4.691   5.660   2.576  0.4833  0.1890 -0.5628
18460TIP3   OH276794   1.771   5.238  16.531 -0.0007 -0.2873 -0.2529
18460TIP3    H176795   1.841   5.201  16.586 -1.1252 -0.4394  1.1022
18460TIP3    H276796   1.817   5.274  16.455  1.5996 -0.0370  0.8093
18461TIP3   OH276797   4.449   6.553  15.500  0.9727 -0.4842  0.2041
18461TIP3    H176798   4.483   6.548  15.411 -1.0467 -0.2626 -0.6092
18461TIP3    H276799   4.480   6.638  15.532  0.5568  0.0515 -0.7873
18462TIP3   OH276800   5.006   3.786   5.686  0.0586 -0.1824 -0.0731
18462TIP3    H176801   5.050   3.701   5.674  1.3745  0.6848 -1.6107
18462TIP3    H276802   4.953   3.774   5.764 -1.2177 -3.0290 -1.2932
18463TIP3   OH276803   1.916   2.797   6.773 -0.3050  0.2431 -0.0795
18463TIP3    H176804   1.944   2.873   6.823 -0.3392 -0.6899  1.3723
18463TIP3    H276805   1.979   2.729   6.795  0.5065  0.1916 -2.3828
18464TIP3   OH276806   1.720   0.068  14.415  0.2864  0.1268 -0.1631
18464TIP3    H176807   1.726   0.102  14.504 -1.0733  0.4648 -0.1822
18464TIP3    H276808   1.806   0.086  14.376  0.8998 -0.0745  1.0880
18465TIP3   OH276809   6.500   3.194  10.776  0.4390 -0.3133 -0.4539
18465TIP3    H176810   6.574   3.226  10.723  1.4252  2.8401  2.6142
18465TIP3    H276811   6.434   3.262  10.767  0.7461  0.4406  2.4935
18466TIP3   OH276812   0.019   5.934  11.915  0.3331  0.0867  0.5200
18466TIP3    H176813  -0.007   5.961  11.828  0.9512  1.0008  0.6141
18466TIP3    H276814  -0.033   5.856  11.933  1.2549 -0.9605 -1.2351
18467TIP3   OH276815   1.452   1.343   5.629  0.5104 -0.1433 -0.5232
18467TIP3    H176816   1.493   1.374   5.710  1.2528  0.0711 -0.9890
18467TIP3    H276817   1.373   1.298   5.660  0.8357 -0.1499  0.3339
18468TIP3   OH276818   3.627   1.238  16.156  0.0934 -0.3530 -0.0775
18468TIP3    H176819   3.654   1.226  16.247 -0.7925 -1.0920  0.0959
18468TIP3    H276820   3.701   1.281  16.114  0.3781  0.2892  1.0729
18469TIP3   OH276821   1.971   5.135   0.309 -0.8699  1.1994  0.8168
18469TIP3    H176822   1.877   5.117   0.308 -0.8001  0.8632 -0.2195
18469TIP3    H276823   2.012   5.049   0.303 -0.5121  1.4197  0.0304
18470TIP3   OH276824   6.491   3.183   1.194 -0.1529  0.3606  0.1527
18470TIP3    H176825   6.420   3.213   1.250 -0.9801 -1.8909  0.3673
18470TIP3    H276826   6.563   3.245   1.211 -0.5693  0.0840  3.2732
18471TIP3   OH276827   1.241   4.609  14.382  0.2268 -0.7887  0.2593
18471TIP3    H176828   1.222   4.630  14.473 -1.5229  0.1161 -0.2849
18471TIP3    H276829   1.285   4.524  14.386  0.8597 -0.3980  1.9898
18472TIP3   OH276830   3.728   1.241   3.020  0.0077  0.6936  0.0483
18472TIP3    H176831   3.797   1.195   3.068 -0.7285 -0.1633  0.3034
18472TIP3    H276832   3.673   1.279   3.088 -1.3767 -1.0239 -0.0734
18473TIP3   OH276833   2.666   2.368  15.985  0.0949  0.1025  0.1179
18473TIP3    H176834   2.700   2.357  16.074 -1.6922  1.7136  1.0409
18473TIP3    H276835   2.578   2.330  15.987 -0.5084  1.4235 -0.5520
18474TIP3   OH276836   4.115   0.989   2.251 -0.7569 -0.8069  0.4499
18474TIP3    H176837   4.152   0.960   2.167 -0.8014  1.0594 -0.2555
18474TIP3    H276838   4.189   1.026   2.298 -0.8174 -1.4630  1.0717
18475TIP3   OH276839   6.064   0.117   5.495  0.0585 -0.2607 -0.3228
18475TIP3    H176840   6.132   0.157   5.440  1.3276 -0.0202  1.3976
18475TIP3    H276841   6.080   0.023   5.488  0.6833 -0.1994  0.1986
18476TIP3   OH276842   3.634   2.087  12.911 -0.0869  0.5385  0.3814
18476TIP3    H176843   3.675   2.170  12.934  1.0841 -0.2121  1.0387
18476TIP3    H276844   3.659   2.027  12.981  1.1084 -1.0049 -1.3336
18477TIP3   OH276845   1.540   4.937   6.020  0.0449  0.1280  0.3486
18477TIP3    H176846   1.547   5.005   6.086 -0.2970  0.0660  0.4496
18477TIP3    H276847   1.492   4.866   6.063 -2.9662  1.3198 -0.9183
18478TIP3   OH276848   1.163   2.132  16.153 -0.1890 -0.0394 -0.0882
18478TIP3    H176849   1.255   2.131  16.124  0.3131 -0.3555  1.4813
18478TIP3    H276850   1.162   2.074  16.229 -1.8440 -0.5946 -0.5325
18479TIP3   OH276851   5.509   1.343   4.130  0.0122  0.3020 -0.4276
18479TIP3    H176852   5.417   1.337   4.103 -0.1920  1.6422 -0.0296
18479TIP3    H276853   5.529   1.256   4.165 -1.2808  0.1791  0.0318
18480TIP3   OH276854   2.624   4.456   5.015  0.0341 -0.0328 -0.0399
18480TIP3    H176855   2.646   4.447   5.108 -1.2701 -1.1262  0.1911
18480TIP3    H276856   2.684   4.522   4.982 -0.8861  1.9322  2.0782
18481TIP3   OH276857   3.376   6.547   2.893 -0.4992 -1.2453 -0.0605
18481TIP3    H176858   3.325   6.622   2.861  2.4113  0.8675  0.0585
18481TIP3    H276859   3.361   6.548   2.988 -0.1750 -0.6060 -0.0168
18482TIP3   OH276860   2.296   3.506   4.164  0.1537  0.9483 -0.1998
18482TIP3    H176861   2.212   3.548   4.184 -0.5628 -0.1838 -0.8142
18482TIP3    H276862   2.274   3.415   4.147  1.5886  0.5225  0.1836
18483TIP3   OH276863   2.605   3.232  11.047  0.0347 -0.0075 -0.2043
18483TIP3    H176864   2.540   3.283  11.094  0.6694  0.2102  0.4499
18483TIP3    H276865   2.688   3.253  11.091  0.2765 -1.7036  0.1906
18484TIP3   OH276866   5.706   4.114  11.718  0.1937  0.3155  0.4703
18484TIP3    H176867   5.684   4.191  11.770 -0.0233  0.9815 -0.5993
18484TIP3    H276868   5.797   4.094  11.741  0.6104  1.5554 -0.0540
18485TIP3   OH276869   4.902   5.842   1.735  0.0638  0.3776  0.6033
18485TIP3    H176870   4.962   5.881   1.671 -1.0847  0.2235 -0.6061
18485TIP3    H276871   4.944   5.760   1.761  1.0257  0.9329  0.8181
18486TIP3   OH276872   0.196   6.611   0.765  0.4119 -0.2578  0.1276
18486TIP3    H176873   0.292   6.608   0.761  0.4699  0.0893  1.1023
18486TIP3    H276874   0.169   6.521   0.782  0.5749 -0.3074  0.1242
18487TIP3   OH276875   5.293   1.818  11.103  0.4650 -0.5710 -0.2070
18487TIP3    H176876   5.278   1.840  11.195 -1.9108 -1.2098 -0.4018
18487TIP3    H276877   5.338   1.734  11.106  0.8498 -0.3489  0.3730
18488TIP3   OH276878   0.366   4.860  15.309  0.0727 -0.3352  0.3293
18488TIP3    H176879   0.304   4.863  15.237  0.9284  0.4140 -0.3848
18488TIP3    H276880   0.344   4.936  15.363  1.1567  0.6644 -0.6005
18489TIP3   OH276881   5.957   0.272   4.411 -0.1304 -0.1558  0.4629
18489TIP3    H176882   5.884   0.235   4.361 -2.0893  0.9618  2.4066
18489TIP3    H276883   6.031   0.214   4.393 -1.9313 -2.2646 -0.2412
18490TIP3   OH276884   1.671   1.705  12.140  0.3699  0.3024  0.3595
18490TIP3    H176885   1.577   1.718  12.145  0.1655 -0.6599 -0.6912
18490TIP3    H276886   1.686   1.668  12.053  1.8184  1.2827  0.1745
18491TIP3   OH276887   0.853   0.399  13.422  0.4077 -0.4421 -0.2865
18491TIP3    H176888   0.851   0.332  13.489  0.8735 -0.8253 -0.6490
18491TIP3    H276889   0.943   0.396  13.387  1.2535  2.1144  1.4628
18492TIP3   OH276890   6.177   0.308   1.906 -0.4098 -0.2440 -0.2333
18492TIP3    H176891   6.228   0.229   1.922 -0.4318  0.2500  2.5071
18492TIP3    H276892   6.229   0.378   1.946 -1.6904  0.7201 -0.2412
18493TIP3   OH276893   6.591   3.255  11.223 -0.3417  0.1918 -0.6753
18493TIP3    H176894   6.615   3.224  11.135  1.1108  1.1597 -0.6274
18493TIP3    H276895   6.643   3.200  11.282 -0.8941 -0.0764 -0.4370
18494TIP3   OH276896   6.304   2.249   4.313  0.1618  0.5436  0.0562
18494TIP3    H176897   6.317   2.337   4.279  0.7524  0.8745  1.1345
18494TIP3    H276898   6.209   2.240   4.323  0.1385  1.2043  0.3837
18495TIP3   OH276899   2.430   1.839  15.294  0.1621  0.3955 -0.0718
18495TIP3    H176900   2.349   1.840  15.243  0.4659 -0.4613 -0.5689
18495TIP3    H276901   2.412   1.779  15.367  0.9724 -1.2663 -1.2135
18496TIP3   OH276902   2.268   6.473   0.314 -0.1666  0.5934  0.0557
18496TIP3    H176903   2.182   6.474   0.357 -1.4338  2.0459 -2.4038
18496TIP3    H276904   2.312   6.552   0.347 -0.3220  0.5963  0.2570
18497TIP3   OH276905   5.658   2.347   1.527 -0.4232 -0.1692 -0.0789
18497TIP3    H176906   5.606   2.272   1.498 -1.5082  0.1454  0.9812
18497TIP3    H276907   5.601   2.422   1.512 -0.1062  0.2238  0.6918
18498TIP3   OH276908   4.447   4.400   4.168 -0.1404 -0.1335 -0.5767
18498TIP3    H176909   4.444   4.304   4.159  0.2381 -0.2739  0.6818
18498TIP3    H276910   4.356   4.426   4.183 -0.2026 -0.3371 -0.5946
18499TIP3   OH276911   5.667   4.137  12.029 -0.3298 -0.0930 -0.0199
18499TIP3    H176912   5.733   4.190  11.984 -1.6024  0.2387 -1.5499
18499TIP3    H276913   5.596   4.199  12.049 -1.5691 -1.0871 -1.2735
18500TIP3   OH276914   6.312   4.154  10.632  0.8463  0.0376 -0.2381
18500TIP3    H176915   6.393   4.108  10.652  0.2460 -0.0384  2.3238
18500TIP3    H276916   6.245   4.086  10.636  0.4286  0.4425 -0.3056
18501TIP3   OH276917   4.150   4.901   2.664 -0.3063  0.1963  0.5967
18501TIP3    H176918   4.175   4.812   2.691  0.3998  0.5690  1.1519
18501TIP3    H276919   4.231   4.942   2.636 -0.3584  1.2133  1.8705
18502TIP3   OH276920   2.217   2.477  13.301 -0.5227 -0.4245 -0.3808
18502TIP3    H176921   2.289   2.424  13.268 -0.5120 -1.0112  0.5649
18502TIP3    H276922   2.259   2.550  13.348 -0.5394 -0.3439 -0.4916
18503TIP3   OH276923   5.313   1.860   4.917 -0.8475  0.5477 -0.0159
18503TIP3    H176924   5.248   1.792   4.938 -0.3194  0.1779  0.4551
18503TIP3    H276925   5.299   1.880   4.825 -1.6322  0.4691  0.0858
18504TIP3   OH276926   4.680   6.208   4.595  0.5180  0.3543  0.0491
18504TIP3    H176927   4.630   6.264   4.655 -0.1693 -0.1392 -0.0723
18504TIP3    H276928   4.671   6.120   4.631  2.1198  0.3807  0.5986
18505TIP3   OH276929   3.687   3.515   3.179 -0.1089  0.3550  0.2292
18505TIP3    H176930   3.624   3.564   3.127 -0.4510 -0.0476  0.2632
18505TIP3    H276931   3.728   3.581   3.235 -1.0936  0.4877  0.7998
18506TIP3   OH276932   1.431   4.639  13.454  0.0505  0.1400 -0.2322
18506TIP3    H176933   1.481   4.568  13.494 -1.0395 -2.2586 -3.0074
18506TIP3    H276934   1.352   4.646  13.507  0.0154 -0.9252 -0.1415
18507TIP3   OH276935   1.719   5.394   3.389 -0.2858  0.5672  0.3322
18507TIP3    H176936   1.768   5.335   3.447  1.1792  1.5942  0.1503
18507TIP3    H276937   1.766   5.390   3.306 -1.7948 -0.1145 -0.5147
18508TIP3   OH276938   3.003   6.659   5.251  0.2751 -0.3680 -0.0869
18508TIP3    H176939   2.918   6.616   5.262  0.0063 -0.2782 -1.6477
18508TIP3    H276940   3.016   6.707   5.333 -0.7850 -1.0757  0.5054
18509TIP3   OH276941   5.337   4.218  14.834  0.0888  0.2044  0.4373
18509TIP3    H176942   5.370   4.129  14.825 -0.4259 -0.4646  4.1032
18509TIP3    H276943   5.257   4.220  14.781  0.5012 -1.2848 -0.2624
18510TIP3   OH276944   1.795   3.656  15.031  0.0397 -0.0442 -0.1339
18510TIP3    H176945   1.706   3.678  15.060 -0.5197 -0.5713 -1.4267
18510TIP3    H276946   1.787   3.643  14.937  1.3640 -0.7374 -0.1589
18511TIP3   OH276947   0.784   5.694   1.477 -0.4397 -0.1722  0.3158
18511TIP3    H176948   0.768   5.754   1.404  2.4012  0.0415 -0.1740
18511TIP3    H276949   0.853   5.736   1.528  1.2662 -2.7789  0.2377
18512TIP3   OH276950   5.795   3.735   6.613  0.2220 -0.1036  0.1138
18512TIP3    H176951   5.798   3.806   6.549  0.6025  0.0084  0.2563
18512TIP3    H276952   5.779   3.656   6.561  1.6783 -0.1716 -0.2343
18513TIP3   OH276953   0.615   4.951   4.117 -0.3405  0.9815  0.1954
18513TIP3    H176954   0.687   5.014   4.112 -0.2595  0.8929  0.2324
18513TIP3    H276955   0.602   4.938   4.210  0.5542 -0.0862  0.1879
18514TIP3   OH276956   3.906   6.526   0.231 -0.2879  0.3214  0.3612
18514TIP3    H176957   3.869   6.614   0.226  0.2289  0.4869 -0.6246
18514TIP3    H276958   3.907   6.495   0.141  1.7990  0.2462  0.3851
18515TIP3   OH276959   3.929   1.094  14.151  0.4871 -0.0477 -0.4458
18515TIP3    H176960   3.843   1.060  14.174  1.4099 -1.8792  0.3655
18515TIP3    H276961   3.915   1.188  14.139 -1.8272 -0.4706 -1.3888
18516TIP3   OH276962   5.540   3.496   0.409  1.0836 -0.3346  0.0638
18516TIP3    H176963   5.541   3.416   0.357  1.5143 -0.0430 -0.3886
18516TIP3    H276964   5.497   3.560   0.354  1.3847 -0.0681  0.1343
18517TIP3   OH276965   1.393   3.179  11.252 -0.2801 -0.4352 -0.3690
18517TIP3    H176966   1.448   3.194  11.329  0.0605 -0.7229 -0.5561
18517TIP3    H276967   1.414   3.252  11.193  0.2102 -0.7831 -0.6188
18518TIP3   OH276968   3.077   0.804   2.140 -0.1710  0.2212  0.3720
18518TIP3    H176969   3.054   0.855   2.062 -1.1905 -0.5138  0.1774
18518TIP3    H276970   3.169   0.783   2.129 -0.5656 -0.7607 -1.1603
18519TIP3   OH276971   2.809   1.890   0.542 -0.0909 -0.5929  0.4705
18519TIP3    H176972   2.858   1.971   0.555 -0.2775 -0.3087 -0.6021
18519TIP3    H276973   2.849   1.849   0.465  1.0135 -2.2822  1.8930
18520TIP3   OH276974   2.635   3.292   3.843 -0.3468  0.3168 -0.2319
18520TIP3    H176975   2.718   3.323   3.808 -0.1088  1.6164  1.3947
18520TIP3    H276976   2.578   3.369   3.841 -1.0725 -0.2030 -0.0197
18521TIP3   OH276977   5.156   3.277  15.992  0.3171 -0.6938 -0.0299
18521TIP3    H176978   5.238   3.279  16.041 -0.8072 -0.1303  1.8920
18521TIP3    H276979   5.139   3.183  15.977 -0.5140 -1.0658  2.8177
18522TIP3   OH276980   2.044   5.818   4.313 -0.3929  0.0184 -0.4820
18522TIP3    H176981   2.124   5.791   4.269  0.5362  0.5884  0.8107
18522TIP3    H276982   2.035   5.911   4.292 -0.8391 -0.0898 -0.7905
18523TIP3   OH276983   0.812   5.549   2.967 -0.0691  0.9582  0.5874
18523TIP3    H176984   0.801   5.620   3.030 -2.0013 -0.7270  2.2340
18523TIP3    H276985   0.877   5.491   3.008 -0.5214  0.4100  0.5320
18524TIP3   OH276986   1.709   6.709   3.258  0.2012 -0.2074 -0.0950
18524TIP3    H176987   1.670   6.752   3.335 -0.2679 -0.4905 -0.1738
18524TIP3    H276988   1.659   6.743   3.184 -0.9477 -1.7716 -0.0533
18525TIP3   OH276989   6.609   3.598  17.191 -0.5824  0.4551 -0.4338
18525TIP3    H176990   6.589   3.602  17.285  0.2180 -1.3741 -0.1639
18525TIP3    H276991   6.634   3.688  17.168 -0.2513  0.8064  1.2205
18526TIP3   OH276992   2.505   2.071  12.261  0.2180  0.0438 -0.6197
18526TIP3    H176993   2.570   2.001  12.258 -1.2322 -1.2962 -1.4997
18526TIP3    H276994   2.483   2.087  12.169 -1.6208 -0.4153 -0.2673
18527TIP3   OH276995   0.473   5.450   5.620  0.0581 -0.0623 -0.2761
18527TIP3    H176996   0.502   5.536   5.588 -1.0279 -0.3782 -2.1751
18527TIP3    H276997   0.453   5.465   5.712  0.7305  1.5066 -0.3591
18528TIP3   OH276998   1.327   1.471   4.565  0.5816  0.2199 -0.2197
18528TIP3    H176999   1.257   1.461   4.631 -0.3820 -2.0264 -1.5260
18528TIP3    H277000   1.408   1.458   4.615  0.0534  1.7111  1.0979
18529TIP3   OH277001   3.176   4.113  13.261 -0.4009 -0.5984  0.3132
18529TIP3    H177002   3.189   4.173  13.188 -0.7068 -1.8683 -0.7940
18529TIP3    H277003   3.220   4.156  13.335  0.7881  0.2208 -0.8421
18530TIP3   OH277004   5.673   3.091  14.486 -0.5368 -0.1760  0.0059
18530TIP3    H177005   5.663   3.157  14.555  0.1671  2.4783 -2.3518
18530TIP3    H277006   5.586   3.052  14.478 -1.7432  2.4912 -0.4931
18531TIP3   OH277007   1.363   0.257   1.326 -0.0424 -0.7913  0.5265
18531TIP3    H177008   1.413   0.339   1.326 -1.8646  0.3764 -1.1787
18531TIP3    H277009   1.423   0.192   1.291  1.2404 -0.0723  1.3548
18532TIP3   OH277010   2.765   0.760   2.184 -0.1971  0.4068 -0.3316
18532TIP3    H177011   2.825   0.695   2.221 -0.9793 -0.4349 -0.5120
18532TIP3    H277012   2.820   0.812   2.125  0.4889  0.0690 -0.0021
18533TIP3   OH277013   2.497   3.895  15.087  0.0118  0.0987 -0.0218
18533TIP3    H177014   2.494   3.895  15.182  0.6659  0.3221  0.0024
18533TIP3    H277015   2.562   3.962  15.065  0.0802 -0.1589 -0.6179
18534TIP3   OH277016   0.335   2.300   2.303  0.6194 -0.1778 -0.3564
18534TIP3    H177017   0.259   2.242   2.307 -0.6235  1.4415 -0.2882
18534TIP3    H277018   0.313   2.373   2.360  1.8251  0.8025 -1.1203
18535TIP3   OH277019   5.768   5.073  10.929 -0.0532 -0.1219 -0.2885
18535TIP3    H177020   5.853   5.034  10.907 -0.6429 -1.2668 -0.5783
18535TIP3    H277021   5.771   5.160  10.888 -0.1390 -1.2580 -2.8410
18536TIP3   OH277022   3.138   2.297   2.272 -0.1551 -0.0462  0.0924
18536TIP3    H177023   3.051   2.313   2.234 -0.3626 -1.5751 -0.1290
18536TIP3    H277024   3.153   2.204   2.257  1.6899  0.2882 -0.1770
18537TIP3   OH277025   4.858   1.198  11.518 -0.3465 -0.3792  0.0126
18537TIP3    H177026   4.867   1.275  11.574 -0.6225 -1.6197  1.7972
18537TIP3    H277027   4.811   1.230  11.441  0.5738  1.4768  0.1853
18538TIP3   OH277028   1.313   5.950   0.522  0.0163 -0.5014 -0.5267
18538TIP3    H177029   1.340   5.918   0.436 -0.6526 -0.8902 -0.5910
18538TIP3    H277030   1.393   5.945   0.575  0.8512  1.3121 -1.5657
18539TIP3   OH277031   1.002   5.487   0.819  0.3643  0.2852  0.5441
18539TIP3    H177032   0.932   5.493   0.884 -1.0494  0.0238 -0.9093
18539TIP3    H277033   1.071   5.545   0.851 -0.7727  1.0196  1.6953
18540TIP3   OH277034   1.294   1.021   5.944  0.1510 -0.4153  0.4203
18540TIP3    H177035   1.258   0.947   5.895  0.2817 -0.8523  0.9828
18540TIP3    H277036   1.226   1.088   5.939 -0.2189 -0.7904  0.4217
18541TIP3   OH277037   5.372   2.879  13.377  0.2092 -0.0185 -0.0506
18541TIP3    H177038   5.420   2.803  13.413 -0.5205 -0.3808  0.1621
18541TIP3    H277039   5.340   2.925  13.454  0.5729  0.4636 -0.1849
18542TIP3   OH277040   3.706   2.310  13.043  0.0954 -0.6145 -0.1445
18542TIP3    H177041   3.737   2.399  13.056 -2.3634  0.7105 -2.8027
18542TIP3    H277042   3.624   2.305  13.092 -1.0741 -0.5494 -2.0163
18543TIP3   OH277043   6.548   4.265   1.485 -0.5346 -0.0857  0.2316
18543TIP3    H177044   6.571   4.176   1.457 -0.8267  0.3001 -1.3025
18543TIP3    H277045   6.539   4.314   1.403  0.9607  1.7054  1.1169
18544TIP3   OH277046   2.089   2.667  12.520 -0.3451  0.2998 -0.1301
18544TIP3    H177047   2.141   2.747  12.524  0.9817 -0.5682  0.1843
18544TIP3    H277048   2.052   2.657  12.608  2.7282 -1.5453  1.0171
18545TIP3   OH277049   0.699   6.648   0.768 -0.4701 -0.2238  0.1376
18545TIP3    H177050   0.757   6.585   0.726  0.6833  0.9146 -0.0093
18545TIP3    H277051   0.611   6.613   0.754 -0.0217 -0.4807 -2.1605
18546TIP3   OH277052   1.804   2.874  13.658 -0.0770 -0.8392  0.3759
18546TIP3    H177053   1.794   2.876  13.563 -0.6844 -1.9266  0.4068
18546TIP3    H277054   1.858   2.950  13.678 -0.9081  0.0538 -0.7228
18547TIP3   OH277055   0.439   0.440  14.871  0.6606 -0.6255 -0.5279
18547TIP3    H177056   0.364   0.463  14.926 -0.4632  1.5029 -2.8348
18547TIP3    H277057   0.505   0.506  14.892 -0.6118  1.6374 -3.2841
18548TIP3   OH277058   6.382   0.125   5.426 -0.1018 -0.0380 -0.4168
18548TIP3    H177059   6.420   0.177   5.496  1.0621  0.1085 -1.1364
18548TIP3    H277060   6.326   0.186   5.378  0.3414  0.2675 -0.5538
18549TIP3   OH277061   1.931   1.006  13.867  0.3632  0.0451 -0.1524
18549TIP3    H177062   1.840   0.982  13.886  1.3979 -3.1872  1.1186
18549TIP3    H277063   1.959   0.942  13.802  2.4301 -0.4909  1.2474
18550TIP3   OH277064   2.401   0.795   1.157 -0.5906  0.1633  0.0006
18550TIP3    H177065   2.319   0.747   1.151  0.1018 -1.1949  1.1828
18550TIP3    H277066   2.469   0.729   1.144  0.3467  0.9541  0.7596
18551TIP3   OH277067   0.460   1.101   5.619 -0.5680 -0.0657 -0.1190
18551TIP3    H177068   0.493   1.108   5.708 -1.1908  1.8630 -0.0055
18551TIP3    H277069   0.512   1.032   5.579  0.3789 -0.2800  1.4435
18552TIP3   OH277070   2.631   1.826  14.979  0.2854 -0.5372  0.1992
18552TIP3    H177071   2.544   1.854  15.009  0.6984  0.4219  0.5241
18552TIP3    H277072   2.678   1.805  15.060  0.9612  0.7523  0.1514
18553TIP3   OH277073   1.163   6.524  14.397 -0.8043 -0.8124  0.2703
18553TIP3    H177074   1.108   6.495  14.470 -0.3812 -1.7623  0.2279
18553TIP3    H277075   1.193   6.442  14.357 -0.0929 -0.2974 -0.2513
18554TIP3   OH277076   4.481   3.254  16.264  0.4216 -0.4049  0.1708
18554TIP3    H177077   4.422   3.251  16.189 -0.4345 -0.4645  0.8409
18554TIP3    H277078   4.537   3.177  16.253 -0.0892 -0.7430 -0.0923
18555TIP3   OH277079   6.080   5.241  15.309  0.3098  0.1300 -0.2976
18555TIP3    H177080   6.107   5.193  15.388  2.2874 -0.4881 -1.3236
18555TIP3    H277081   6.095   5.333  15.330  3.9568 -0.2052 -1.0287
18556TIP3   OH277082   0.257   3.178  14.310  0.0688 -0.4387 -0.0806
18556TIP3    H177083   0.278   3.241  14.379 -0.6080 -0.8350  0.4977
18556TIP3    H277084   0.223   3.232  14.238  0.5270 -0.0500 -0.0079
18557TIP3   OH277085   4.560   2.050  12.229 -0.5010 -0.3682  0.1819
18557TIP3    H177086   4.494   2.119  12.221 -0.0452  0.1521  0.8121
18557TIP3    H277087   4.638   2.096  12.262  0.0732 -1.0286 -0.2536
18558TIP3   OH277088   1.626   3.637   1.870  0.3691  0.2174  0.2530
18558TIP3    H177089   1.697   3.597   1.921 -0.5155 -1.5071  0.1692
18558TIP3    H277090   1.564   3.667   1.936 -0.0015 -0.5443  0.2598
18559TIP3   OH277091   6.732   1.674  12.387 -0.2684  0.2391 -0.6450
18559TIP3    H177092   6.645   1.682  12.349 -0.1599  2.6966 -0.4533
18559TIP3    H277093   6.715   1.655  12.480 -0.6084  1.2929 -0.4888
18560TIP3   OH277094   1.215   4.512   5.302 -0.1036  0.1726 -0.6968
18560TIP3    H177095   1.165   4.434   5.279  0.9061  0.1149 -2.7759
18560TIP3    H277096   1.237   4.552   5.219  0.0446  2.2927  0.3228
18561TIP3   OH277097   1.731   0.819   1.028 -0.3327  0.5143 -0.0987
18561TIP3    H177098   1.710   0.741   1.078  0.4983 -0.3351 -1.0493
18561TIP3    H277099   1.728   0.791   0.937 -1.0254  1.8447 -0.5041
18562TIP3   OH277100   5.759   1.017   4.833 -0.1485 -0.2338 -0.0766
18562TIP3    H177101   5.721   0.957   4.769  0.0447  0.5155 -0.9120
18562TIP3    H277102   5.849   0.985   4.844 -0.4582 -0.9079  0.5113
18563TIP3   OH277103   1.940   2.841  14.539  0.0243  0.2384  0.5012
18563TIP3    H177104   2.023   2.875  14.506 -0.3437  0.8435  0.1980
18563TIP3    H277105   1.942   2.748  14.516 -0.2486  0.6621 -1.3007
18564TIP3   OH277106   2.255   2.127   0.679  0.2598  0.5707  0.1537
18564TIP3    H177107   2.273   2.080   0.761  0.2327  0.3754  0.0487
18564TIP3    H277108   2.273   2.063   0.611  0.1360  0.6872  0.0126
18565TIP3   OH277109   1.660   2.725   6.847 -0.7487  0.1778  0.0021
18565TIP3    H177110   1.673   2.631   6.863 -0.0813  0.3661  0.6117
18565TIP3    H277111   1.749   2.760   6.836 -0.8367  1.0696  1.7988
18566TIP3   OH277112   0.190   6.489  15.685  0.4137  0.7183  0.0331
18566TIP3    H177113   0.215   6.459  15.597 -1.7959  1.1693 -0.7845
18566TIP3    H277114   0.150   6.412  15.726  0.3452  0.8475  0.2088
18567TIP3   OH277115   6.392   0.133  11.057  0.2726 -0.3613  0.3724
18567TIP3    H177116   6.454   0.150  10.986 -0.3667  0.3906 -0.0123
18567TIP3    H277117   6.318   0.090  11.015 -0.2074  0.2908  0.5475
18568TIP3   OH277118   0.063   4.519   3.478  0.6437  0.2510  0.1606
18568TIP3    H177119   0.013   4.594   3.511  2.5486  0.6376  2.2772
18568TIP3    H277120   0.146   4.556   3.448  1.1947 -0.8800  0.2466
18569TIP3   OH277121   5.757   1.282  12.807  0.1479 -1.0619 -0.5485
18569TIP3    H177122   5.701   1.267  12.884 -0.2573 -2.6751 -1.1374
18569TIP3    H277123   5.764   1.377  12.801 -0.6397 -0.8930  0.9012
18570TIP3   OH277124   5.454   2.847   5.230  0.3388 -0.2055  0.5400
18570TIP3    H177125   5.414   2.778   5.178  0.4681  0.7647 -0.9028
18570TIP3    H277126   5.546   2.848   5.202  0.3790  0.4172  0.6698
18571TIP3   OH277127   1.628   6.071   5.036  0.0651  0.3638  0.6580
18571TIP3    H177128   1.581   6.044   5.114  0.0605 -0.8676  0.2395
18571TIP3    H277129   1.560   6.081   4.969  0.1405  0.8102  0.6451
18572TIP3   OH277130   0.978   3.331  16.054  0.0071 -0.1766 -0.1616
18572TIP3    H177131   0.890   3.328  16.089 -0.1509 -1.3167 -0.6449
18572TIP3    H277132   0.966   3.354  15.962  0.1970 -0.5773 -0.2871
18573TIP3   OH277133   0.558   1.661   3.748  0.4265  0.1307 -0.0101
18573TIP3    H177134   0.539   1.593   3.813  0.3902  0.9460  0.8429
18573TIP3    H277135   0.490   1.727   3.762  0.0343  0.0225 -1.3095
18574TIP3   OH277136   5.548   6.678  11.510 -0.5322 -0.1907 -0.2150
18574TIP3    H177137   5.498   6.637  11.440 -1.7526  1.7193 -0.4898
18574TIP3    H277138   5.482   6.719  11.566  0.6164  1.1881  0.1636
18575TIP3   OH277139   0.689   3.597  12.543  0.0464 -0.1539  0.0803
18575TIP3    H177140   0.645   3.535  12.602 -2.9534  1.7178 -0.0711
18575TIP3    H277141   0.707   3.673  12.598  0.0750  0.3869 -0.6751
18576TIP3   OH277142   3.186   5.307  17.089  0.1619  0.3811 -0.0643
18576TIP3    H177143   3.118   5.328  17.026  0.7572  2.3108 -0.1104
18576TIP3    H277144   3.139   5.284  17.169 -0.5952  3.2604  0.3937
18577TIP3   OH277145   5.518   2.308   3.539  0.0238 -0.0993 -0.1050
18577TIP3    H177146   5.528   2.298   3.634 -1.8053 -1.0488  0.0157
18577TIP3    H277147   5.497   2.401   3.527  3.0801  0.6581  0.1316
18578TIP3   OH277148   3.289   4.821   5.595 -0.3316 -0.1226  0.3512
18578TIP3    H177149   3.300   4.875   5.517 -0.8868 -0.1723  0.2387
18578TIP3    H277150   3.341   4.742   5.577  2.9948  1.6165  1.7488
18579TIP3   OH277151   0.479   1.829   2.105 -0.1060  0.1483 -0.0757
18579TIP3    H177152   0.528   1.770   2.047  1.8336  2.3490 -0.7525
18579TIP3    H277153   0.535   1.839   2.182 -1.1396 -0.0938  0.7254
18580TIP3   OH277154   1.418   3.160  14.406 -0.1105  0.0274  0.7846
18580TIP3    H177155   1.430   3.254  14.423 -2.6282  0.2180  1.7591
18580TIP3    H277156   1.391   3.124  14.491 -0.6445 -1.3144  0.0572
18581TIP3   OH277157   3.955   4.726  14.428 -0.3153  0.0560 -0.1133
18581TIP3    H177158   3.991   4.684  14.350  0.0008 -0.8386  0.5100
18581TIP3    H277159   4.029   4.775  14.465 -0.0329 -0.8631  0.5403
18582TIP3   OH277160   1.587   0.032  16.520 -0.2350 -0.5019  0.8598
18582TIP3    H177161   1.534   0.106  16.492  1.3817 -0.7335 -3.1366
18582TIP3    H277162   1.656   0.071  16.575  0.6700  1.0513 -1.2919
18583TIP3   OH277163   1.771   1.365  13.013 -0.0086 -0.3251 -0.3744
18583TIP3    H177164   1.692   1.417  13.005 -0.9452 -1.7357 -0.4621
18583TIP3    H277165   1.838   1.427  13.042 -1.2851  0.7536  0.3086
18584TIP3   OH277166   3.372   2.921   4.483 -0.3530  0.5045  0.4082
18584TIP3    H177167   3.412   2.862   4.546  1.5816  0.8311 -0.4972
18584TIP3    H277168   3.442   2.943   4.422 -2.2015  0.0876 -1.9621
18585TIP3   OH277169   5.887   2.738  15.550 -0.1135  0.4812  0.3270
18585TIP3    H177170   5.876   2.763  15.458  0.5908 -1.5929 -0.3375
18585TIP3    H277171   5.981   2.746  15.565 -0.1519  0.2287  0.6968
18586TIP3   OH277172   0.255   3.437  16.040 -0.4115  0.1798  0.4036
18586TIP3    H177173   0.255   3.343  16.058 -1.6390  0.3267  1.2261
18586TIP3    H277174   0.347   3.458  16.025 -0.0580 -1.0553  0.7703
18587TIP3   OH277175   3.160   0.300  14.315 -0.8941 -0.4831 -0.5149
18587TIP3    H177176   3.246   0.273  14.283 -0.9901  0.0021 -1.1674
18587TIP3    H277177   3.134   0.372  14.259 -0.7193  0.8918  1.1406
18588TIP3   OH277178   4.326   6.367  11.011  0.4180 -0.2325  0.7236
18588TIP3    H177179   4.281   6.337  11.089 -0.2985  1.7963  1.1290
18588TIP3    H277180   4.372   6.290  10.978  0.1839 -1.2673  2.7556
18589TIP3   OH277181   3.714   2.019   6.025 -0.2378  0.4890  0.2944
18589TIP3    H177182   3.776   2.092   6.024 -1.0454  1.1757 -0.3937
18589TIP3    H277183   3.629   2.059   6.043 -0.7989 -0.1726 -0.8064
18590TIP3   OH277184   4.861   1.403   0.384 -0.0664 -0.0291 -0.2975
18590TIP3    H177185   4.789   1.342   0.368 -0.3277  0.1713  0.1171
18590TIP3    H277186   4.908   1.407   0.301  0.4898 -1.5129 -0.0698
18591TIP3   OH277187   4.805   2.229   4.642  0.0511  0.1626 -0.1176
18591TIP3    H177188   4.756   2.147   4.652  0.6256 -0.2410 -0.5255
18591TIP3    H277189   4.744   2.297   4.670 -0.8053 -0.3161 -0.7793
18592TIP3   OH277190   3.893   3.963  12.395  0.2620 -0.5432 -0.4928
18592TIP3    H177191   3.895   3.909  12.316  1.5336  1.4220 -1.8466
18592TIP3    H277192   3.800   3.981  12.408  0.0350 -0.8370 -1.5697
18593TIP3   OH277193   2.124   2.474  16.433 -0.3675  0.3494 -0.1462
18593TIP3    H177194   2.143   2.535  16.361  1.0997  0.2911  0.1660
18593TIP3    H277195   2.211   2.448  16.465 -0.9679 -1.6429 -0.0483
18594TIP3   OH277196   1.912   3.802  11.057 -0.1135  0.1279 -0.0435
18594TIP3    H177197   1.874   3.758  10.981  1.2355  0.6358 -1.0336
18594TIP3    H277198   1.845   3.865  11.084 -0.8844 -0.5446 -0.3797
18595TIP3   OH277199   0.186   1.839  16.375  0.1491  0.2867 -0.3707
18595TIP3    H177200   0.269   1.812  16.414 -0.1048 -3.7575 -2.3303
18595TIP3    H277201   0.125   1.841  16.449  1.3006  0.2060  0.6005
18596TIP3   OH277202   5.037   1.983  11.166 -0.2489  0.1881  0.1940
18596TIP3    H177203   5.039   1.992  11.070  1.2368 -1.1315  0.0921
18596TIP3    H277204   5.100   1.913  11.185 -0.8592  0.1413  2.1065
18597TIP3   OH277205   1.354   5.566   2.643  0.6999 -0.1734 -0.2580
18597TIP3    H177206   1.438   5.526   2.620  1.2652  0.7940  0.0517
18597TIP3    H277207   1.379   5.648   2.687 -0.4080  0.0793 -0.0982
18598TIP3   OH277208   4.720   4.362   4.809  0.0888 -0.7516 -0.0014
18598TIP3    H177209   4.756   4.341   4.895  2.7943  0.1412 -0.8449
18598TIP3    H277210   4.771   4.438   4.780  0.3230 -2.0082 -3.0651
18599TIP3   OH277211   6.548   0.685  17.209 -0.4641 -0.7824  0.3393
18599TIP3    H177212   6.582   0.771  17.186  1.4036 -0.5679  3.5831
18599TIP3    H277213   6.580   0.627  17.140  2.0909  0.3728  0.5009
18600TIP3   OH277214   5.503   1.179  16.065  0.2019 -0.1982 -0.0971
18600TIP3    H177215   5.434   1.114  16.054 -0.5466  0.3001  1.5316
18600TIP3    H277216   5.583   1.128  16.072 -0.5276 -1.0451  2.5381
18601TIP3   OH277217   2.034   4.535   5.344  0.0850  0.6598  0.5364
18601TIP3    H177218   2.056   4.612   5.397  0.8918  1.0429 -0.3284
18601TIP3    H277219   1.945   4.512   5.371  1.2246 -0.4691  3.6014
18602TIP3   OH277220   1.578   0.883  16.545 -0.1636  0.0793  0.3600
18602TIP3    H177221   1.643   0.922  16.604 -0.3127  1.1166 -0.1432
18602TIP3    H277222   1.561   0.951  16.480  1.4711 -1.7530 -2.0765
18603TIP3   OH277223   0.330   2.863  11.133 -0.1046  0.0301  0.1985
18603TIP3    H177224   0.329   2.785  11.077 -0.4371  0.7882 -0.8725
18603TIP3    H277225   0.317   2.936  11.072  1.3273  1.0163  1.0563
18604TIP3   OH277226   2.530   5.905   2.496  0.2602 -0.4362  0.3215
18604TIP3    H177227   2.476   5.934   2.570  1.7974  0.6616  1.0252
18604TIP3    H277228   2.467   5.865   2.436 -1.1210 -0.6745  1.8708
18605TIP3   OH277229   6.610   4.112  10.718 -0.7129  0.1551 -0.6058
18605TIP3    H177230   6.666   4.037  10.696 -1.2398 -0.0161 -1.3864
18605TIP3    H277231   6.545   4.076  10.778 -0.4477  0.1855 -0.2977
18606TIP3   OH277232   4.867   5.066   0.840 -0.1316 -0.3514  0.7454
18606TIP3    H177233   4.880   5.011   0.918 -0.3092 -0.3021  0.8121
18606TIP3    H277234   4.777   5.046   0.813 -0.6094  0.7701  1.4556
18607TIP3   OH277235   6.388   2.619  16.684  0.6512 -0.4978 -0.2105
18607TIP3    H177236   6.315   2.675  16.712 -0.0584 -0.8341 -1.3742
18607TIP3    H277237   6.441   2.676  16.628  0.9248 -0.4530  0.0915
18608TIP3   OH277238   4.608   4.548  13.691  0.2061  0.0811 -0.6090
18608TIP3    H177239   4.557   4.626  13.713 -0.1798 -0.7174  1.3806
18608TIP3    H277240   4.699   4.574  13.704  0.0685  0.1368  0.2551
18609TIP3   OH277241   3.203   6.153   4.037  0.0223  0.3776  0.0656
18609TIP3    H177242   3.166   6.100   3.967 -0.0678 -0.2584  0.5905
18609TIP3    H277243   3.241   6.090   4.098  1.3173  0.9921 -0.0882
18610TIP3   OH277244   0.891   4.955  16.034 -0.3876  0.5890 -0.2947
18610TIP3    H177245   0.881   4.923  15.944  0.0403  1.0946 -0.5173
18610TIP3    H277246   0.969   4.910  16.067 -0.6896  0.2099 -0.0897
18611TIP3   OH277247   1.896   0.385  13.249  0.0750 -0.0400  0.0261
18611TIP3    H177248   1.875   0.478  13.242  0.0141 -0.0736 -0.2261
18611TIP3    H277249   1.918   0.358  13.160 -0.3437 -0.3744  0.0232
18612TIP3   OH277250   5.657   0.314  11.251  0.1301  0.4708 -0.2160
18612TIP3    H177251   5.607   0.349  11.325 -1.5076  0.6728 -1.3793
18612TIP3    H277252   5.669   0.221  11.272 -0.3883  0.5127  0.2886
18613TIP3   OH277253   3.949   5.728  13.522 -0.1886 -0.3207 -0.1647
18613TIP3    H177254   3.866   5.742  13.568  0.3416 -1.4083  1.1378
18613TIP3    H277255   3.926   5.733  13.429 -1.6752 -0.4022  0.1934
18614TIP3   OH277256   2.220   3.246   4.534 -0.2200 -0.1209  0.3293
18614TIP3    H177257   2.189   3.239   4.444 -1.2885 -1.7250  0.7856
18614TIP3    H277258   2.189   3.332   4.564 -2.7191 -0.9069  0.1634
18615TIP3   OH277259   0.513   4.888  11.258  0.4448  0.4158  0.9144
18615TIP3    H177260   0.547   4.864  11.344 -0.0482 -0.0692  0.9767
18615TIP3    H277261   0.573   4.847  11.195  0.0512 -0.3246  1.0218
18616TIP3   OH277262   6.091   3.113  15.903  0.1799  0.0296 -0.0692
18616TIP3    H177263   6.038   3.191  15.889  2.0387  0.7088 -3.7938
18616TIP3    H277264   6.182   3.145  15.904  0.9274 -1.9713 -0.8442
18617TIP3   OH277265   0.642   0.382  15.910  0.4389 -0.0431 -0.1356
18617TIP3    H177266   0.570   0.323  15.934 -0.5986  0.1935 -2.5776
18617TIP3    H277267   0.717   0.324  15.897 -0.2072 -0.6896 -1.0713
18618TIP3   OH277268   2.249   2.695   6.117 -0.0572  0.0896  0.1770
18618TIP3    H177269   2.217   2.773   6.163  1.6773  1.4156 -0.7992
18618TIP3    H277270   2.169   2.650   6.088 -1.0923  1.1914  1.2612
18619TIP3   OH277271   6.430   5.310   0.789 -0.0297 -0.0919 -0.0450
18619TIP3    H177272   6.451   5.303   0.696 -2.6541  0.7894 -0.7381
18619TIP3    H277273   6.398   5.400   0.800  0.3962 -0.1437  1.7340
18620TIP3   OH277274   1.606   6.237   2.247  0.0130 -0.0677 -0.0962
18620TIP3    H177275   1.620   6.291   2.168  2.2745  0.8165  0.8665
18620TIP3    H277276   1.616   6.147   2.217  0.3306  0.2392 -0.9211
18621TIP3   OH277277   6.313   1.687  11.873  0.2466 -0.3851 -0.1416
18621TIP3    H177278   6.231   1.671  11.827  0.0699 -0.3281  0.1499
18621TIP3    H277279   6.287   1.736  11.952  0.5214 -0.6454  0.1133
18622TIP3   OH277280   4.198   6.632  15.478  0.3115 -0.1614 -0.0248
18622TIP3    H177281   4.195   6.713  15.427  1.9251 -1.2715 -1.9698
18622TIP3    H277282   4.291   6.614  15.488 -0.0010 -2.9800 -1.6389
18623TIP3   OH277283   4.976   5.772   2.935 -0.0789 -0.6749  0.2060
18623TIP3    H177284   4.899   5.716   2.942 -0.9403  0.4981  0.1682
18623TIP3    H277285   5.011   5.776   3.025 -0.9808  0.0878  0.5260
18624TIP3   OH277286   0.681   6.185  11.704 -0.2770  0.3120  0.4470
18624TIP3    H177287   0.588   6.182  11.722 -0.7609  1.7791 -1.5521
18624TIP3    H277288   0.716   6.249  11.766 -0.5261 -0.5067  1.4359
18625TIP3   OH277289   6.198   6.187  15.937 -0.1500  0.0983 -0.5513
18625TIP3    H177290   6.137   6.260  15.925 -1.9138 -1.7239 -3.2265
18625TIP3    H277291   6.270   6.205  15.876 -0.5174 -0.2902 -1.1098
18626TIP3   OH277292   1.874   3.728   0.702  0.1869  0.1339  0.2644
18626TIP3    H177293   1.792   3.679   0.697 -0.0320  0.4246  0.9876
18626TIP3    H277294   1.942   3.662   0.712 -0.2179  0.0358  2.5183
18627TIP3   OH277295   4.184   0.605   5.479  0.8568 -0.0822  0.4018
18627TIP3    H177296   4.258   0.569   5.429  1.1358  0.3380  0.5121
18627TIP3    H277297   4.193   0.700   5.469  0.6005 -0.0185  0.8066
18628TIP3   OH277298   4.978   2.259  11.264 -0.3513 -0.1644 -0.2782
18628TIP3    H177299   4.997   2.227  11.352  1.1466  1.7773  0.1644
18628TIP3    H277300   4.964   2.180  11.212 -0.3055 -1.3770  1.4973
18629TIP3   OH277301   6.638   1.059   1.150  0.1407 -1.2248  0.1253
18629TIP3    H177302   6.725   1.071   1.187 -0.8043 -0.9952  2.3639
18629TIP3    H277303   6.581   1.049   1.227 -1.7162 -1.9130 -1.3154
18630TIP3   OH277304   6.495   6.228  16.887 -0.3333  0.1214  0.7584
18630TIP3    H177305   6.424   6.254  16.829  1.6173  1.9653 -0.8641
18630TIP3    H277306   6.525   6.144  16.852  0.2525  0.8017 -0.4056
18631TIP3   OH277307   1.715   2.217   5.915  0.0172 -0.0808  0.1697
18631TIP3    H177308   1.668   2.140   5.948 -0.0754 -0.4255 -0.7593
18631TIP3    H277309   1.700   2.216   5.820 -2.6805  2.9155  0.4753
18632TIP3   OH277310   0.204   6.448  11.132 -0.2141  0.1092 -0.2360
18632TIP3    H177311   0.291   6.441  11.171  0.1942  0.6481 -1.0502
18632TIP3    H277312   0.189   6.542  11.122 -0.8024  0.0109 -0.3054
18633TIP3   OH277313   0.909   5.012  15.589 -0.4017  0.1601  0.3333
18633TIP3    H177314   0.909   5.107  15.600 -2.4988  0.1865  0.3122
18633TIP3    H277315   0.872   4.998  15.501  0.4242 -0.6673  0.1038
18634TIP3   OH277316   4.171   3.054   2.839  0.1144 -0.1632 -0.2313
18634TIP3    H177317   4.206   2.981   2.890 -0.7587 -0.2382  0.2559
18634TIP3    H277318   4.078   3.037   2.832 -0.1457  1.0624  0.1319
18635TIP3   OH277319   6.392   3.814  15.000  0.0840  0.5454 -0.3613
18635TIP3    H177320   6.457   3.842  15.064  1.1819 -1.4089 -0.5674
18635TIP3    H277321   6.312   3.802  15.051  0.5328  0.5663  0.3568
18636TIP3   OH277322   4.172   1.532   4.419  0.1172 -0.5289  0.3239
18636TIP3    H177323   4.219   1.480   4.354 -1.9113  0.3346 -1.9229
18636TIP3    H277324   4.200   1.623   4.402 -1.1093 -0.1982  0.0706
18637TIP3   OH277325   3.382   3.001  13.334  0.5569 -0.7422  0.2002
18637TIP3    H177326   3.433   3.011  13.254  0.7736 -0.2795  0.3941
18637TIP3    H277327   3.423   2.928  13.380  0.4686 -0.9686 -0.0833
18638TIP3   OH277328   4.233   4.336  14.505  0.0197  0.1920 -0.0962
18638TIP3    H177329   4.214   4.353  14.413 -1.3312 -0.7070  0.0043
18638TIP3    H277330   4.148   4.340  14.548  0.2989 -1.8607  0.6924
18639TIP3   OH277331   3.238   4.111   2.876  0.1681  0.0685 -0.2263
18639TIP3    H177332   3.212   4.186   2.928 -1.1792  1.3665 -2.6780
18639TIP3    H277333   3.157   4.061   2.864  0.1929  0.4051 -1.9875
18640TIP3   OH277334   6.582   0.570  12.861 -0.3447 -0.5508  0.3394
18640TIP3    H177335   6.502   0.609  12.895 -0.2713  0.6406 -0.8175
18640TIP3    H277336   6.553   0.492  12.814 -0.8899  0.1397 -0.4845
18641TIP3   OH277337   5.716   4.903   0.000  0.1905 -0.2759  0.3282
18641TIP3    H177338   5.758   4.973   0.051 -0.7530 -0.6887  1.7116
18641TIP3    H277339   5.716   4.827   0.060 -0.7684 -0.8271 -0.3617
18642TIP3   OH277340   6.555   4.081  12.959  0.3221 -0.3503 -0.0910
18642TIP3    H177341   6.552   4.159  12.903  0.2462  0.0072  0.4035
18642TIP3    H277342   6.535   4.114  13.046  0.5067 -0.8938  0.1580
18643TIP3   OH277343   5.576   0.416   5.422  0.4357  0.2881 -0.0910
18643TIP3    H177344   5.593   0.323   5.407  1.5740  0.5029 -0.1440
18643TIP3    H277345   5.648   0.446   5.477 -0.5774  0.8725  0.9378
18644TIP3   OH277346   4.827   6.732   2.485 -0.8075  0.1789 -0.4616
18644TIP3    H177347   4.895   6.795   2.509 -0.0437  0.4389 -3.1128
18644TIP3    H277348   4.875   6.662   2.441 -1.9126 -1.1791  0.4961
18645TIP3   OH277349   4.157   6.550   3.766 -1.0093 -0.3333 -0.3666
18645TIP3    H177350   4.243   6.540   3.725 -0.7003 -1.9266  0.6228
18645TIP3    H277351   4.175   6.546   3.860 -2.0336  0.5148 -0.1204
18646TIP3   OH277352   2.009   1.492   5.808 -0.2707 -0.3195 -0.3798
18646TIP3    H177353   2.071   1.436   5.855  0.1677 -0.7487 -1.4590
18646TIP3    H277354   2.030   1.581   5.837  1.2133 -0.4034 -1.1541
18647TIP3   OH277355   4.651   0.763   5.960  0.2980  0.2293 -0.5167
18647TIP3    H177356   4.668   0.669   5.959 -0.6989  0.0385 -0.6191
18647TIP3    H277357   4.651   0.787   6.052 -0.4716 -0.0743 -0.4347
18648TIP3   OH277358   6.236   1.782   6.298  0.2399  0.3387  0.3597
18648TIP3    H177359   6.330   1.780   6.315  0.4200  1.0092 -0.5169
18648TIP3    H277360   6.207   1.865   6.335 -0.0612 -0.0162  0.9130
18649TIP3   OH277361   5.483   4.884  16.378 -0.0777 -0.2278 -0.3361
18649TIP3    H177362   5.529   4.963  16.407  1.1043 -0.8712 -0.4114
18649TIP3    H277363   5.440   4.910  16.296  0.0979  0.4051 -0.2330
18650TIP3   OH277364   1.408   5.963  15.904  0.4555  0.0092  0.3838
18650TIP3    H177365   1.399   5.870  15.887  0.2444  0.2430 -0.7924
18650TIP3    H277366   1.321   5.999  15.888  0.4635  0.3651  1.1223
18651TIP3   OH277367   5.259   1.201   4.356  0.3589 -0.5624  0.2846
18651TIP3    H177368   5.269   1.241   4.443  0.3564  3.1213 -1.3060
18651TIP3    H277369   5.329   1.136   4.351 -0.1448 -1.3939  3.3264
18652TIP3   OH277370   2.999   1.904  14.576  0.0898 -0.4736  0.6083
18652TIP3    H177371   3.022   1.902  14.483  0.4932 -0.4278  0.7040
18652TIP3    H277372   3.081   1.928  14.620 -0.0502 -0.7027  0.9928
18653TIP3   OH277373   3.531   6.749   5.005 -0.0765  0.0893  0.1324
18653TIP3    H177374   3.578   6.721   5.084  0.1271 -0.3715 -0.1533
18653TIP3    H277375   3.588   6.816   4.966 -0.2095  0.3662  0.4124
18654TIP3   OH277376   5.088   2.865  15.737 -1.0892  0.9843  0.1484
18654TIP3    H177377   5.157   2.929  15.757 -0.1994  0.0589  0.0866
18654TIP3    H277378   5.070   2.876  15.644 -0.2836  0.5256 -0.0669
18655TIP3   OH277379   0.367   0.120  16.388  0.9823 -0.3219  0.5343
18655TIP3    H177380   0.458   0.093  16.401  1.3709  1.2427  1.2100
18655TIP3    H277381   0.365   0.212  16.416 -0.5262  0.0395 -0.6885
18656TIP3   OH277382   6.490   1.190  12.346 -0.2762 -0.2209  0.5944
18656TIP3    H177383   6.465   1.282  12.336  0.5432 -0.0868 -0.2935
18656TIP3    H277384   6.565   1.191  12.404  0.5555 -0.2075 -0.4736
18657TIP3   OH277385   1.586   5.636   1.902 -0.0602  0.0358  0.5902
18657TIP3    H177386   1.619   5.712   1.855  1.6934 -1.0860 -0.0168
18657TIP3    H277387   1.648   5.623   1.973 -0.5463 -0.6383  0.9022
18658TIP3   OH277388   0.119   2.472  15.754 -0.0837 -0.4307 -0.4977
18658TIP3    H177389   0.155   2.431  15.676  1.5523 -0.6199  0.3492
18658TIP3    H277390   0.179   2.449  15.824 -1.5627 -0.3044  0.8485
18659TIP3   OH277391   1.775   0.150  11.817  0.6418 -0.7809 -0.5158
18659TIP3    H177392   1.855   0.101  11.797  0.5351  0.0552 -3.0751
18659TIP3    H277393   1.704   0.095  11.785  0.2475 -0.9897  0.6981
18660TIP3   OH277394   4.759   4.604   4.681 -0.2871 -0.2522  0.0140
18660TIP3    H177395   4.763   4.663   4.756 -1.6549 -0.9723  0.6843
18660TIP3    H277396   4.672   4.618   4.643 -1.0310 -2.4544  0.7659
18661TIP3   OH277397   1.031   1.631   6.390  0.8683  0.0387 -0.2153
18661TIP3    H177398   1.081   1.617   6.310  0.4723  1.4078 -0.7224
18661TIP3    H277399   0.944   1.656   6.360 -0.7959 -4.2882  0.6387
18662TIP3   OH277400   5.336   0.672   0.725 -0.9330 -0.5170  0.6878
18662TIP3    H177401   5.286   0.651   0.647 -0.2855  2.2871 -0.5530
18662TIP3    H277402   5.277   0.652   0.798 -1.3524 -3.6541 -0.4381
18663TIP3   OH277403   2.380   2.650   2.028 -0.1490  0.1786 -0.4461
18663TIP3    H177404   2.463   2.609   2.050  1.2023  2.7901 -0.4585
18663TIP3    H277405   2.350   2.604   1.949  0.2399 -2.1213  0.6984
18664TIP3   OH277406   1.536   3.076  15.518 -0.5168 -0.3979 -0.3642
18664TIP3    H177407   1.621   3.051  15.553 -1.5126 -1.7207  1.1275
18664TIP3    H277408   1.506   2.999  15.470 -1.0753 -0.0910 -0.5099
18665TIP3   OH277409   6.272   6.500  14.820  0.1703 -0.1510 -0.4293
18665TIP3    H177410   6.206   6.559  14.784 -0.6889 -0.0375  1.2833
18665TIP3    H277411   6.340   6.558  14.853 -0.2612 -0.1386  0.4556
18666TIP3   OH277412   2.660   3.334  11.611  0.0598  0.2545  0.2420
18666TIP3    H177413   2.567   3.309  11.607 -0.0521  0.8962 -1.7349
18666TIP3    H277414   2.683   3.352  11.520  2.0563  0.3975  0.7704
18667TIP3   OH277415   6.351   1.803   3.898 -0.2552 -0.2069  0.3713
18667TIP3    H177416   6.300   1.726   3.922  1.0455 -1.0999  0.2996
18667TIP3    H277417   6.394   1.779   3.816 -0.1015  0.7139  0.1759
18668TIP3   OH277418   1.246   0.762  12.096 -0.2099  0.4187  0.5334
18668TIP3    H177419   1.280   0.725  12.014 -1.0799 -0.5606  0.5947
18668TIP3    H277420   1.194   0.838  12.068  0.1492  0.5591  0.2475
18669TIP3   OH277421   3.955   1.061   3.179  0.2096 -0.0483  0.2281
18669TIP3    H177422   4.037   1.106   3.160  0.2699  0.3509  1.3806
18669TIP3    H277423   3.981   0.985   3.232 -0.0824 -0.3388 -0.0496
18670TIP3   OH277424   2.463   6.209   2.041  0.1232 -0.3353  0.0614
18670TIP3    H177425   2.475   6.189   2.133  0.2869 -1.5479 -0.2074
18670TIP3    H277426   2.369   6.200   2.026 -0.1022  1.3095  0.4236
18671TIP3   OH277427   1.355   2.491   1.710  0.1489 -0.2636 -0.7888
18671TIP3    H177428   1.305   2.567   1.739  0.9250  0.8876 -2.4600
18671TIP3    H277429   1.307   2.457   1.635  1.4653  0.4518 -1.9893
18672TIP3   OH277430   3.854   0.816   0.184  0.0704  0.3544  0.2146
18672TIP3    H177431   3.836   0.906   0.210 -2.3925 -0.3673  1.1475
18672TIP3    H277432   3.917   0.824   0.112 -1.4195  2.9111 -0.8763
18673TIP3   OH277433   2.220   6.503  15.215  0.2668  0.4685 -0.0250
18673TIP3    H177434   2.153   6.445  15.251  0.5136  0.4048  0.3376
18673TIP3    H277435   2.177   6.548  15.143  0.3030 -0.7279 -0.7999
18674TIP3   OH277436   0.769   2.551  13.816 -0.1682 -0.0859  1.0072
18674TIP3    H177437   0.801   2.639  13.833  0.9026 -0.0963 -0.8293
18674TIP3    H277438   0.824   2.518  13.744 -1.8185 -1.5158  0.3462
18675TIP3   OH277439   1.693   2.999   5.395 -0.7425  0.4595 -0.1863
18675TIP3    H177440   1.779   3.033   5.372 -0.3831 -0.5631 -0.3784
18675TIP3    H277441   1.636   3.025   5.322 -0.2847 -0.0898 -0.7423
18676TIP3   OH277442   2.847   2.652  16.125 -0.9309  0.0663 -0.3532
18676TIP3    H177443   2.787   2.577  16.131 -0.0453 -0.6292 -0.0605
18676TIP3    H277444   2.790   2.729  16.132 -1.8076 -0.5811 -0.2640
18677TIP3   OH277445   5.457   2.369  13.526 -0.3094  0.5929 -0.6897
18677TIP3    H177446   5.507   2.294  13.559 -0.6268  0.0198 -1.4911
18677TIP3    H277447   5.468   2.436  13.593  0.3971  0.0023 -0.1994
18678TIP3   OH277448   3.201   2.017  17.059 -0.6990  0.2566 -0.4365
18678TIP3    H177449   3.203   1.921  17.060 -1.0534  0.2471 -0.7610
18678TIP3    H277450   3.230   2.042  17.147 -1.5669 -0.1670 -0.0247
18679TIP3   OH277451   6.268   0.864  15.287 -0.6242  0.4338 -0.5878
18679TIP3    H177452   6.264   0.770  15.270 -1.0345  0.0761  1.4554
18679TIP3    H277453   6.199   0.900  15.231  0.3376 -0.3138 -2.2977
18680TIP3   OH277454   5.397   6.599  11.277 -0.0916  0.6966  0.0043
18680TIP3    H177455   5.323   6.565  11.227 -1.0969  0.1134  1.8314
18680TIP3    H277456   5.387   6.694  11.275  0.3525  0.7214 -1.5770
18681TIP3   OH277457   1.621   4.828  16.621  0.0787  0.0532 -0.5337
18681TIP3    H177458   1.606   4.734  16.630 -2.1540  0.6465  2.9007
18681TIP3    H277459   1.551   4.858  16.563 -0.5823 -0.0737  0.1939
18682TIP3   OH277460   5.538   1.099   0.184  0.1758  0.4902  0.0750
18682TIP3    H177461   5.548   1.139   0.270  0.0729  0.8145 -0.0625
18682TIP3    H277462   5.444   1.100   0.168  0.2137  0.6250 -0.1339
18683TIP3   OH277463   3.433   3.633   1.603 -0.2663 -0.3328 -0.1403
18683TIP3    H177464   3.375   3.693   1.556  1.2808  1.0201 -0.3589
18683TIP3    H277465   3.488   3.690   1.656  1.0946 -1.5817 -0.1791
18684TIP3   OH277466   6.268   2.892   0.098  0.4232  0.3550  0.1121
18684TIP3    H177467   6.181   2.925   0.075  0.6720  1.5511  0.8220
18684TIP3    H277468   6.329   2.949   0.049  0.8615  1.0480  1.4322
18685TIP3   OH277469   0.263   3.901  14.571 -0.1630 -0.0265  0.3110
18685TIP3    H177470   0.247   3.987  14.610 -1.2481 -0.3940  0.7064
18685TIP3    H277471   0.211   3.901  14.490  1.8903  0.6447 -1.0660
18686TIP3   OH277472   5.320   1.259   3.887  0.1838  0.5825 -0.3500
18686TIP3    H177473   5.280   1.309   3.816  2.6114  1.1484 -1.3624
18686TIP3    H277474   5.372   1.192   3.843 -1.3760 -1.5687  0.9761
18687TIP3   OH277475   0.538   5.220  11.369  0.3421  0.3178  0.5665
18687TIP3    H177476   0.609   5.200  11.309  1.0868  2.0673  0.8353
18687TIP3    H277477   0.460   5.186  11.325  1.4452 -2.7053  0.8278
18688TIP3   OH277478   5.558   4.512  13.648 -0.2601 -0.3933 -0.4832
18688TIP3    H177479   5.534   4.605  13.642  0.9019 -0.1658 -1.8501
18688TIP3    H277480   5.482   4.465  13.614  0.1186  0.1831 -2.1587
18689TIP3   OH277481   5.422   2.873  16.769  0.4421 -0.6852  0.7822
18689TIP3    H177482   5.380   2.801  16.816  0.0929 -0.3741  0.9436
18689TIP3    H277483   5.372   2.882  16.688  0.2122 -0.3342  0.9599
18690TIP3   OH277484   3.606   2.772  11.388 -0.0173  0.6206  0.3383
18690TIP3    H177485   3.619   2.768  11.483 -0.0075  1.0482  0.3586
18690TIP3    H277486   3.529   2.719  11.371  0.8042 -0.6199  0.4198
18691TIP3   OH277487   6.382   6.543   4.750 -0.1172 -0.2260 -0.3066
18691TIP3    H177488   6.321   6.499   4.809 -1.6670  1.8715 -0.2677
18691TIP3    H277489   6.408   6.477   4.687 -1.0321 -1.6267  0.7634
18692TIP3   OH277490   4.496   5.137   1.225  0.8646 -0.6172  0.1000
18692TIP3    H177491   4.408   5.102   1.212  1.1658 -0.5179 -2.3535
18692TIP3    H277492   4.483   5.211   1.284 -0.5005 -1.4290  0.8565
18693TIP3   OH277493   3.163   4.443  15.459 -0.9993 -0.8173 -0.4231
18693TIP3    H177494   3.122   4.529  15.453  1.3631  0.2245 -2.1736
18693TIP3    H277495   3.214   4.446  15.540  1.5778  0.5878 -2.0533
18694TIP3   OH277496   2.066   3.648   2.208 -0.4272  0.3252 -0.1141
18694TIP3    H177497   2.139   3.587   2.197 -1.2539 -0.5552 -0.8086
18694TIP3    H277498   2.105   3.734   2.197  0.7609 -0.0700  0.8765
18695TIP3   OH277499   1.054   6.617  14.631  0.1309 -0.5249 -0.2061
18695TIP3    H177500   1.042   6.711  14.617  0.5072 -0.0408  2.3646
18695TIP3    H277501   0.965   6.583  14.640  0.0520  0.0556  1.4208
18696TIP3   OH277502   4.538   0.922   4.270  0.1011 -0.6942 -0.1279
18696TIP3    H177503   4.624   0.906   4.232  1.4047 -2.7932  3.4555
18696TIP3    H277504   4.556   0.955   4.357 -2.7734  1.4941 -0.2943
18697TIP3   OH277505   0.134   3.137  11.177  0.0579 -0.6797 -0.2301
18697TIP3    H177506   0.055   3.116  11.127 -0.1426  0.4314 -0.3851
18697TIP3    H277507   0.135   3.232  11.181  1.5442 -0.6847 -0.4578
18698TIP3   OH277508   4.911   1.191   6.050 -0.5216  0.0356 -0.2817
18698TIP3    H177509   4.845   1.135   6.008  0.1473 -2.0798  1.4181
18698TIP3    H277510   4.994   1.162   6.013 -0.3346  1.1009 -0.6921
18699TIP3   OH277511   6.693   0.383   0.499 -0.4409 -0.2957 -0.0551
18699TIP3    H177512   6.683   0.292   0.471  1.2118 -0.3509 -0.5534
18699TIP3    H277513   6.755   0.421   0.436 -0.3291  0.8880  0.7419
18700TIP3   OH277514   6.515   3.251  12.079  0.1309 -0.1638 -0.9286
18700TIP3    H177515   6.531   3.162  12.110  1.7521  0.8150  1.1658
18700TIP3    H277516   6.600   3.281  12.048 -0.3844  0.7220 -1.5087
18701TIP3   OH277517   1.351   2.679  16.412  0.5895 -0.7470 -0.5939
18701TIP3    H177518   1.445   2.697  16.401  0.1411  1.2367 -1.4642
18701TIP3    H277519   1.321   2.655  16.325  0.4071 -2.0669 -0.1763
18702TIP3   OH277520   5.930   1.668  12.750  0.3279 -0.2460  0.8900
18702TIP3    H177521   6.014   1.712  12.735 -0.6107  1.1249 -0.5422
18702TIP3    H277522   5.908   1.689  12.841  1.1029  0.1255  1.0003
18703TIP3   OH277523   4.228   4.533  12.938  0.1350  0.4466 -0.3722
18703TIP3    H177524   4.233   4.437  12.943 -1.3259  0.2836 -1.6482
18703TIP3    H277525   4.278   4.555  12.859 -0.3352  0.6528 -0.6130
18704TIP3   OH277526   3.509   6.268  14.471  0.1629 -0.2698 -0.0892
18704TIP3    H177527   3.510   6.173  14.463 -0.4925 -0.3107  0.3066
18704TIP3    H277528   3.417   6.291  14.478  0.3337  0.3693  0.1433
18705TIP3   OH277529   3.344   6.520  14.098 -0.2164 -0.3801 -0.3746
18705TIP3    H177530   3.298   6.565  14.169  0.2903 -2.7180  1.5084
18705TIP3    H277531   3.295   6.542  14.019 -1.2440  1.6789  0.8061
18706TIP3   OH277532   1.653   0.010  13.680  0.0552  0.5177 -0.2950
18706TIP3    H177533   1.628   0.081  13.739  2.1898  1.3942 -0.4107
18706TIP3    H277534   1.693  -0.055  13.738 -3.2304 -1.3094  0.0307
18707TIP3   OH277535   5.571   5.458  15.735  0.0224  0.7684  0.2163
18707TIP3    H177536   5.510   5.488  15.803 -0.0855  2.3091 -0.5349
18707TIP3    H277537   5.601   5.539  15.693  1.0312 -0.1019 -0.7659
18708TIP3   OH277538   4.881   1.216  13.040 -0.1426 -0.9136 -0.0604
18708TIP3    H177539   4.856   1.269  13.116  2.5534 -1.3910  1.2562
18708TIP3    H277540   4.807   1.157  13.026 -1.5016  0.5054  0.9424
18709TIP3   OH277541   0.092   1.901  15.515 -0.0909  0.0189 -0.4535
18709TIP3    H177542   0.041   1.943  15.446  0.2743  0.6546 -0.3454
18709TIP3    H277543   0.113   1.814  15.480 -0.8642 -0.0865 -0.6732
18710TIP3   OH277544   4.018   0.828  13.802  0.5331 -0.0067 -0.5120
18710TIP3    H177545   4.101   0.873  13.809 -0.9753  2.6748  0.8357
18710TIP3    H277546   3.984   0.826  13.892 -0.0473 -2.6834 -0.7441
18711TIP3   OH277547   5.722   5.590  14.018  0.1695  0.4274  0.0428
18711TIP3    H177548   5.803   5.550  13.986 -0.5084 -0.4573 -0.6310
18711TIP3    H277549   5.750   5.655  14.082  1.3731 -0.3049  0.2767
18712TIP3   OH277550   4.845   5.250  13.802  0.1304  0.2969 -0.3471
18712TIP3    H177551   4.864   5.157  13.795  0.6065  0.3355  0.3850
18712TIP3    H277552   4.754   5.259  13.774  0.1047 -0.3750 -0.4721
18713TIP3   OH277553   1.467   5.231  15.257 -0.7484 -0.2425  0.2107
18713TIP3    H177554   1.487   5.321  15.284  3.6916 -0.7294 -0.9102
18713TIP3    H277555   1.445   5.186  15.338  2.6545  0.5836  1.6931
18714TIP3   OH277556   0.190   1.938   1.600 -0.2410  0.1489 -0.0285
18714TIP3    H177557   0.138   2.014   1.624 -0.0324  0.1614  0.4074
18714TIP3    H277558   0.281   1.966   1.610 -0.1632 -0.7488  2.1444
18715TIP3   OH277559   6.244   3.491   4.459 -0.5139 -0.8519 -0.3648
18715TIP3    H177560   6.265   3.562   4.519 -0.5481 -0.6787 -0.5567
18715TIP3    H277561   6.309   3.498   4.389 -1.2389 -0.2856 -0.9838
18716TIP3   OH277562   6.069   2.222  14.674  0.0098  0.1771  0.4261
18716TIP3    H177563   6.012   2.296  14.655 -1.8480 -1.8122 -2.2478
18716TIP3    H277564   6.127   2.216  14.597  1.7957  0.3059  1.7242
18717TIP3   OH277565   3.826   2.913   3.703 -0.0758 -0.3466  0.4156
18717TIP3    H177566   3.743   2.960   3.710 -0.3383 -1.0762  2.8152
18717TIP3    H277567   3.802   2.827   3.668  0.0957  0.4980 -1.8030
18718TIP3   OH277568   5.246   4.292   5.867  0.2247  0.5136  0.8224
18718TIP3    H177569   5.327   4.250   5.838 -0.2800 -0.1279  0.3329
18718TIP3    H277570   5.199   4.311   5.786 -0.1344  0.8486  1.1092
18719TIP3   OH277571   5.846   0.249   5.346  0.3096  0.4133 -0.0330
18719TIP3    H177572   5.766   0.202   5.368 -0.1831  0.3253 -1.9528
18719TIP3    H277573   5.916   0.196   5.383 -0.4494 -0.1371  0.6250
18720TIP3   OH277574   3.593   3.338  13.513  0.0788  0.1105 -0.5369
18720TIP3    H177575   3.642   3.417  13.538 -1.7403  1.5756 -1.5065
18720TIP3    H277576   3.501   3.363  13.524 -0.5431 -1.5343 -1.8746
18721TIP3   OH277577   5.401   5.484   6.016  0.5738  0.5496 -0.8138
18721TIP3    H177578   5.354   5.457   6.096  0.6926 -0.3239 -1.0288
18721TIP3    H277579   5.467   5.545   6.047 -0.7655  1.8768 -0.5089
18722TIP3   OH277580   0.967   1.086  12.399  0.1459  1.0690  0.3906
18722TIP3    H177581   0.932   1.068  12.311  0.2223  0.2720  0.5164
18722TIP3    H277582   0.890   1.086  12.456  0.0484  2.0055  0.2642
18723TIP3   OH277583   0.251   4.671   2.525  0.1540  0.4945 -0.2440
18723TIP3    H177584   0.185   4.717   2.474  0.1084  0.4456 -0.2279
18723TIP3    H277585   0.330   4.724   2.515  0.1447  0.4849 -0.3641
18724TIP3   OH277586   4.656   2.994   3.704  0.0014  0.2320  0.3156
18724TIP3    H177587   4.715   2.950   3.642 -0.5435  1.1987 -0.9080
18724TIP3    H277588   4.675   3.087   3.693 -0.8819  0.4750  0.8091
18725TIP3   OH277589   0.856   2.680  14.567 -0.3501  0.1004 -0.6014
18725TIP3    H177590   0.874   2.705  14.476 -2.8540  0.6283 -0.9813
18725TIP3    H277591   0.818   2.759  14.606 -3.1011 -1.3590 -0.2514
18726TIP3   OH277592   5.263   2.334  16.476 -0.2724  0.2140  0.3022
18726TIP3    H177593   5.319   2.410  16.490 -0.6689  0.7437 -0.9151
18726TIP3    H277594   5.184   2.352  16.526 -0.4678  0.7189 -0.1874
18727TIP3   OH277595   0.117   5.430  12.557 -0.1500 -0.5076 -0.1414
18727TIP3    H177596   0.140   5.337  12.550 -0.0617 -0.5309  0.4116
18727TIP3    H277597   0.023   5.430  12.577 -0.1147 -0.4840  0.0251
18728TIP3   OH277598   2.419   3.425  10.415 -0.8528  0.0012  0.7678
18728TIP3    H177599   2.391   3.437  10.505 -1.1710  0.4204  0.6144
18728TIP3    H277600   2.477   3.499  10.397  1.5205 -1.6056  1.5297
18729TIP3   OH277601   3.033   5.982   2.429 -0.3765 -0.2290 -0.0466
18729TIP3    H177602   3.017   5.990   2.336 -0.4002  1.2201  0.0749
18729TIP3    H277603   3.043   6.072   2.460 -0.5561 -0.6845  1.3797
18730TIP3   OH277604   0.522   3.729   3.740 -0.1774  0.0107 -0.2230
18730TIP3    H177605   0.593   3.772   3.788 -1.2244 -0.8176  2.1674
18730TIP3    H277606   0.500   3.790   3.670  1.0479  1.5426  0.6827
18731TIP3   OH277607   2.795   4.862  13.030 -0.1890 -0.3478  0.2989
18731TIP3    H177608   2.837   4.874  13.115 -0.1836  0.1858  0.2228
18731TIP3    H277609   2.717   4.811  13.048  1.0076 -2.2464  0.3179
18732TIP3   OH277610   5.637   0.988   2.974 -0.3015  0.3449 -0.1363
18732TIP3    H177611   5.618   0.905   2.931  1.8355 -0.4973  0.4801
18732TIP3    H277612   5.637   0.968   3.067  0.7790  0.9072 -0.0037
18733TIP3   OH277613   0.928   3.393  11.665 -0.0789  0.2695  0.1665
18733TIP3    H177614   0.917   3.488  11.674 -0.3509  0.2460  0.0835
18733TIP3    H277615   0.861   3.368  11.602 -0.2739 -0.0420  0.4999
18734TIP3   OH277616   6.686   5.736  12.236  0.3669  0.3456 -0.0326
18734TIP3    H177617   6.721   5.647  12.249 -2.7638 -0.6733  2.0075
18734TIP3    H277618   6.640   5.731  12.152  0.9715  0.2962 -0.3618
18735TIP3   OH277619   1.311   4.334   6.674 -0.3722  0.1020  0.1176
18735TIP3    H177620   1.372   4.373   6.611 -1.2494 -0.0585 -0.8457
18735TIP3    H277621   1.252   4.406   6.698 -2.2043 -0.6686 -1.9206
18736TIP3   OH277622   1.316   4.548  15.231 -0.1994  0.1267 -0.2987
18736TIP3    H177623   1.354   4.595  15.305 -0.3112 -1.0909  0.5581
18736TIP3    H277624   1.345   4.596  15.154  2.2708 -0.2206  0.3826
18737TIP3   OH277625   1.168   5.295   3.148  0.4473  0.3663 -0.2725
18737TIP3    H177626   1.076   5.321   3.146 -0.2395 -1.7323  1.6334
18737TIP3    H277627   1.183   5.253   3.063 -0.4090  0.5677 -0.5243
18738TIP3   OH277628   3.232   3.108  11.229  1.0060  0.1799  0.1412
18738TIP3    H177629   3.222   3.014  11.242 -1.1219  0.4496  0.6210
18738TIP3    H277630   3.274   3.117  11.144 -1.0686 -1.1354 -1.0434
18739TIP3   OH277631   1.735   6.522  12.841 -0.4241 -0.1309  0.4020
18739TIP3    H177632   1.789   6.589  12.798  1.2075 -0.3886  2.0179
18739TIP3    H277633   1.785   6.441  12.831 -0.3058 -0.3042  2.2466
18740TIP3   OH277634   5.855   3.471  14.604  0.0076 -0.0143  0.2536
18740TIP3    H177635   5.917   3.457  14.532 -0.4094 -0.9124  0.0567
18740TIP3    H277636   5.877   3.557  14.638  1.2027 -0.2130  0.0212
18741TIP3   OH277637   4.891   3.652   1.274  0.2944 -0.4903  0.0843
18741TIP3    H177638   4.941   3.587   1.224  0.1580 -0.4694 -0.0803
18741TIP3    H277639   4.947   3.730   1.274  0.9660 -0.9749  1.2768
18742TIP3   OH277640   1.552   5.772   4.215 -0.7402 -0.0542  0.6458
18742TIP3    H177641   1.562   5.867   4.225 -0.3639 -0.2377  2.0693
18742TIP3    H277642   1.641   5.737   4.218 -0.7965 -0.3755 -0.8922
18743TIP3   OH277643   4.193   2.452  14.346 -0.2705  0.3769  0.6067
18743TIP3    H177644   4.169   2.368  14.386  0.5479  0.1703  0.6719
18743TIP3    H277645   4.289   2.450  14.342 -0.2788  1.0493  0.0458
18744TIP3   OH277646   0.521   4.181   6.627  0.7771  0.4816  0.1648
18744TIP3    H177647   0.556   4.258   6.673 -2.1695  0.5960  2.3044
18744TIP3    H277648   0.463   4.140   6.690  2.5960 -3.7958 -0.8146
18745TIP3   OH277649   4.186   0.865  15.963 -0.1243 -0.4238 -0.2784
18745TIP3    H177650   4.277   0.894  15.957 -0.3735  0.4164 -0.0971
18745TIP3    H277651   4.150   0.883  15.876 -0.3385  0.0111 -0.0998
18746TIP3   OH277652   2.941   5.245  11.663 -0.2372 -0.0697 -0.0187
18746TIP3    H177653   3.035   5.248  11.676 -0.3683  0.8986  0.7298
18746TIP3    H277654   2.929   5.252  11.568  0.4651 -1.0499 -0.1886
18747TIP3   OH277655   2.356   2.011   1.255 -0.5391 -0.0393 -0.1169
18747TIP3    H177656   2.269   2.042   1.278 -0.1437  1.2414 -0.2894
18747TIP3    H277657   2.415   2.061   1.312  0.0055 -1.9225  1.0192
18748TIP3   OH277658   5.933   3.953  11.751 -0.6962  0.2992  0.2706
18748TIP3    H177659   5.864   3.886  11.746 -0.6713  0.2498  0.6268
18748TIP3    H277660   6.015   3.904  11.752 -0.6243  0.3814 -0.8960
18749TIP3   OH277661   5.381   1.079   1.903 -0.1544 -0.6135 -0.0843
18749TIP3    H177662   5.379   0.986   1.927 -0.0037 -0.1897  1.6490
18749TIP3    H277663   5.289   1.104   1.892 -0.1859 -1.0063 -0.7437
18750TIP3   OH277664   0.933   2.876  12.847 -0.4954  0.4549 -0.1179
18750TIP3    H177665   0.882   2.807  12.889  0.6119  0.0662  0.6291
18750TIP3    H277666   0.880   2.904  12.773 -1.6896 -0.0706  0.5311
18751TIP3   OH277667   5.523   5.651   6.496  0.2490 -0.3082 -0.0949
18751TIP3    H177668   5.524   5.560   6.526 -0.3995 -0.3580 -0.2189
18751TIP3    H277669   5.596   5.656   6.434  0.3073 -0.7365 -0.0651
18752TIP3   OH277670   0.770   3.260  16.665 -0.5192  0.3934  0.0962
18752TIP3    H177671   0.740   3.227  16.580  1.1196  0.9040 -0.7049
18752TIP3    H277672   0.775   3.355  16.652  1.1865  0.3380  0.2841
18753TIP3   OH277673   1.690   2.671   2.213 -0.3500 -0.3698 -0.1021
18753TIP3    H177674   1.674   2.648   2.305  0.9050 -1.9724 -0.2582
18753TIP3    H277675   1.719   2.589   2.173  0.0320  0.5390 -1.7160
18754TIP3   OH277676   6.534   6.420  14.843  0.0400 -0.6926 -0.0421
18754TIP3    H177677   6.443   6.393  14.857 -0.8065  1.0735 -1.8377
18754TIP3    H277678   6.549   6.406  14.749  1.4472 -0.4157  0.1264
18755TIP3   OH277679   0.350   0.777  11.650  0.0305  0.4397 -0.1124
18755TIP3    H177680   0.298   0.716  11.597 -1.5988  0.6608  1.2048
18755TIP3    H277681   0.353   0.737  11.736  1.8894  0.5452 -0.0994
18756TIP3   OH277682   2.032   4.001   6.416 -0.5662  0.3070 -0.1989
18756TIP3    H177683   1.948   3.966   6.445 -0.2989 -1.1052 -1.0896
18756TIP3    H277684   2.091   3.987   6.489 -0.9732  0.8570  0.2444
18757TIP3   OH277685   0.860   4.655   3.087  0.5121 -0.5906 -0.0893
18757TIP3    H177686   0.919   4.584   3.112  0.6216 -0.6640 -0.5564
18757TIP3    H277687   0.916   4.732   3.079  0.3996 -0.4568  0.3766
18758TIP3   OH277688   6.492   1.209   3.315 -0.5783  0.1889  0.0612
18758TIP3    H177689   6.564   1.232   3.374 -0.3139  0.6398 -0.4348
18758TIP3    H277690   6.510   1.118   3.289  0.1873  0.5196 -0.5962
18759TIP3   OH277691   1.610   6.384  16.390  0.2884  0.1590 -0.0127
18759TIP3    H177692   1.542   6.407  16.453 -1.1766 -1.6926 -0.8695
18759TIP3    H277693   1.567   6.326  16.327  2.8662 -1.8671 -0.0465
18760TIP3   OH277694   6.677   6.565   5.704 -0.4526  0.3917 -0.9624
18760TIP3    H177695   6.704   6.644   5.751 -0.6182 -0.0148 -0.1734
18760TIP3    H277696   6.711   6.576   5.616  0.4350  0.8670 -0.5597
18761TIP3   OH277697   3.497   3.872   5.570  0.2214  0.2782 -0.3856
18761TIP3    H177698   3.560   3.835   5.632 -0.4249 -0.0137  0.1156
18761TIP3    H277699   3.550   3.906   5.499  0.8511 -1.8475 -0.9823
18762TIP3   OH277700   3.238   0.489   0.125 -0.3934 -0.1517 -0.6203
18762TIP3    H177701   3.216   0.401   0.155 -0.3387 -0.0893 -0.3986
18762TIP3    H277702   3.167   0.544   0.159 -0.1040 -0.0130 -0.2401
18763TIP3   OH277703   0.411   1.580   4.127  0.4984 -0.3375 -0.7966
18763TIP3    H177704   0.349   1.509   4.108  1.0266 -1.2426  0.7723
18763TIP3    H277705   0.497   1.539   4.117  0.8085  0.2018 -0.3431
18764TIP3   OH277706   3.391   0.145   1.929  0.5725 -0.2694  0.5565
18764TIP3    H177707   3.390   0.053   1.905 -0.3987  0.0082 -0.5111
18764TIP3    H277708   3.313   0.156   1.984  0.2009  0.1026 -0.0452
18765TIP3   OH277709   4.004   1.906  11.433 -0.7338 -0.0925 -0.5456
18765TIP3    H177710   4.063   1.933  11.503 -0.4891  0.6299 -1.0307
18765TIP3    H277711   4.006   1.978  11.370 -0.1001 -1.1997 -1.8180
18766TIP3   OH277712   0.676   0.876   3.052 -0.0267 -0.1375  0.1041
18766TIP3    H177713   0.622   0.797   3.042 -0.3190  0.0894 -0.1439
18766TIP3    H277714   0.619   0.937   3.099  0.4024 -0.2738  0.7971
18767TIP3   OH277715   0.734   0.196  14.129  0.0826  0.5359  0.3374
18767TIP3    H177716   0.704   0.208  14.039 -1.3917 -2.8219  0.3069
18767TIP3    H277717   0.829   0.184  14.121 -0.0351  0.2916 -0.7622
18768TIP3   OH277718   2.761   0.302  15.766  0.0406  0.5857  0.2187
18768TIP3    H177719   2.820   0.369  15.732  1.5923 -0.8046  0.0921
18768TIP3    H277720   2.819   0.235  15.802 -1.4986  0.2141  2.1285
18769TIP3   OH277721   0.527   2.516   5.967 -0.4112  0.5688  0.4748
18769TIP3    H177722   0.482   2.444   6.012  0.0866 -0.1302 -0.1259
18769TIP3    H277723   0.491   2.595   6.007 -5.3341  0.2307 -2.7439
18770TIP3   OH277724   4.552   4.456  12.302 -0.1433 -0.1614 -0.0448
18770TIP3    H177725   4.624   4.408  12.341 -1.7861 -1.9064  0.9338
18770TIP3    H277726   4.553   4.430  12.210 -1.2982 -2.4868  0.5662
18771TIP3   OH277727   4.889   1.406   4.075 -0.2657  0.3210 -0.5714
18771TIP3    H177728   4.857   1.363   3.996  0.5030  1.1644 -1.3503
18771TIP3    H277729   4.963   1.351   4.103 -0.2429  0.2826 -0.7064
18772TIP3   OH277730   2.385   6.616   0.019 -0.4974  0.7466  0.2100
18772TIP3    H177731   2.462   6.652   0.063  0.5927 -1.4015  0.1422
18772TIP3    H277732   2.316   6.620   0.084  0.3714  0.2176  1.1721
18773TIP3   OH277733   6.095   5.241   4.408  0.0201  0.1050  0.1330
18773TIP3    H177734   6.185   5.216   4.427 -0.0743 -0.3159  0.0231
18773TIP3    H277735   6.057   5.262   4.494  0.0718 -0.2182  0.2342
18774TIP3   OH277736   5.889   3.522   5.080 -0.6823 -0.0952 -0.0183
18774TIP3    H177737   5.891   3.618   5.082 -1.7326 -0.0372 -0.9925
18774TIP3    H277738   5.860   3.496   5.167 -0.8582  0.4955  0.1006
18775TIP3   OH277739   0.943   5.801  17.148  0.2833 -0.1613 -0.4757
18775TIP3    H177740   1.026   5.830  17.110 -0.5768  0.7898 -1.6854
18775TIP3    H277741   0.919   5.725  17.094 -0.2052  0.2783 -0.8785
18776TIP3   OH277742   4.322   5.937   4.705 -0.0114  0.2827  0.2791
18776TIP3    H177743   4.264   5.967   4.775  1.2799  2.4229  0.4615
18776TIP3    H277744   4.406   5.977   4.724  0.8759 -0.7034 -1.4186
18777TIP3   OH277745   0.562   3.652   5.225  0.0506  0.2642  0.4070
18777TIP3    H177746   0.607   3.592   5.285  0.5601 -0.8627 -1.0533
18777TIP3    H277747   0.528   3.595   5.156 -1.1162  1.4574 -0.0164
18778TIP3   OH277748   1.668   4.053  12.561 -0.3752  0.9038  0.4487
18778TIP3    H177749   1.619   4.065  12.642 -0.3774  0.0425  0.5762
18778TIP3    H277750   1.619   4.103  12.496 -1.9997 -0.7666  0.3576
18779TIP3   OH277751   0.874   5.583  12.264  0.1301 -0.2422 -0.5150
18779TIP3    H177752   0.892   5.581  12.170  0.9280 -1.2261 -0.3508
18779TIP3    H277753   0.912   5.502  12.297 -1.9962 -0.9092  0.3414
18780TIP3   OH277754   3.690   4.464   2.547  0.0780  0.3631  0.5297
18780TIP3    H177755   3.699   4.401   2.618 -0.2395 -2.9827 -2.2965
18780TIP3    H277756   3.774   4.460   2.500 -0.4156  1.0768 -0.4402
18781TIP3   OH277757   5.433   1.521   2.793  0.5303 -0.0866  0.1700
18781TIP3    H177758   5.339   1.509   2.784  0.5260  1.3204 -2.1347
18781TIP3    H277759   5.471   1.468   2.723  1.3926 -0.0384  0.5966
18782TIP3   OH277760   0.507   4.427   5.217  0.5994 -0.1699 -0.3638
18782TIP3    H177761   0.420   4.390   5.231  0.6762 -0.4222 -0.5627
18782TIP3    H277762   0.501   4.468   5.131  0.9876 -1.0724 -0.8214
18783TIP3   OH277763   4.345   0.083  11.908  0.2151  0.1362  0.3654
18783TIP3    H177764   4.264   0.046  11.944  0.4667 -0.6562  0.1333
18783TIP3    H277765   4.317   0.156  11.854 -0.2449  0.7160  1.3701
18784TIP3   OH277766   1.640   4.308   1.615 -0.0630 -0.3892 -0.1498
18784TIP3    H177767   1.633   4.288   1.708  2.6521 -0.0876  0.1423
18784TIP3    H277768   1.600   4.395   1.606 -0.0336 -0.2800  0.7916
18785TIP3   OH277769   4.699   2.736  15.566 -0.8149  0.2210  0.3837
18785TIP3    H177770   4.775   2.795  15.572 -0.2279 -0.5102  0.2160
18785TIP3    H277771   4.668   2.746  15.476  0.8845 -1.6640 -0.4490
18786TIP3   OH277772   3.465   1.994  14.259  0.0931  0.7071  0.2034
18786TIP3    H177773   3.387   1.992  14.315  0.5975  0.1659  0.8994
18786TIP3    H277774   3.538   2.010  14.320  0.9189 -2.1034  0.0158
18787TIP3   OH277775   6.036   5.851  16.724 -0.5459 -0.0683  1.0665
18787TIP3    H177776   6.130   5.831  16.729 -0.3480  0.1804 -0.8986
18787TIP3    H277777   6.015   5.889  16.809  1.0182 -0.5970  1.7196
18788TIP3   OH277778   2.941   4.046   3.347  0.6750  0.1005  0.3338
18788TIP3    H177779   3.019   4.101   3.338  0.4623  0.4331  0.4985
18788TIP3    H277780   2.950   3.980   3.279  1.2038  0.0153  0.4873
18789TIP3   OH277781   4.989   1.503  16.177  0.1154  0.0196 -0.1303
18789TIP3    H177782   4.971   1.482  16.269 -2.4139  1.1229 -0.3356
18789TIP3    H277783   4.973   1.597  16.171  1.1784  0.1180 -1.5066
18790TIP3   OH277784   3.790   2.792   0.327 -0.5418  0.2427 -0.0437
18790TIP3    H177785   3.829   2.848   0.261  2.3032 -0.7754  0.7314
18790TIP3    H277786   3.798   2.842   0.409 -0.5753 -0.1313  0.1877
18791TIP3   OH277787   6.049   0.303  11.144  0.4148  0.6242 -0.2676
18791TIP3    H177788   6.042   0.323  11.237  2.2694 -0.6352  0.1789
18791TIP3    H277789   5.996   0.224  11.132  0.4347  0.5999 -0.1988
18792TIP3   OH277790   2.718   0.178  14.160 -0.0611 -0.0631 -0.3344
18792TIP3    H177791   2.654   0.186  14.089 -1.4009 -0.3688  0.8251
18792TIP3    H277792   2.748   0.087  14.156  0.6267  0.1850 -1.1284
18793TIP3   OH277793   3.516   2.272  12.279  0.0899  0.5372 -0.1264
18793TIP3    H177794   3.576   2.226  12.220  1.4240  1.0125  0.8469
18793TIP3    H277795   3.466   2.330  12.221 -1.3476 -1.7922 -1.3159
18794TIP3   OH277796   6.073   5.557   4.591 -0.8106 -0.4181 -0.6014
18794TIP3    H177797   6.076   5.503   4.670  1.1424  2.3846  1.3550
18794TIP3    H277798   6.016   5.630   4.614 -0.6415  0.1562 -1.9675
18795TIP3   OH277799   4.999   4.970  14.394  0.5187 -0.0580  0.8151
18795TIP3    H177800   5.066   4.902  14.390  1.7088  0.9607  2.7091
18795TIP3    H277801   4.931   4.933  14.451  0.3188 -0.3626  0.3834
18796TIP3   OH277802   0.827   4.374   0.720 -0.5644 -0.2226  0.0150
18796TIP3    H177803   0.818   4.283   0.750 -0.7670  0.2228  1.3470
18796TIP3    H277804   0.853   4.422   0.798  2.9617  0.3257 -1.3943
18797TIP3   OH277805   5.138   0.291  12.763  0.0618 -0.1653 -0.4662
18797TIP3    H177806   5.126   0.334  12.678 -0.7901 -0.7492 -0.6469
18797TIP3    H277807   5.207   0.227  12.749 -1.7154 -1.9277 -1.3502
18798TIP3   OH277808   5.151   3.029  14.485 -0.0425  0.1607  0.9880
18798TIP3    H177809   5.118   3.062  14.401  0.7251  1.1911  1.0958
18798TIP3    H277810   5.130   3.098  14.548  0.2555 -0.1958  1.4767
18799TIP3   OH277811   0.443   3.062   6.521 -0.5384 -0.0406  0.0346
18799TIP3    H177812   0.516   3.007   6.492  0.6115  1.6471 -0.3134
18799TIP3    H277813   0.415   3.108   6.442 -0.7973  0.6702  0.5374
18800TIP3   OH277814   3.056   3.905   0.568  0.7492  0.0611  0.1028
18800TIP3    H177815   3.101   3.984   0.538  2.6939 -0.4890  1.4325
18800TIP3    H277816   3.075   3.840   0.501 -0.7098  0.6495 -0.9065
18801TIP3   OH277817   5.976   5.708  12.060  0.3775 -0.0195 -0.8517
18801TIP3    H177818   5.947   5.619  12.041  1.0981 -0.4889  0.2280
18801TIP3    H277819   6.041   5.727  11.992 -0.6084  0.1257 -1.7751
18802TIP3   OH277820   0.998   6.611   5.844 -0.1464  0.2077  0.3483
18802TIP3    H177821   1.054   6.592   5.920  0.6755 -0.2941 -0.3729
18802TIP3    H277822   1.029   6.694   5.811 -0.2366  0.2283  0.3144
18803TIP3   OH277823   5.880   2.937   1.808 -0.1796 -0.4425  0.4978
18803TIP3    H177824   5.785   2.943   1.800  0.0308  0.6931 -1.5588
18803TIP3    H277825   5.901   2.987   1.887 -1.3699 -1.6521  1.6033
18804TIP3   OH277826   3.929   2.862   0.556 -0.0295  0.2853  0.2255
18804TIP3    H177827   4.016   2.902   0.547 -0.4143  1.1512  0.4176
18804TIP3    H277828   3.931   2.819   0.641  0.0829  0.6102  0.3862
18805TIP3   OH277829   1.069   3.397   5.442 -0.0909  0.5747 -0.3941
18805TIP3    H177830   1.010   3.440   5.504 -0.4715 -1.3720  0.6228
18805TIP3    H277831   1.119   3.335   5.495 -0.0758 -0.7687 -1.9451
18806TIP3   OH277832   1.598   1.049   0.833 -0.1855 -0.5742 -0.1915
18806TIP3    H177833   1.639   0.974   0.876 -1.1676 -0.4622  0.9934
18806TIP3    H277834   1.583   1.021   0.743  0.4185 -1.4156 -0.0332
18807TIP3   OH277835   4.070   3.234   0.133 -0.2610  0.1227  0.6956
18807TIP3    H177836   4.052   3.327   0.145  0.0869  0.3427 -0.4238
18807TIP3    H277837   4.157   3.220   0.170  0.2731  0.5339 -0.3884
18808TIP3   OH277838   0.382   3.873  16.695 -0.0273 -0.1397  0.0913
18808TIP3    H177839   0.421   3.788  16.671 -0.4421 -0.7643  1.6081
18808TIP3    H277840   0.294   3.869  16.659 -0.0105 -0.2992  0.0648
18809TIP3   OH277841   0.790   5.649  16.440 -0.3004 -0.0636 -0.5562
18809TIP3    H177842   0.776   5.649  16.534  0.4638  0.0964 -0.4407
18809TIP3    H277843   0.751   5.567  16.410  0.0727 -0.4437 -0.0064
18810TIP3   OH277844   5.249   2.855   2.808 -0.3373  0.0699  0.1060
18810TIP3    H177845   5.264   2.897   2.724  0.4305  1.2784  0.8337
18810TIP3    H277846   5.171   2.898   2.843  0.4368  0.8859  0.8412
18811TIP3   OH277847   3.968   2.869   3.421  0.1120 -0.7959 -0.5597
18811TIP3    H177848   3.904   2.814   3.467 -1.7516  2.3781  0.8152
18811TIP3    H277849   4.051   2.851   3.465 -0.9905 -0.4950  1.7311
18812TIP3   OH277850   3.928   1.479   4.194  0.0681  0.4508 -0.2733
18812TIP3    H177851   3.996   1.492   4.129  0.7595 -0.2407  0.2974
18812TIP3    H277852   3.931   1.557   4.249  1.2152 -0.1074  0.4735
18813TIP3   OH277853   0.189   5.772  13.308  0.8610 -0.1062  0.3718
18813TIP3    H177854   0.277   5.766  13.345  1.5359 -4.1578 -1.6938
18813TIP3    H277855   0.132   5.739  13.378  1.1814  0.3184  0.8454
18814TIP3   OH277856   5.830   1.385   4.694  1.0721 -0.1494  0.0361
18814TIP3    H177857   5.894   1.316   4.713 -0.3056 -1.2223  0.8701
18814TIP3    H277858   5.746   1.339   4.690  0.3070  1.2938 -0.7031
18815TIP3   OH277859   0.812   3.919  13.598 -0.2726 -0.1551  0.1440
18815TIP3    H177860   0.769   3.848  13.645 -1.6465  0.2504 -0.4851
18815TIP3    H277861   0.742   3.981  13.579  0.6143  0.5753 -0.7752
18816TIP3   OH277862   3.033   3.321   4.866 -0.2511 -0.3316  0.2935
18816TIP3    H177863   2.975   3.277   4.928 -1.4439  1.6845  0.6484
18816TIP3    H277864   3.000   3.296   4.780 -1.6322  0.7845  0.4937
18817TIP3   OH277865   2.546   4.161  12.730  0.0382  0.2337  0.1285
18817TIP3    H177866   2.519   4.110  12.805 -2.1562  0.0778 -0.7466
18817TIP3    H277867   2.497   4.124  12.656  0.9607  1.3981 -1.1023
18818TIP3   OH277868   5.875   6.424  12.148 -0.2290 -0.0461  0.9013
18818TIP3    H177869   5.871   6.391  12.238 -0.9575 -2.5879 -0.0405
18818TIP3    H277870   5.789   6.403  12.111  0.4885 -0.0928 -0.7571
18819TIP3   OH277871   3.914   3.126  12.189  0.6256 -0.4705 -0.1869
18819TIP3    H177872   3.933   3.159  12.277 -1.1510  0.6722 -0.1936
18819TIP3    H277873   3.827   3.086  12.198 -0.4467  1.4177 -1.8419
18820TIP3   OH277874   3.148   4.303  15.240 -0.0324  0.4471  0.2888
18820TIP3    H177875   3.142   4.351  15.323 -0.5535 -0.3869  0.7343
18820TIP3    H277876   3.241   4.304  15.219  0.3167 -0.7466  1.7184
18821TIP3   OH277877   5.316   4.166  15.501 -1.0764 -0.4450  0.1124
18821TIP3    H177878   5.365   4.204  15.574 -2.3025  0.7547  0.3248
18821TIP3    H277879   5.254   4.106  15.541 -0.4912 -1.2037 -0.0911
18822TIP3   OH277880   5.277   6.684  15.404  0.4425 -0.2778  0.2676
18822TIP3    H177881   5.197   6.733  15.382  0.4766 -0.3726 -0.0658
18822TIP3    H277882   5.264   6.598  15.365  0.8576 -0.1841 -0.0799
18823TIP3   OH277883   2.216   0.569   5.264  0.3749  0.3509 -0.7453
18823TIP3    H177884   2.229   0.655   5.223  1.7210 -0.3721 -1.8914
18823TIP3    H277885   2.305   0.538   5.282 -0.1760  0.1831  1.7979
18824TIP3   OH277886   2.718   3.698   1.859 -0.1500 -0.1280  0.2182
18824TIP3    H177887   2.658   3.661   1.925 -0.8830  1.7176  0.6072
18824TIP3    H277888   2.716   3.792   1.875  2.7457 -0.0112  0.1049
18825TIP3   OH277889   5.469   6.314  13.512 -0.0861  0.0006  0.0403
18825TIP3    H177890   5.515   6.362  13.443  0.2109 -2.2091 -1.3584
18825TIP3    H277891   5.384   6.293  13.475 -0.1941 -0.6055  0.6088
18826TIP3   OH277892   3.091   5.719   3.868 -0.2810  0.6609 -1.0157
18826TIP3    H177893   3.111   5.661   3.795  0.3708 -0.0675 -0.2679
18826TIP3    H277894   3.062   5.800   3.827  1.2773  0.6879 -2.0907
18827TIP3   OH277895   5.567   5.423   0.169  0.2852 -0.3517  0.6076
18827TIP3    H177896   5.593   5.378   0.089 -0.9152 -0.4414  0.2657
18827TIP3    H277897   5.646   5.423   0.223  0.9452 -0.7757 -0.3471
18828TIP3   OH277898   2.784   1.382   4.510  0.4696  0.1349 -0.2015
18828TIP3    H177899   2.703   1.346   4.475  0.3275  0.7634 -0.5285
18828TIP3    H277900   2.825   1.309   4.558 -0.3917 -0.1194  0.1498
18829TIP3   OH277901   0.432   2.076  12.231  0.4663 -0.1965  0.2721
18829TIP3    H177902   0.506   2.041  12.281  0.6653 -3.2215 -2.0046
18829TIP3    H277903   0.471   2.104  12.148 -0.3044  2.2397  0.6735
18830TIP3   OH277904   3.963   1.722   3.305  0.3362 -0.1013  0.6981
18830TIP3    H177905   3.899   1.657   3.336 -0.6278  0.7932  0.6059
18830TIP3    H277906   3.913   1.777   3.245  0.8487  1.4379  1.6713
18831TIP3   OH277907   6.656   3.461  11.738  0.0793 -0.4053 -0.2490
18831TIP3    H177908   6.634   3.548  11.771  2.2352  0.3119 -0.6646
18831TIP3    H277909   6.630   3.463  11.646  2.4033  0.6689 -0.9133
18832TIP3   OH277910   3.271   5.460  12.581  0.0469 -0.0446  0.0912
18832TIP3    H177911   3.220   5.540  12.571  1.1576  0.8276  1.2240
18832TIP3    H277912   3.319   5.451  12.499 -1.9707 -0.9386 -1.0353
18833TIP3   OH277913   5.817   5.994   0.468  0.4789  0.3278 -0.2289
18833TIP3    H177914   5.775   5.908   0.475  2.4638 -0.6098  0.5803
18833TIP3    H277915   5.862   5.991   0.383 -0.3463  0.9881 -0.6924
18834TIP3   OH277916   0.492   2.067  15.735  0.1767  0.4721  0.1069
18834TIP3    H177917   0.482   1.982  15.778  0.5904 -0.5414 -1.7430
18834TIP3    H277918   0.586   2.084  15.735  0.1727  0.5110 -0.2986
18835TIP3   OH277919   1.427   5.218  16.469 -0.2122  0.1854 -0.4353
18835TIP3    H177920   1.472   5.302  16.472 -1.5458  0.9390 -1.2688
18835TIP3    H277921   1.493   5.157  16.434  0.6833  0.9204 -0.0444
18836TIP3   OH277922   5.288   1.972  12.311  0.5030  0.3625  0.2137
18836TIP3    H177923   5.280   1.960  12.405  0.1709 -0.0545  0.1278
18836TIP3    H277924   5.375   1.937  12.290  1.0583  1.5115  0.5426
18837TIP3   OH277925   3.889   3.543   1.159 -0.0012 -0.0465 -0.0589
18837TIP3    H177926   3.838   3.478   1.112  0.2371  0.5620 -1.1602
18837TIP3    H277927   3.976   3.503   1.168  0.0849  0.0243 -0.5508
18838TIP3   OH277928   4.056   5.198  14.423 -0.9585 -0.4429  0.2124
18838TIP3    H177929   4.011   5.278  14.449 -1.4367 -0.6989  0.1804
18838TIP3    H277930   4.038   5.188  14.330  0.7554  0.4691 -0.2341
18839TIP3   OH277931   5.190   6.627   5.044 -0.3849 -0.2075 -0.8058
18839TIP3    H177932   5.257   6.564   5.020 -0.3392 -0.5189  0.1216
18839TIP3    H277933   5.149   6.591   5.123 -1.3128  0.2193 -1.0824
18840TIP3   OH277934   5.914   1.190   2.091  0.3958  0.1189  0.1897
18840TIP3    H177935   5.977   1.122   2.068  1.9174  1.0606  1.4562
18840TIP3    H277936   5.954   1.235   2.166 -2.5993 -0.3951  2.1905
18841TIP3   OH277937   6.513   3.821   0.450  0.7502 -0.0797  0.1528
18841TIP3    H177938   6.602   3.844   0.423  1.5341 -0.0087  2.6392
18841TIP3    H277939   6.525   3.770   0.530 -1.4404 -0.2493  0.4013
18842TIP3   OH277940   1.708   5.706   0.498 -0.1615  0.1873 -0.4992
18842TIP3    H177941   1.770   5.633   0.507  0.7375  1.0058  0.0828
18842TIP3    H277942   1.661   5.708   0.581 -0.1010  0.3393 -0.4680
18843TIP3   OH277943   6.310   6.518   3.047 -0.1892  0.3021  0.2464
18843TIP3    H177944   6.241   6.471   3.093 -1.6518  1.0707 -1.1085
18843TIP3    H277945   6.301   6.609   3.076  0.4700  0.3438  0.3264
18844TIP3   OH277946   2.352   6.433  13.656 -0.0460  0.2326 -0.2922
18844TIP3    H177947   2.287   6.363  13.648 -2.0319  1.8639  0.9604
18844TIP3    H277948   2.429   6.400  13.609 -1.3651 -2.2375 -0.8132
18845TIP3   OH277949   2.494   0.634   0.294 -0.6196  0.4371 -0.0227
18845TIP3    H177950   2.502   0.704   0.230  0.0102 -1.6700 -2.3220
18845TIP3    H277951   2.577   0.634   0.341 -0.2445  0.5792 -0.6942
18846TIP3   OH277952   5.431   2.224   1.866 -0.7097  0.4478  0.4629
18846TIP3    H177953   5.515   2.270   1.865 -0.4612 -0.0380 -1.1832
18846TIP3    H277954   5.402   2.224   1.775 -1.2233 -1.7225  0.6107
18847TIP3   OH277955   5.459   5.751  16.188  0.2364 -0.5439  0.1517
18847TIP3    H177956   5.491   5.825  16.240 -0.7936  0.6618 -0.9083
18847TIP3    H277957   5.534   5.727  16.133  0.3179  0.2592 -0.1009
18848TIP3   OH277958   4.166   5.917  16.801  0.5821  0.7231 -0.1653
18848TIP3    H177959   4.149   5.915  16.706  1.1072 -1.4523 -0.2510
18848TIP3    H277960   4.096   5.864  16.839  0.4590  1.4674  0.6514
18849TIP3   OH277961   1.420   0.789  10.338  0.3773  0.5469  0.4879
18849TIP3    H177962   1.485   0.719  10.325  1.1029  0.7716  2.6956
18849TIP3    H277963   1.433   0.848  10.264 -0.3568 -1.7319 -1.5162
18850TIP3   OH277964   4.211   5.746   3.895 -0.0234  0.2446 -0.2952
18850TIP3    H177965   4.233   5.839   3.905 -0.0511  0.2642 -0.4152
18850TIP3    H277966   4.115   5.746   3.888 -0.3070 -0.0640  2.9195
18851TIP3   OH277967   1.843   3.881   0.098 -0.9923 -0.2141  0.1605
18851TIP3    H177968   1.867   3.789   0.110 -2.6026 -0.6073  0.4498
18851TIP3    H277969   1.780   3.880   0.026 -0.3315  0.7700 -0.4397
18852TIP3   OH277970   0.905   6.618  14.295 -0.1941 -0.0991  0.4157
18852TIP3    H177971   0.987   6.600  14.342 -1.1998  1.0681  2.7398
18852TIP3    H277972   0.860   6.682  14.350 -2.2153  0.0477 -1.3442
18853TIP3   OH277973   2.039   0.996   5.039  0.3577 -0.3798  0.4226
18853TIP3    H177974   2.132   1.009   5.054  0.8383 -1.4793 -1.5656
18853TIP3    H277975   2.018   0.916   5.088  1.0847 -1.7499 -1.4698
18854TIP3   OH277976   4.021   3.559  14.284  0.1202  0.2289 -0.3733
18854TIP3    H177977   3.984   3.474  14.306 -0.4188  0.0849 -1.8113
18854TIP3    H277978   4.033   3.603  14.368 -1.4032 -0.5222  0.2428
18855TIP3   OH277979   3.249   4.151  10.507  0.2740 -0.1473  0.3745
18855TIP3    H177980   3.173   4.103  10.540  1.0482 -1.4519  0.2787
18855TIP3    H277981   3.211   4.220  10.452 -0.8266 -1.3129 -0.3766
18856TIP3   OH277982   6.039   1.411   3.557 -0.4590  0.3838  0.0182
18856TIP3    H177983   6.080   1.359   3.626 -0.1814  1.3225  0.5605
18856TIP3    H277984   6.011   1.491   3.600 -0.4890  0.8781 -0.9074
18857TIP3   OH277985   3.058   5.706   2.411  0.1674 -0.3546  0.1284
18857TIP3    H177986   2.963   5.696   2.408  0.1060  0.0615  0.6019
18857TIP3    H277987   3.072   5.798   2.434  0.6889 -0.2898 -0.4459
18858TIP3   OH277988   5.411   1.789  12.899 -0.1673 -0.4714 -0.4211
18858TIP3    H177989   5.317   1.807  12.903 -0.0067  0.7065 -1.5721
18858TIP3    H277990   5.428   1.733  12.974 -1.8046 -0.7274 -0.2288
18859TIP3   OH277991   4.202   3.558  15.501  0.2610  0.4450  0.2375
18859TIP3    H177992   4.257   3.483  15.476  0.5196  0.6347  0.2403
18859TIP3    H277993   4.203   3.559  15.596 -2.3253 -1.4792  0.3636
18860TIP3   OH277994   3.542   4.911   4.277  0.0274 -0.4786 -0.3754
18860TIP3    H177995   3.546   4.974   4.349  1.3577 -1.1325  0.1523
18860TIP3    H277996   3.474   4.945   4.219 -1.1024  0.0305  1.2104
18861TIP3   OH277997   6.099   2.345   4.675 -0.3171 -0.1969  0.1508
18861TIP3    H177998   6.051   2.379   4.750 -0.4362  0.2578 -0.1305
18861TIP3    H277999   6.153   2.418   4.646 -1.2142  0.0390 -0.9825
18862TIP3   OH278000   0.320   2.149   5.712  0.6577  0.2585  0.0735
18862TIP3    H178001   0.279   2.064   5.695 -1.4021  0.6048  2.9723
18862TIP3    H278002   0.385   2.132   5.780 -2.0590  1.4881  3.0882
18863TIP3   OH278003   4.392   6.127   5.256  0.2000  0.8192  0.3620
18863TIP3    H178004   4.466   6.123   5.195  0.0319  1.4599  0.1151
18863TIP3    H278005   4.315   6.108   5.201  0.0768  1.1350  0.4261
18864TIP3   OH278006   3.283   1.376   3.857 -0.2889  0.0555 -0.3924
18864TIP3    H178007   3.274   1.409   3.947  2.3144 -0.7753  0.2109
18864TIP3    H278008   3.197   1.390   3.818 -0.8300  2.5047  1.5423
18865TIP3   OH278009   2.155   2.072   4.967  0.0596 -0.0899  0.1010
18865TIP3    H178010   2.229   2.011   4.961  0.9750  1.1109 -1.0931
18865TIP3    H278011   2.085   2.020   5.006  1.5712 -1.2049  1.4197
18866TIP3   OH278012   6.177   5.914  15.965  0.1916 -0.1944 -0.6780
18866TIP3    H178013   6.157   5.903  16.058 -0.0930 -1.8816 -0.9209
18866TIP3    H278014   6.193   6.008  15.955 -0.2544  0.0804  0.9762
18867TIP3   OH278015   3.356   1.078  14.502 -0.6993 -0.2357 -0.1426
18867TIP3    H178016   3.352   1.168  14.533  1.6911 -0.6993  1.6778
18867TIP3    H278017   3.431   1.076  14.442 -0.0881 -1.1968  0.6266
18868TIP3   OH278018   5.474   0.225   4.776 -0.0717 -0.0064  0.1345
18868TIP3    H178019   5.505   0.287   4.710 -0.2720 -1.3945 -1.2896
18868TIP3    H278020   5.509   0.259   4.859  5.4717 -1.5796 -1.3715
18869TIP3   OH278021   3.880   3.397   6.480  0.2354  0.3350 -0.1397
18869TIP3    H178022   3.883   3.308   6.517 -1.7784  0.7149  1.0049
18869TIP3    H278023   3.971   3.417   6.458  0.6474 -2.2034 -0.8773
18870TIP3   OH278024   5.678   3.562   5.429  0.2316  0.0084 -0.3238
18870TIP3    H178025   5.610   3.604   5.376 -0.4621  0.3588  0.8461
18870TIP3    H278026   5.700   3.626   5.496  1.5840 -0.1803 -0.5619
18871TIP3   OH278027   6.131   6.360  15.031 -0.1605 -0.4701  0.3895
18871TIP3    H178028   6.054   6.320  14.991 -0.7339  0.2198  0.7868
18871TIP3    H278029   6.172   6.410  14.960  0.8804 -2.2061 -0.2535
18872TIP3   OH278030   2.317   0.081  11.606 -0.9383 -0.0717  0.0154
18872TIP3    H178031   2.326   0.059  11.513  0.6641  0.1857  0.1041
18872TIP3    H278032   2.363   0.011  11.652 -1.8400 -0.2711  0.6429
18873TIP3   OH278033   1.098   3.811   3.153 -0.1090 -0.2824 -0.0392
18873TIP3    H178034   1.190   3.834   3.163  0.2770 -2.0064  0.6821
18873TIP3    H278035   1.051   3.876   3.205  0.7481  0.1703  0.1830
18874TIP3   OH278036   4.852   2.933   1.957 -0.1876  0.1914 -0.2454
18874TIP3    H178037   4.884   3.023   1.964  0.6730 -0.1475  0.2502
18874TIP3    H278038   4.925   2.884   1.921  0.2073 -0.7764  1.7961
18875TIP3   OH278039   5.140   3.972  15.642 -0.0589 -0.0081 -0.0834
18875TIP3    H178040   5.087   3.912  15.694 -2.2607  0.7281 -1.4101
18875TIP3    H278041   5.176   4.034  15.706 -1.0038 -0.3658  0.8088
18876TIP3   OH278042   2.107   1.089  16.822 -0.2744 -0.0804 -0.5196
18876TIP3    H178043   2.152   1.113  16.741 -0.9942 -0.0612 -0.9220
18876TIP3    H278044   2.158   1.018  16.859  0.6733  0.6355 -0.4340
18877TIP3   OH278045   5.903   4.923  12.440 -0.1976  0.0699  0.3477
18877TIP3    H178046   5.947   4.954  12.361 -2.8293 -2.4507 -2.2336
18877TIP3    H278047   5.964   4.861  12.479  0.2965 -0.1779 -0.8026
18878TIP3   OH278048   0.715   4.281   3.946  0.2443 -1.0932 -0.1819
18878TIP3    H178049   0.634   4.231   3.958 -0.4002  0.1049  0.4745
18878TIP3    H278050   0.718   4.341   4.020  2.6777 -2.3820  0.7967
18879TIP3   OH278051   6.687   5.875   5.438  0.3712 -0.2513  0.0574
18879TIP3    H178052   6.681   5.962   5.479 -0.7475 -0.3483  0.1028
18879TIP3    H278053   6.669   5.814   5.509 -2.6103 -0.3874 -0.7757
18880TIP3   OH278054   0.455   6.685   5.617 -0.1562 -0.1248 -0.5047
18880TIP3    H178055   0.537   6.699   5.664 -1.3558 -0.7230  1.8657
18880TIP3    H278056   0.455   6.591   5.597  0.3568  0.1319 -1.7282
18881TIP3   OH278057   0.197   6.785   0.112  0.4293 -0.7520  0.0248
18881TIP3    H178058   0.158   6.708   0.071 -0.8147 -0.7942  1.2597
18881TIP3    H278059   0.257   6.749   0.178  0.7738 -0.6701 -0.2436
18882TIP3   OH278060   6.553   5.051   5.297 -0.1029 -0.4741  0.1850
18882TIP3    H178061   6.507   5.135   5.308  0.9096 -0.0383  1.1888
18882TIP3    H278062   6.613   5.047   5.371  0.9636 -1.3758 -0.7119
18883TIP3   OH278063   3.531   6.452  16.884 -0.0650  0.3613  0.4077
18883TIP3    H178064   3.472   6.378  16.898  1.0942 -0.8927 -1.1121
18883TIP3    H278065   3.528   6.468  16.790  1.6089  0.5754  0.3701
18884TIP3   OH278066   3.899   5.257   0.842 -0.0568  0.1140 -0.0065
18884TIP3    H178067   3.844   5.192   0.798 -0.9726  0.3364  0.8052
18884TIP3    H278068   3.944   5.208   0.911  0.1959  0.0871 -0.1901
18885TIP3   OH278069   2.313   5.498   5.037 -0.2584  0.2719 -0.4110
18885TIP3    H178070   2.286   5.457   4.955  0.8401  0.1351 -0.7130
18885TIP3    H278071   2.383   5.558   5.012  0.8238 -0.5628  0.5687
18886TIP3   OH278072   4.909   0.553  15.117 -0.4336 -0.5626 -0.4015
18886TIP3    H178073   4.986   0.572  15.062 -0.4590 -0.2273 -0.3160
18886TIP3    H278074   4.945   0.542  15.205 -0.5148 -0.1774 -0.3218
18887TIP3   OH278075   4.546   5.419  15.991  0.3299 -0.2154  0.2109
18887TIP3    H178076   4.606   5.421  16.065  2.2916  0.7782 -1.3541
18887TIP3    H278077   4.513   5.509  15.985  1.0571 -0.0187 -0.8188
18888TIP3   OH278078   0.292   0.452   5.319 -0.4425  0.5094  0.5789
18888TIP3    H178079   0.283   0.511   5.394  0.7115 -0.0019  1.1392
18888TIP3    H278080   0.234   0.379   5.339 -0.5453  0.6264  0.7117
18889TIP3   OH278081   4.569   5.746  16.818  0.1046 -0.3831 -0.2146
18889TIP3    H178082   4.580   5.842  16.818  0.6440 -0.4453  0.8657
18889TIP3    H278083   4.475   5.733  16.806 -0.3802  0.3353  2.5398
18890TIP3   OH278084   5.267   2.978   2.552  0.2614  0.1186 -0.6468
18890TIP3    H178085   5.313   3.030   2.487  3.1967 -0.2027  1.0756
18890TIP3    H278086   5.229   3.043   2.612  1.6836  0.3508  0.0209
18891TIP3   OH278087   2.950   5.289   1.551  0.1296  0.2027 -0.1679
18891TIP3    H178088   3.010   5.240   1.607 -1.1241  0.4079  1.4055
18891TIP3    H278089   2.866   5.246   1.562 -0.4819  1.2473 -0.6320
18892TIP3   OH278090   3.707   4.542   5.592 -0.0826  0.1826 -0.8126
18892TIP3    H178091   3.754   4.461   5.614 -1.4628 -0.8337 -1.5474
18892TIP3    H278092   3.760   4.611   5.631 -0.7867 -1.3124  3.1121
18893TIP3   OH278093   1.140   6.020   4.369  0.3181 -0.1849  0.3496
18893TIP3    H178094   1.117   6.004   4.461  0.7375  0.4978  0.5766
18893TIP3    H278095   1.162   6.113   4.366  0.5054 -0.2520 -0.4049
18894TIP3   OH278096   2.839   6.074  13.299 -0.2933  0.4019  0.3900
18894TIP3    H178097   2.918   6.127  13.296  0.6933 -1.0627  0.2411
18894TIP3    H278098   2.776   6.122  13.244  0.9084  0.8765 -0.5988
18895TIP3   OH278099   4.240   6.072  17.021 -0.4771 -0.3517 -0.0526
18895TIP3    H178100   4.326   6.033  17.036 -0.9440 -1.1659  0.5796
18895TIP3    H278101   4.212   6.037  16.936  0.8083  1.7582 -1.3895
18896TIP3   OH278102   2.269   1.068   1.383 -0.2539  0.4267  0.6456
18896TIP3    H178103   2.363   1.064   1.368 -0.5563 -0.5860 -1.1076
18896TIP3    H278104   2.240   1.146   1.336 -0.2960  0.6956  1.1202
18897TIP3   OH278105   0.835   4.181  12.917  0.0840 -0.6579 -1.1283
18897TIP3    H178106   0.750   4.178  12.873 -0.8227  2.1767  0.3661
18897TIP3    H278107   0.833   4.106  12.977 -1.6236 -0.2366 -0.6269
18898TIP3   OH278108   5.357   3.602   5.777 -0.0807  0.0484  0.9885
18898TIP3    H178109   5.340   3.563   5.691 -0.2925 -0.1037  1.0976
18898TIP3    H278110   5.270   3.616   5.815 -0.0523  1.8776  0.4063
18899TIP3   OH278111   1.170   3.037   0.548 -0.6414  0.1774 -0.7058
18899TIP3    H178112   1.154   3.071   0.635  0.5322  0.2502 -0.5133
18899TIP3    H278113   1.205   3.111   0.498  1.1185 -0.4914 -0.5155
18900TIP3   OH278114   4.210   0.844  10.615 -0.8870  0.0744 -0.1479
18900TIP3    H178115   4.247   0.932  10.616  0.9523 -0.6897  0.7832
18900TIP3    H278116   4.156   0.840  10.695 -0.8835  0.3094 -0.1335
18901TIP3   OH278117   5.883   2.383   0.530  0.6299  0.5584  0.8791
18901TIP3    H178118   5.970   2.382   0.570  0.8944 -0.3631  0.2855
18901TIP3    H278119   5.886   2.456   0.468  1.6128 -0.6198 -0.5003
18902TIP3   OH278120   6.487   5.618  16.821 -0.5960 -0.0645  0.0262
18902TIP3    H178121   6.449   5.588  16.904  1.0652 -1.5699  0.2761
18902TIP3    H278122   6.505   5.538  16.772 -2.4327  0.8365 -2.2294
18903TIP3   OH278123   2.415   5.309   5.403  0.0196 -0.2392  0.0595
18903TIP3    H178124   2.502   5.302   5.442  0.2977  1.6819 -0.1416
18903TIP3    H278125   2.390   5.401   5.416 -2.0921 -0.8273  0.3552
18904TIP3   OH278126   4.785   5.157   5.552 -0.4563 -0.0874  0.3894
18904TIP3    H178127   4.803   5.074   5.596 -1.5283 -0.8755 -0.6245
18904TIP3    H278128   4.696   5.180   5.578 -2.5021 -2.3694 -4.0191
18905TIP3   OH278129   2.113   5.323   0.480  1.1190 -0.7653  0.0141
18905TIP3    H178130   2.066   5.247   0.446  0.0767 -0.1774  0.1552
18905TIP3    H278131   2.180   5.340   0.413 -0.0445 -0.4658 -1.0908
18906TIP3   OH278132   6.184   5.679  11.196 -0.3501  0.3666  0.1319
18906TIP3    H178133   6.188   5.630  11.114  1.3969 -1.3766  1.2136
18906TIP3    H278134   6.229   5.624  11.260 -2.7070  1.1173  2.5773
18907TIP3   OH278135   2.480   5.895   5.479 -0.3010  0.1682 -0.0908
18907TIP3    H178136   2.393   5.925   5.506 -0.4103  1.1881 -1.4787
18907TIP3    H278137   2.463   5.839   5.403  0.0552 -2.0017  1.3778
18908TIP3   OH278138   3.323   6.502  10.973 -0.3144 -0.2130 -0.1672
18908TIP3    H178139   3.392   6.566  10.988  0.3544 -1.0138  0.2196
18908TIP3    H278140   3.242   6.552  10.976 -0.0387  0.0998  3.3716
18909TIP3   OH278141   2.298   3.223  12.841 -0.0695 -0.1897 -0.0139
18909TIP3    H178142   2.365   3.239  12.907 -1.2135  2.9296  0.4863
18909TIP3    H278143   2.218   3.209  12.892 -0.8424  1.6410 -0.6767
18910TIP3   OH278144   2.781   6.620   2.194 -0.2720  0.2484 -0.6829
18910TIP3    H178145   2.830   6.655   2.119 -1.2775  2.0946 -0.4945
18910TIP3    H278146   2.697   6.593   2.157  0.2039 -1.2939 -0.6810
18911TIP3   OH278147   6.490   4.461   5.359  0.3101 -0.0110 -0.1497
18911TIP3    H178148   6.532   4.380   5.332 -0.2764 -0.7604  1.1848
18911TIP3    H278149   6.521   4.477   5.448 -2.2625 -0.6165  0.8830
18912TIP3   OH278150   3.506   3.688  16.836  0.5205 -0.1926 -0.3611
18912TIP3    H178151   3.429   3.743  16.848  0.3722 -0.7961  1.7387
18912TIP3    H278152   3.527   3.657  16.924  1.7398 -1.9407 -1.2259
18913TIP3   OH278153   1.406   3.069  16.367  0.6221 -0.3336  0.2506
18913TIP3    H178154   1.365   3.069  16.281  2.8785 -0.4765 -0.8598
18913TIP3    H278155   1.431   3.161  16.382 -0.5118 -0.1524  1.1530
18914TIP3   OH278156   0.843   1.420  11.908 -0.1018 -0.2561 -0.0762
18914TIP3    H178157   0.918   1.399  11.852 -0.4355 -1.0161 -0.2430
18914TIP3    H278158   0.793   1.338  11.912 -1.3549  0.4721 -0.6388
18915TIP3   OH278159   3.474   6.715   3.392  0.5638  0.3862  0.5799
18915TIP3    H178160   3.467   6.795   3.445 -1.4488  0.7006 -0.1235
18915TIP3    H278161   3.412   6.654   3.431  1.4186 -0.5186  0.5386
18916TIP3   OH278162   0.508   0.156  14.852  0.4043  0.0684 -0.2856
18916TIP3    H178163   0.416   0.148  14.879 -0.3431 -1.3486 -3.0536
18916TIP3    H278164   0.537   0.240  14.888 -1.0406 -0.8363  3.1934
18917TIP3   OH278165   2.610   0.233   0.385  0.0750  0.2394 -0.0239
18917TIP3    H178166   2.564   0.149   0.384 -1.5886  1.1324 -1.6515
18917TIP3    H278167   2.582   0.275   0.466 -0.4316 -0.0495 -0.0512
18918TIP3   OH278168   5.362   3.882   4.490  0.2872 -0.7184  1.0609
18918TIP3    H178169   5.319   3.828   4.557  0.4829 -2.8274 -0.4727
18918TIP3    H278170   5.456   3.872   4.508  0.3067 -0.3335  1.1847
18919TIP3   OH278171   4.435   2.930   4.514  0.2007 -0.5835  0.0750
18919TIP3    H178172   4.364   2.967   4.461  1.3243  1.3685 -0.1442
18919TIP3    H278173   4.450   2.996   4.582  3.6267  0.4072 -1.5260
18920TIP3   OH278174   0.720   1.288   2.586  0.4198  0.2935  0.4390
18920TIP3    H178175   0.735   1.193   2.580  1.7609  0.4924  0.5745
18920TIP3    H278176   0.715   1.306   2.680  0.9402  0.4825  0.4280
18921TIP3   OH278177   5.916   1.583   2.818  0.1406 -0.3709  0.7081
18921TIP3    H178178   5.901   1.614   2.907  1.8416  0.0210  0.8725
18921TIP3    H278179   5.951   1.495   2.828  0.6204 -0.2132  0.4374
18922TIP3   OH278180   2.192   1.617  12.547 -0.2934 -0.0350  0.3259
18922TIP3    H178181   2.201   1.533  12.501  0.7228  0.5031 -0.4570
18922TIP3    H278182   2.247   1.678  12.498 -0.4302  0.9167  1.3398
18923TIP3   OH278183   2.953   6.368  15.928  0.5984  0.0062  0.8536
18923TIP3    H178184   2.907   6.432  15.875  1.0124  0.1492  0.6617
18923TIP3    H278185   2.995   6.310  15.864  1.1856  0.2411  1.0228
18924TIP3   OH278186   4.826   3.700   0.039  0.5809 -0.0305  0.0304
18924TIP3    H178187   4.826   3.774  -0.021 -0.7530 -0.3988 -0.4480
18924TIP3    H278188   4.830   3.623  -0.018 -0.9922 -0.3912  0.3919
18925TIP3   OH278189   5.884   0.499  13.262 -0.0433 -0.3982 -0.0351
18925TIP3    H178190   5.829   0.577  13.255  1.6727  1.0626  1.9229
18925TIP3    H278191   5.871   0.452  13.180 -1.5451  1.6844 -1.0145
18926TIP3   OH278192   0.829   3.143  13.934 -0.6946  0.1522  1.1095
18926TIP3    H178193   0.915   3.149  13.975  1.1877 -0.1032 -2.6379
18926TIP3    H278194   0.821   3.223  13.883 -0.8249 -1.6641 -1.8655
18927TIP3   OH278195   6.135   1.374  11.755  0.4106  0.3186 -0.1124
18927TIP3    H178196   6.135   1.290  11.711  0.1449  0.3420 -0.1573
18927TIP3    H278197   6.155   1.438  11.686 -0.9325  0.4496 -0.3813
18928TIP3   OH278198   1.115   0.066  16.328  0.5244 -0.2985  0.6451
18928TIP3    H178199   1.142   0.011  16.401 -0.1218 -1.0109  0.3497
18928TIP3    H278200   1.118   0.008  16.252  2.5112  0.7667 -0.1296
18929TIP3   OH278201   3.315   5.829   5.997  0.3558 -0.0122  0.0294
18929TIP3    H178202   3.376   5.763   5.963  1.0486  0.5404  0.1844
18929TIP3    H278203   3.365   5.911   5.995 -0.7919  0.6644 -0.9665
18930TIP3   OH278204   1.171   5.346   4.921 -0.0131 -0.7164 -0.0172
18930TIP3    H178205   1.221   5.275   4.881  0.5818 -0.3270  0.0334
18930TIP3    H278206   1.154   5.315   5.010  0.1819 -0.8237 -0.0173
18931TIP3   OH278207   4.841   1.651   3.941 -0.2592  0.5596 -0.2563
18931TIP3    H178208   4.925   1.681   3.976  0.7322 -1.1827 -1.1105
18931TIP3    H278209   4.825   1.568   3.986 -1.4461  0.7909 -0.2435
18932TIP3   OH278210   6.346   6.496  12.098  0.3545 -0.1950 -0.3722
18932TIP3    H178211   6.429   6.535  12.073 -0.2148  1.2561 -0.0407
18932TIP3    H278212   6.348   6.408  12.060  2.0124 -0.1496 -0.3924
18933TIP3   OH278213   3.666   3.123  13.807 -0.4887 -0.4691 -0.0717
18933TIP3    H178214   3.589   3.098  13.756  0.4268 -0.7833 -1.3452
18933TIP3    H278215   3.648   3.213  13.836 -1.4477 -0.6419 -0.1242
18934TIP3   OH278216   0.992   4.346   2.336 -0.5976  0.5487 -0.3268
18934TIP3    H178217   0.934   4.413   2.302 -0.8748  1.2555  1.4533
18934TIP3    H278218   1.031   4.385   2.414 -2.1280 -1.9410  1.7803
18935TIP3   OH278219   5.595   1.149  11.617 -0.3290 -0.1346  0.0388
18935TIP3    H178220   5.522   1.174  11.560  0.0649 -2.1050 -1.3896
18935TIP3    H278221   5.560   1.156  11.706 -1.5462  1.1280 -0.5102
18936TIP3   OH278222   0.637   0.463  10.790  0.1175 -0.7291 -0.3144
18936TIP3    H178223   0.668   0.546  10.827 -1.7649  0.0114 -0.3382
18936TIP3    H278224   0.707   0.400  10.809  2.1531  1.1218 -1.4030
18937TIP3   OH278225   4.757   2.926  16.807 -0.2757  0.0169  0.2003
18937TIP3    H178226   4.800   3.006  16.838  0.6407 -0.2793 -0.2873
18937TIP3    H278227   4.705   2.954  16.732  0.2006  0.1132 -0.0912
18938TIP3   OH278228   0.359   5.279   0.190 -0.0845  0.3371  0.0547
18938TIP3    H178229   0.412   5.202   0.168  0.9325  1.0894 -0.1365
18938TIP3    H278230   0.378   5.341   0.120 -0.1095  1.1621  0.7844
18939TIP3   OH278231   6.676   6.543  13.943  0.4825  0.5476  0.1638
18939TIP3    H178232   6.652   6.477  13.878 -0.8792  0.9638  0.2161
18939TIP3    H278233   6.713   6.614  13.891  2.0229 -0.2819  0.1126
18940TIP3   OH278234   0.449   1.049   3.016 -0.0170  0.7907 -0.0074
18940TIP3    H178235   0.424   1.141   3.021 -0.6718  0.7644 -2.3479
18940TIP3    H278236   0.507   1.044   2.940  0.6390 -0.6144  0.5567
18941TIP3   OH278237   0.395   5.173  12.074  0.2821 -0.4803  0.0527
18941TIP3    H178238   0.374   5.204  12.162 -2.0013  0.0319 -0.6495
18941TIP3    H278239   0.356   5.086  12.069  0.8034 -0.6983 -0.3058
18942TIP3   OH278240   5.094   5.079  16.913 -0.8454 -0.2530 -0.0883
18942TIP3    H178241   5.048   5.053  16.993 -1.9940 -0.3961 -0.7858
18942TIP3    H278242   5.058   5.165  16.891  0.7785  0.6090  0.5376
18943TIP3   OH278243   3.432   2.424  14.054  0.7659 -0.8276 -0.3389
18943TIP3    H178244   3.472   2.463  13.977  0.5978 -1.5810 -0.8181
18943TIP3    H278245   3.505   2.397  14.109  0.9330 -2.4046 -1.3116
18944TIP3   OH278246   3.464   4.108   0.836  0.4695  0.5140  0.0064
18944TIP3    H178247   3.470   4.187   0.890  1.1946 -0.7453  1.7876
18944TIP3    H278248   3.532   4.120   0.769  1.0054  1.0925  0.6502
18945TIP3   OH278249   3.050   0.414  17.156 -0.7574 -0.3146 -0.5049
18945TIP3    H178250   3.095   0.394  17.238 -0.8505  2.1704  0.1840
18945TIP3    H278251   3.115   0.394  17.088  0.0983 -0.2548  0.2867
18946TIP3   OH278252   4.588   3.617   2.063  0.3972  0.6692  0.4518
18946TIP3    H178253   4.591   3.681   2.134  1.5137  0.2384  0.8068
18946TIP3    H278254   4.624   3.664   1.987 -2.2501  1.6300 -0.2612
18947TIP3   OH278255   0.939   2.174  12.758  0.0277  0.4647  0.0575
18947TIP3    H178256   0.975   2.254  12.798 -0.4522  0.1021  1.2260
18947TIP3    H278257   0.983   2.103  12.803 -0.0157  0.0548 -0.5454
18948TIP3   OH278258   1.818   6.756   2.637 -0.4903  0.2420  0.1407
18948TIP3    H178259   1.772   6.752   2.720 -0.8232 -2.2648 -0.1123
18948TIP3    H278260   1.886   6.689   2.644  0.9975  1.6160 -0.7450
18949TIP3   OH278261   4.381   6.294  14.830 -0.2221 -0.2689  0.4823
18949TIP3    H178262   4.329   6.359  14.878 -0.8165 -0.2099 -0.2308
18949TIP3    H278263   4.316   6.233  14.795  0.0851  0.4793 -1.4282
18950TIP3   OH278264   2.629   5.097  13.856 -0.6390 -0.4524 -0.1070
18950TIP3    H178265   2.593   5.009  13.865  2.1531 -1.7862 -1.3797
18950TIP3    H278266   2.672   5.114  13.940  0.3942 -1.0685 -0.5026
18951TIP3   OH278267   3.893   3.291  13.696 -0.1201 -0.0449  0.2807
18951TIP3    H178268   3.811   3.268  13.739  0.5833 -1.1397  1.0886
18951TIP3    H278269   3.886   3.384  13.678 -1.4434 -0.0831  0.5427
18952TIP3   OH278270   5.649   0.574   1.545 -0.6896  0.6209  0.7166
18952TIP3    H178271   5.711   0.569   1.617  0.6958  2.7818 -0.2566
18952TIP3    H278272   5.660   0.663   1.509 -2.7365  0.2869 -0.9070
18953TIP3   OH278273   2.634   4.936  12.781  0.1542 -0.1879 -0.1361
18953TIP3    H178274   2.593   4.871  12.838  0.0086 -1.6282 -1.8254
18953TIP3    H278275   2.562   4.993  12.754 -0.6464 -2.1897 -2.3984
18954TIP3   OH278276   3.368   5.489  15.568  0.2141 -0.0592 -0.3057
18954TIP3    H178277   3.303   5.471  15.502 -0.5528 -1.4356  0.8078
18954TIP3    H278278   3.380   5.406  15.615  1.5773  0.5811  0.5325
18955TIP3   OH278279   5.614   4.552   0.358 -0.0263 -0.1586 -0.5607
18955TIP3    H178280   5.526   4.582   0.338 -0.4177 -0.3952  0.7753
18955TIP3    H278281   5.603   4.462   0.388  0.6457 -0.1354 -0.2184
18956TIP3   OH278282   0.379   4.536  14.590 -0.5680  0.7376 -0.0815
18956TIP3    H178283   0.404   4.628  14.599  3.0148 -0.3346  1.8483
18956TIP3    H278284   0.383   4.501  14.679 -0.0820 -1.7269 -1.0311
18957TIP3   OH278285   1.638   1.705   4.578 -0.2761  0.6373  0.3171
18957TIP3    H178286   1.655   1.703   4.484  0.6853 -0.5918  0.4968
18957TIP3    H278287   1.603   1.792   4.595 -1.2619  0.5789 -1.3123
18958TIP3   OH278288   1.543   6.521  10.733  0.5110 -0.3917 -0.0915
18958TIP3    H178289   1.534   6.604  10.686  2.9652 -1.0229 -1.7950
18958TIP3    H278290   1.456   6.505  10.770 -0.6870  1.6428 -1.8799
18959TIP3   OH278291   5.229   2.090   3.651  0.1772 -0.0391  0.3583
18959TIP3    H178292   5.286   2.033   3.599 -0.1044 -0.8315  0.9103
18959TIP3    H278293   5.289   2.146   3.700  0.5268 -1.8533  2.0462
18960TIP3   OH278294   1.053   3.676   3.897 -0.1546  0.1057 -0.6394
18960TIP3    H178295   0.987   3.691   3.965 -1.1873 -1.3674 -1.3102
18960TIP3    H278296   1.108   3.755   3.900 -0.4345  0.2625  1.6069
18961TIP3   OH278297   1.281   5.304  14.825  0.1938 -0.2345 -0.0045
18961TIP3    H178298   1.369   5.313  14.787  0.7658  0.1275  1.3925
18961TIP3    H278299   1.226   5.361  14.771  0.9549  0.1084 -0.4319
18962TIP3   OH278300   2.508   0.818  14.980  0.4719 -0.3318 -0.4660
18962TIP3    H178301   2.570   0.763  14.932  0.5320 -1.8145  1.2776
18962TIP3    H278302   2.535   0.812  15.071 -0.9651  0.7227  0.0519
18963TIP3   OH278303   0.352   3.843   3.956 -0.1391  0.5646  0.2150
18963TIP3    H178304   0.447   3.838   3.969 -0.2617 -0.9222  0.6313
18963TIP3    H278305   0.339   3.814   3.865 -0.1824  0.9263  0.1050
18964TIP3   OH278306   0.501   2.716   1.166  0.4159 -0.1601  0.0822
18964TIP3    H178307   0.422   2.748   1.121 -0.1591 -1.2497  0.2904
18964TIP3    H278308   0.559   2.792   1.168 -1.0598  0.9906  0.9129
18965TIP3   OH278309   2.409   1.953   4.753  0.0884 -0.0217  0.3467
18965TIP3    H178310   2.348   1.879   4.758 -0.0379  0.1957  2.5129
18965TIP3    H278311   2.422   1.979   4.844  1.7803  1.2904 -0.2499
18966TIP3   OH278312   3.449   1.278   1.706  0.0551  0.3074 -0.5201
18966TIP3    H178313   3.492   1.197   1.732 -2.4601 -1.1409 -0.6570
18966TIP3    H278314   3.393   1.301   1.780 -0.6664  0.8769 -1.2247
18967TIP3   OH278315   6.017   2.398  11.562  0.8423  0.0754 -0.3149
18967TIP3    H178316   6.098   2.350  11.542  0.3227 -1.1245  0.4165
18967TIP3    H278317   5.959   2.332  11.601 -0.8797  0.6775 -1.8149
18968TIP3   OH278318   0.865   0.951  11.045 -0.5363 -0.4104 -0.1135
18968TIP3    H178319   0.855   0.956  10.950  1.5981  0.2812 -0.3106
18968TIP3    H278320   0.918   1.027  11.068 -0.0753 -1.2007  1.4899
18969TIP3   OH278321   5.708   3.507   6.070  0.4850  0.5916  0.5256
18969TIP3    H178322   5.768   3.578   6.093 -0.2328  0.8150  1.7399
18969TIP3    H278323   5.635   3.517   6.131 -0.2007 -0.4355 -0.1241
18970TIP3   OH278324   3.710   6.774   5.307 -0.6371 -0.3952  0.0950
18970TIP3    H178325   3.726   6.859   5.267  1.1573 -1.4951 -1.6090
18970TIP3    H278326   3.703   6.792   5.401  1.7966  1.3634 -0.0258
18971TIP3   OH278327   4.246   6.716   2.560 -0.5678  0.1500  0.2582
18971TIP3    H178328   4.151   6.717   2.572 -0.2406  0.3301  3.3586
18971TIP3    H278329   4.273   6.628   2.585  0.0982  0.1143 -0.5627
18972TIP3   OH278330   0.855   6.362  10.933 -0.2321  0.0483 -0.1271
18972TIP3    H178331   0.848   6.443  10.881 -0.8247 -0.6711 -1.1839
18972TIP3    H278332   0.949   6.341  10.931 -0.0548  0.7713  0.2613
18973TIP3   OH278333   5.010   5.019  11.184 -0.1879  0.3207 -0.4944
18973TIP3    H178334   5.087   4.964  11.201  0.1776  0.8409 -0.4332
18973TIP3    H278335   5.013   5.036  11.089  1.4924  2.8156 -0.0550
18974TIP3   OH278336   1.240   1.815  12.754  0.5114  0.4456 -0.6274
18974TIP3    H178337   1.190   1.886  12.793 -0.2879 -0.2529 -0.3736
18974TIP3    H278338   1.268   1.849  12.669 -0.3227  0.8582 -0.7347
18975TIP3   OH278339   1.616   0.249   4.712 -0.6170  0.6015  0.1697
18975TIP3    H178340   1.630   0.300   4.632 -3.0995 -0.2446 -0.8464
18975TIP3    H278341   1.651   0.162   4.691  0.5445  0.9314  0.7163
18976TIP3   OH278342   0.996   6.149  14.523 -0.3871 -0.3107  0.1028
18976TIP3    H178343   1.057   6.098  14.469  0.4944  0.8038  0.0169
18976TIP3    H278344   0.926   6.173  14.462  0.1910  0.2486 -0.3477
18977TIP3   OH278345   0.007   1.272   1.575  0.7806 -0.2423 -0.1559
18977TIP3    H178346  -0.078   1.231   1.594 -0.0919  1.2925 -0.5895
18977TIP3    H278347   0.038   1.301   1.660  0.3283  0.1805 -0.1298
18978TIP3   OH278348   3.788   4.028   2.166  0.1331 -0.7376 -0.2722
18978TIP3    H178349   3.726   4.044   2.095  1.8822  0.3016 -1.6030
18978TIP3    H278350   3.848   4.103   2.163 -0.3917 -0.0945  3.0136
18979TIP3   OH278351   0.216   4.209   2.351 -0.1101 -0.4605 -0.4198
18979TIP3    H178352   0.250   4.122   2.370  2.2461  0.9136  2.0109
18979TIP3    H278353   0.213   4.253   2.436 -3.2388  1.1856 -1.2867
18980TIP3   OH278354   3.906   0.436   3.767  0.2860  0.8962 -0.4002
18980TIP3    H178355   3.915   0.392   3.683  2.4560  0.8762 -0.2036
18980TIP3    H278356   3.918   0.367   3.833 -0.5619  1.0480 -0.0860
18981TIP3   OH278357   2.194   2.866  16.996  0.0031  0.0227 -0.4076
18981TIP3    H178358   2.262   2.887  16.932 -0.3629  0.2866 -0.7119
18981TIP3    H278359   2.112   2.873  16.947 -0.2236 -0.5982 -0.1206
18982TIP3   OH278360   0.413   3.383   4.159 -0.0065 -0.1681 -0.0507
18982TIP3    H178361   0.402   3.369   4.065 -2.1394  0.7617  0.0259
18982TIP3    H278362   0.367   3.310   4.200 -0.5295  0.3384  0.2701
18983TIP3   OH278363   4.209   1.539   3.703 -0.0544  0.0499 -0.1769
18983TIP3    H178364   4.264   1.462   3.717 -2.1120 -1.6596 -1.2471
18983TIP3    H278365   4.270   1.612   3.706  1.9539 -1.6078  0.8484
18984TIP3   OH278366   2.008   3.975   0.715  0.5313 -0.3843 -0.0867
18984TIP3    H178367   1.973   3.885   0.717  1.7754 -0.9297 -1.7807
18984TIP3    H278368   2.102   3.964   0.709  0.5227  0.9901 -3.4370
18985TIP3   OH278369   1.785   2.683  16.711  0.3787  0.3887  0.3556
18985TIP3    H178370   1.858   2.712  16.656 -1.3597  2.3502 -0.9720
18985TIP3    H278371   1.783   2.588  16.699  1.2751  0.5763 -1.4325
18986TIP3   OH278372   3.000   5.689  13.080  0.1260 -0.5280  0.1888
18986TIP3    H178373   3.055   5.725  13.011 -0.0643 -0.1655  0.2285
18986TIP3    H278374   3.062   5.646  13.140  0.1867 -2.0052 -0.8967
18987TIP3   OH278375   5.546   0.377  14.277 -0.8220 -0.3516 -0.2591
18987TIP3    H178376   5.456   0.356  14.302 -0.6473 -0.7247  0.0725
18987TIP3    H278377   5.539   0.461  14.232 -1.1499  0.3288  1.0258
18988TIP3   OH278378   0.481   3.777  13.060 -0.2011  0.6530  0.1891
18988TIP3    H178379   0.388   3.797  13.072 -0.4270 -0.9158  1.2150
18988TIP3    H278380   0.505   3.728  13.139  1.2012  0.0248 -0.6120
18989TIP3   OH278381   2.221   2.323  11.316  0.0767 -0.1294  0.5395
18989TIP3    H178382   2.272   2.283  11.387  0.6896 -0.5246 -0.1243
18989TIP3    H278383   2.255   2.284  11.236 -0.2745  0.6906 -0.0205
18990TIP3   OH278384   0.863   4.751  15.836 -0.5354 -0.0073  0.0327
18990TIP3    H178385   0.809   4.742  15.757 -1.1948  1.7042  0.2750
18990TIP3    H278386   0.907   4.667  15.844 -0.7073 -0.3162 -1.9919
18991TIP3   OH278387   1.147   2.393   5.530 -0.2557  0.2209 -0.0153
18991TIP3    H178388   1.079   2.397   5.464 -1.9719  0.0231  1.6878
18991TIP3    H278389   1.120   2.323   5.589  1.7302 -0.2615  0.3875
18992TIP3   OH278390   5.169   2.035   5.237 -0.0790 -0.0942  0.2176
18992TIP3    H178391   5.220   2.101   5.189 -0.0514 -0.0818  0.2635
18992TIP3    H278392   5.182   2.059   5.329  1.2070 -1.0896  0.3196
18993TIP3   OH278393   0.957   0.578   4.591  0.0856 -0.1692 -0.3938
18993TIP3    H178394   1.047   0.563   4.561  0.5451 -1.7967  1.7180
18993TIP3    H278395   0.944   0.672   4.579  1.8805  0.0070 -1.1968
18994TIP3   OH278396   5.974   5.728   4.973 -0.4514  0.1755 -0.5273
18994TIP3    H178397   5.998   5.818   4.950 -0.3247  0.6259  1.2853
18994TIP3    H278398   5.878   5.728   4.970 -0.5222  0.8319  1.0381
18995TIP3   OH278399   4.574   6.457   2.442 -0.3090 -0.8150 -1.0266
18995TIP3    H178400   4.575   6.509   2.362  0.5906  2.5124  1.0295
18995TIP3    H278401   4.481   6.441   2.460 -0.6963  1.1437 -1.1183
18996TIP3   OH278402   1.347   2.086   5.733 -0.5741 -0.0363 -0.1331
18996TIP3    H178403   1.397   2.147   5.679 -1.9727  1.1500 -0.1294
18996TIP3    H278404   1.385   2.095   5.821 -0.2538  0.2316 -0.2999
18997TIP3   OH278405   3.955   0.780   2.833 -0.0991  0.4299  0.1029
18997TIP3    H178406   3.874   0.779   2.884  0.4832  1.3900  1.0802
18997TIP3    H278407   3.938   0.837   2.759 -0.7573 -0.4816 -0.4534
18998TIP3   OH278408   6.767   6.725   4.083  0.1214 -0.0788  0.5133
18998TIP3    H178409   6.716   6.656   4.125 -1.7868  1.7921  1.3138
18998TIP3    H278410   6.818   6.764   4.153  1.9363 -1.2596 -0.1056
18999TIP3   OH278411   3.566   3.569  13.674 -0.3876 -0.0820  0.3742
18999TIP3    H178412   3.636   3.635  13.678  0.8547 -1.3664  0.2526
18999TIP3    H278413   3.496   3.612  13.625  0.4490  1.1059  0.1898
19000TIP3   OH278414   0.197   1.437  14.735 -0.1287 -0.3865  0.2140
19000TIP3    H178415   0.243   1.430  14.819 -0.3045  0.1253  0.3555
19000TIP3    H278416   0.262   1.409  14.671  0.6849  1.1321  0.3268
19001TIP3   OH278417   2.504   4.080   3.575  0.4250  0.2709  0.1406
19001TIP3    H178418   2.514   4.018   3.648 -2.6049  1.2545  1.4923
19001TIP3    H278419   2.470   4.028   3.503 -1.9341  0.2420  1.2171
19002TIP3   OH278420   3.663   2.204   4.035  0.3126  0.7194 -0.0216
19002TIP3    H178421   3.631   2.115   4.019  1.9363 -0.2737  2.0400
19002TIP3    H278422   3.584   2.258   4.037 -0.9936 -1.1886  2.0028
19003TIP3   OH278423   5.472   1.309  13.469 -0.2203  0.3037  0.1303
19003TIP3    H178424   5.512   1.322  13.555 -0.8451 -0.3248  0.5299
19003TIP3    H278425   5.382   1.283  13.488  0.0594 -1.3341 -0.6678
19004TIP3   OH278426   2.949   5.515  14.321  0.6503  0.0239 -0.4979
19004TIP3    H178427   2.940   5.611  14.321  1.7543  0.1377  0.3045
19004TIP3    H278428   2.901   5.487  14.243  0.2716  1.2255 -0.7160
19005TIP3   OH278429   2.914   3.096  12.961 -0.0281 -0.3651 -0.4547
19005TIP3    H178430   2.830   3.100  13.007  1.0654  2.1805  1.4616
19005TIP3    H278431   2.896   3.132  12.874 -0.9177  0.1303 -0.0742
19006TIP3   OH278432   1.981   6.188  16.033 -0.1403  0.3425  0.3708
19006TIP3    H178433   2.038   6.242  15.978  0.3580 -0.4375  0.1226
19006TIP3    H278434   2.031   6.171  16.112 -0.3470  0.3507  0.5054
19007TIP3   OH278435   3.354   2.143   3.659 -0.3876 -0.1198 -0.1693
19007TIP3    H178436   3.316   2.146   3.747  2.6678 -1.9036  1.2835
19007TIP3    H278437   3.401   2.060   3.656  0.1747  0.2604 -3.2382
19008TIP3   OH278438   0.338   6.193  15.250 -0.5505 -0.0784  0.6369
19008TIP3    H178439   0.254   6.194  15.296 -0.5268 -2.9253  0.8418
19008TIP3    H278440   0.402   6.164  15.316 -0.0621 -1.5152 -0.4147
19009TIP3   OH278441   0.991   5.353   0.582  0.5508  0.3782 -0.5612
19009TIP3    H178442   1.027   5.424   0.635  1.1521  1.4054 -2.3019
19009TIP3    H278443   0.899   5.378   0.568  0.4772  0.2659 -0.2902
19010TIP3   OH278444   2.194   0.707   4.769 -0.1015  0.0593  0.2197
19010TIP3    H178445   2.224   0.780   4.715  1.5372 -0.7039  0.0541
19010TIP3    H278446   2.210   0.630   4.715 -2.3362 -0.3883  0.1681
19011TIP3   OH278447   2.742   1.968   3.470  0.6247 -0.4042 -0.4684
19011TIP3    H178448   2.827   2.008   3.455  0.7205 -0.8560 -1.1501
19011TIP3    H278449   2.760   1.874   3.478  0.4847 -0.2522  1.8198
19012TIP3   OH278450   5.292   5.788   1.849 -0.1029  0.0949  0.9419
19012TIP3    H178451   5.275   5.817   1.759  0.7801 -0.9170  0.4305
19012TIP3    H278452   5.228   5.835   1.902 -1.0312  0.2501 -0.2915
19013TIP3   OH278453   2.270   1.650   4.087 -0.4006  0.5907 -0.6939
19013TIP3    H178454   2.230   1.563   4.094 -0.4678  0.6053 -0.9068
19013TIP3    H278455   2.363   1.631   4.071 -0.2246  0.5577  0.3542
19014TIP3   OH278456   3.541   4.930   2.948  0.2169 -0.6032  0.4986
19014TIP3    H178457   3.446   4.933   2.947  0.1833 -1.3267  0.8937
19014TIP3    H278458   3.569   5.006   2.897 -0.5789 -2.4378 -2.7666
19015TIP3   OH278459   1.092   5.941  15.800 -0.0836 -0.6770  0.9763
19015TIP3    H178460   1.005   5.977  15.783  0.6001  0.6180  0.1070
19015TIP3    H278461   1.126   5.918  15.714  0.6006 -0.7819  1.2671
19016TIP3   OH278462   5.219   2.323   4.720 -0.2475  0.1704 -0.5138
19016TIP3    H178463   5.298   2.364   4.684  0.0806 -0.3668 -0.4073
19016TIP3    H278464   5.219   2.235   4.682  0.3447 -0.5568  1.1495
19017TIP3   OH278465   3.008   6.086   3.002 -0.3219 -0.2202 -0.3824
19017TIP3    H178466   3.078   6.027   2.974 -0.2897 -1.2174  1.7095
19017TIP3    H278467   2.930   6.030   3.007  0.0738 -0.5718  3.3229
19018TIP3   OH278468   5.612   1.733   4.979  0.3200 -0.0949  0.0997
19018TIP3    H178469   5.606   1.646   5.017  1.1629  0.4684  1.5968
19018TIP3    H278470   5.525   1.751   4.945 -0.3443 -0.8089  1.3781
19019TIP3   OH278471   3.674   6.068  16.996 -0.1793  0.4539 -0.3242
19019TIP3    H178472   3.665   5.975  16.972  1.3051  0.2441 -0.1472
19019TIP3    H278473   3.587   6.104  16.985  0.2606  0.2626 -5.6052
19020TIP3   OH278474   3.575   5.102   1.834  0.4240 -0.2375  0.1325
19020TIP3    H178475   3.552   5.018   1.874  1.0647 -0.1566  0.6790
19020TIP3    H278476   3.497   5.157   1.846  0.3318 -0.4645  0.5620
19021TIP3   OH278477   4.098   5.265  16.629  0.3022  0.3204 -0.3499
19021TIP3    H178478   4.019   5.298  16.587 -0.3509 -0.1035  0.5209
19021TIP3    H278479   4.170   5.306  16.582 -0.4797  2.3228  0.1680
19022TIP3   OH278480   1.111   5.712  10.802 -0.2254  0.1436  0.1107
19022TIP3    H178481   1.022   5.742  10.819 -0.0703  0.1735  0.8944
19022TIP3    H278482   1.167   5.768  10.857  0.2541 -0.0404 -0.1818
19023TIP3   OH278483   3.308   6.781   4.158  0.3242  0.0590  0.2330
19023TIP3    H178484   3.311   6.848   4.090 -0.9594  0.3783  0.4757
19023TIP3    H278485   3.226   6.734   4.143  0.9553 -1.1113  0.3953
19024TIP3   OH278486   5.183   6.178  11.111 -0.4349  0.2730  0.1686
19024TIP3    H178487   5.183   6.236  11.187  1.5023  0.9494 -0.3170
19024TIP3    H278488   5.119   6.218  11.051  0.6628  1.7580 -0.0354
19025TIP3   OH278489   2.844   5.365  15.073  0.1489 -1.0006 -0.4276
19025TIP3    H178490   2.767   5.313  15.090  0.2076 -1.2308 -0.8457
19025TIP3    H278491   2.876   5.392  15.159 -1.7124  1.0248 -0.3250
19026TIP3   OH278492   1.908   3.817   3.350 -0.4642 -0.5915  0.1643
19026TIP3    H178493   1.871   3.900   3.378  1.5858  0.5475 -0.3727
19026TIP3    H278494   2.000   3.837   3.330 -0.4258 -2.5613 -1.8640
19027TIP3   OH278495   6.704   3.276  14.173  0.6272  0.4439  0.2600
19027TIP3    H178496   6.678   3.243  14.259  2.4854  2.0279  1.4863
19027TIP3    H278497   6.630   3.329  14.143 -0.5238 -1.1174  0.3062
19028TIP3   OH278498   2.418   2.529  11.592  0.2194  0.4631 -0.2561
19028TIP3    H178499   2.415   2.434  11.599 -0.8879  0.4440 -0.8944
19028TIP3    H278500   2.345   2.551  11.534  0.7715  1.6590 -0.5043
19029TIP3   OH278501   4.917   0.893   4.546 -0.3793  0.1568 -0.0422
19029TIP3    H178502   4.967   0.926   4.621  1.3810  0.6496 -1.3971
19029TIP3    H278503   4.827   0.920   4.563  0.2187  1.3811  1.2863
19030TIP3   OH278504   3.844   0.306  12.224  0.2902 -0.1709  0.9062
19030TIP3    H178505   3.903   0.381  12.237  0.9976 -0.6358  0.4232
19030TIP3    H278506   3.758   0.346  12.211  0.8890  0.6560 -0.7881
19031TIP3   OH278507   4.944   4.057   0.769  0.0766 -0.1255 -0.0890
19031TIP3    H178508   4.994   3.976   0.779  2.0127  1.0132 -0.3485
19031TIP3    H278509   4.917   4.058   0.678  0.1102 -0.4373 -0.1028
19032TIP3   OH278510   4.012   1.903  13.757 -0.3664 -0.0377 -0.2571
19032TIP3    H178511   3.919   1.892  13.738 -0.3827 -0.0672 -0.1598
19032TIP3    H278512   4.015   1.974  13.821 -0.4390 -1.1134  0.9555
19033TIP3   OH278513   2.546   2.978  16.454 -0.8272 -0.0503  0.0466
19033TIP3    H178514   2.523   2.964  16.362 -0.4105  0.1431 -0.0863
19033TIP3    H278515   2.546   2.890  16.492 -2.1190 -0.0241  0.1403
19034TIP3   OH278516   6.294   5.227   1.328 -0.3419 -0.3399 -0.2564
19034TIP3    H178517   6.224   5.184   1.278 -0.6067 -0.1850 -0.0195
19034TIP3    H278518   6.319   5.163   1.395  0.3309 -0.7281 -0.8744
19035TIP3   OH278519   4.937   4.518  13.504 -0.1796 -0.9283 -0.1625
19035TIP3    H178520   4.882   4.452  13.546 -2.4112  0.6534 -0.4772
19035TIP3    H278521   4.965   4.575  13.576 -5.1394  2.5973 -0.7636
19036TIP3   OH278522   0.767   3.681  10.989 -0.0051  0.2837  0.3696
19036TIP3    H178523   0.811   3.629  11.057  0.0229  0.5219  0.5347
19036TIP3    H278524   0.674   3.679  11.015  0.3073  2.4149  1.8031
19037TIP3   OH278525   0.841   3.367  15.219 -0.4594 -0.1804 -0.2662
19037TIP3    H178526   0.913   3.403  15.271  0.3596 -0.5475 -1.1131
19037TIP3    H278527   0.820   3.284  15.260 -1.1200  0.4174  0.6149
19038TIP3   OH278528   3.699   3.983  14.565  0.0445  0.4939 -0.4466
19038TIP3    H178529   3.691   4.042  14.490  0.4154  2.8884  1.3317
19038TIP3    H278530   3.613   3.985  14.607  0.2624  0.3366  0.0132
19039TIP3   OH278531   0.026   4.609   4.066  0.8432 -0.7809 -0.4496
19039TIP3    H178532   0.021   4.672   4.138 -3.1211 -0.5524 -0.7919
19039TIP3    H278533   0.077   4.654   3.999 -0.4740  1.4355 -0.0380
19040TIP3   OH278534   1.406   0.274  17.051  0.2515  0.2928  0.2020
19040TIP3    H178535   1.332   0.242  16.999 -3.2452 -0.2611  5.1198
19040TIP3    H278536   1.376   0.357  17.087  2.2158  0.3037  1.9345
19041TIP3   OH278537   3.245   4.545  15.016 -0.1581 -0.2417 -0.4301
19041TIP3    H178538   3.225   4.452  15.004 -0.1771 -0.4325  1.0105
19041TIP3    H278539   3.178   4.575  15.078  0.8037  0.3664  0.3157
19042TIP3   OH278540   2.997   6.214  12.088  0.1923 -0.2409 -0.1465
19042TIP3    H178541   3.037   6.249  12.168  1.5194 -0.7253 -0.5705
19042TIP3    H278542   2.997   6.288  12.028  0.8431 -0.3381 -0.2750
19043TIP3   OH278543   2.807   4.013   6.053 -0.0101 -0.0706  0.2084
19043TIP3    H178544   2.851   4.029   5.970 -2.4971  0.1638 -1.1064
19043TIP3    H278545   2.862   4.057   6.118  1.9412 -0.2271 -1.2801
19044TIP3   OH278546   5.858   3.903  16.723  0.0505 -0.1976 -0.3937
19044TIP3    H178547   5.906   3.955  16.658  0.1592  0.7889  0.4474
19044TIP3    H278548   5.773   3.947  16.731  0.0117 -0.3503  0.0768
19045TIP3   OH278549   6.481   4.841  16.769  0.5600 -0.1492  0.3107
19045TIP3    H178550   6.576   4.849  16.760  0.4281  2.6698  0.8406
19045TIP3    H278551   6.445   4.886  16.692 -0.3404  0.2413  0.9391
19046TIP3   OH278552   1.948   0.132  14.967  0.2584  0.3027 -0.0054
19046TIP3    H178553   1.878   0.122  14.902  0.3306  1.2655 -0.2452
19046TIP3    H278554   2.000   0.206  14.934  1.4200 -0.4372  0.1355
19047TIP3   OH278555   6.779   3.756   2.351 -0.0667  0.9089 -0.6376
19047TIP3    H178556   6.728   3.745   2.270 -0.4173 -1.5054 -0.1501
19047TIP3    H278557   6.832   3.676   2.356  0.7533  1.5450  0.9513
19048TIP3   OH278558   3.757   0.515   4.088  0.3065 -0.2051 -0.6007
19048TIP3    H178559   3.719   0.576   4.025 -1.9735  0.5039  1.3967
19048TIP3    H278560   3.705   0.435   4.077  0.2596 -0.2582  0.0055
19049TIP3   OH278561   6.123   4.197  11.445  0.1538 -0.3936 -0.0263
19049TIP3    H178562   6.082   4.125  11.398 -1.1811 -1.2034  2.2752
19049TIP3    H278563   6.089   4.276  11.402 -2.7309 -1.0734  0.8917
19050TIP3   OH278564   0.256   3.805   3.696  0.6150  0.5625  0.0550
19050TIP3    H178565   0.318   3.847   3.635 -0.7133 -0.8493 -2.3563
19050TIP3    H278566   0.220   3.732   3.646 -2.4803  0.9421  1.6426
19051TIP3   OH278567   5.706   0.099   2.594 -0.2030  0.4193  0.5029
19051TIP3    H178568   5.781   0.042   2.612 -0.8439 -0.7086 -0.2354
19051TIP3    H278569   5.631   0.040   2.600 -0.9022  1.2520 -0.0398
19052TIP3   OH278570   6.602   0.948   3.175 -0.1329 -0.0357 -0.2978
19052TIP3    H178571   6.687   0.920   3.142 -1.4945 -0.7984 -3.3197
19052TIP3    H278572   6.545   0.872   3.165 -1.5201  0.8777  0.3762
19053TIP3   OH278573   1.062   6.573   4.125 -0.1549 -0.6729 -0.2072
19053TIP3    H178574   1.014   6.563   4.043 -0.9410  1.7348 -0.0776
19053TIP3    H278575   1.031   6.656   4.161  2.1327 -0.3962  1.2272
19054TIP3   OH278576   3.635   3.227  15.387  0.3805 -0.2546 -0.5087
19054TIP3    H178577   3.602   3.137  15.385  2.1370 -0.9494  0.9186
19054TIP3    H278578   3.641   3.252  15.294 -0.3402 -1.5145 -0.9078
19055TIP3   OH278579   2.121   0.909  16.334  0.2766  0.4665 -0.4350
19055TIP3    H178580   2.155   0.839  16.390  1.4099  1.2150 -0.1621
19055TIP3    H278581   2.059   0.865  16.276 -0.3216 -0.4566  0.8699
19056TIP3   OH278582   0.496   2.210   4.849 -0.1643  0.5290  0.2857
19056TIP3    H178583   0.585   2.236   4.823  1.2129 -1.8287  2.4350
19056TIP3    H278584   0.481   2.256   4.932  0.4344 -1.7132  1.6758
19057TIP3   OH278585   1.283   3.554   6.580  0.2393 -0.5068 -0.1755
19057TIP3    H178586   1.258   3.645   6.597 -0.7774 -1.1364  1.9178
19057TIP3    H278587   1.376   3.558   6.556  0.2472  1.0678  0.0776
19058TIP3   OH278588   2.232   6.005  16.591  0.8516 -0.1902 -0.1431
19058TIP3    H178589   2.327   6.018  16.592  0.8032  0.2002 -0.3869
19058TIP3    H278590   2.196   6.090  16.616  0.5942 -0.7510  1.4490
19059TIP3   OH278591   1.349   6.177  13.265  0.3439  0.2631  0.1756
19059TIP3    H178592   1.297   6.252  13.294 -1.5459 -0.1217 -2.0855
19059TIP3    H278593   1.293   6.101  13.284  0.3636 -0.2129 -1.6470
19060TIP3   OH278594   5.096   1.279  11.123  0.1607  0.1278  0.0089
19060TIP3    H178595   5.098   1.306  11.215  1.2000 -1.0237  0.3366
19060TIP3    H278596   5.188   1.275  11.098 -0.0619 -1.1888 -0.6020
19061TIP3   OH278597   5.605   5.961   4.511  0.7629  0.1582  0.2607
19061TIP3    H178598   5.537   5.982   4.576  0.9338 -0.1206  0.5275
19061TIP3    H278599   5.566   5.891   4.458 -0.1208  1.6374 -1.1258
19062TIP3   OH278600   5.087   1.431  14.266  0.0941  0.5181 -0.2968
19062TIP3    H178601   5.010   1.377  14.246 -0.7434  1.2515  0.8382
19062TIP3    H278602   5.153   1.368  14.294  0.0025 -0.1511 -1.5407
19063TIP3   OH278603   0.501   1.349  13.173  0.3969 -0.2300 -0.1765
19063TIP3    H178604   0.500   1.412  13.246 -2.0247 -1.8949  1.3030
19063TIP3    H278605   0.409   1.324  13.162  1.3378 -3.9156 -0.3334
19064TIP3   OH278606   4.164   3.645  15.798  0.6548  0.3129  0.1564
19064TIP3    H178607   4.246   3.660  15.845  0.6057 -0.0889  0.3687
19064TIP3    H278608   4.112   3.591  15.857  1.4700 -2.1443 -1.2838
19065TIP3   OH278609   4.707   3.826   6.476  0.0488  0.1238 -0.2487
19065TIP3    H178610   4.787   3.880   6.477 -0.7672  1.3576 -0.8871
19065TIP3    H278611   4.677   3.827   6.567 -0.3918  1.4030 -0.3992
19066TIP3   OH278612   1.238   0.984   3.832 -0.0555 -0.3505  0.0662
19066TIP3    H178613   1.297   0.970   3.906  0.4300 -2.4847 -0.6973
19066TIP3    H278614   1.295   1.001   3.758 -0.3592 -2.0720 -0.6013
19067TIP3   OH278615   0.107   0.336  16.878 -0.0696 -0.1900  0.2062
19067TIP3    H178616   0.064   0.251  16.887 -1.0753  0.3369  0.3743
19067TIP3    H278617   0.191   0.325  16.923  0.4489 -1.5431 -1.0716
19068TIP3   OH278618   5.932   5.975  16.955 -0.0791  0.2156  0.3124
19068TIP3    H178619   5.951   5.963  17.048  0.4856 -1.3408  0.0149
19068TIP3    H278620   5.845   5.938  16.943 -0.1704  0.4561  0.2260
19069TIP3   OH278621   0.314   4.850   3.437 -0.5304  0.1684 -0.3297
19069TIP3    H178622   0.340   4.810   3.520 -0.6575 -0.2588 -0.4963
19069TIP3    H278623   0.380   4.821   3.375 -0.7923 -0.0317 -0.5158
19070TIP3   OH278624   5.117   3.697  14.681 -0.0968  0.0075  0.1745
19070TIP3    H178625   5.114   3.619  14.626  0.2624 -0.1295  0.3485
19070TIP3    H278626   5.148   3.666  14.766  1.0106  0.5073 -0.0486
19071TIP3   OH278627   5.741   3.403  11.314 -0.1627 -0.2344  0.5436
19071TIP3    H178628   5.792   3.483  11.303 -1.1267  0.8643  3.5252
19071TIP3    H278629   5.652   3.428  11.289  0.1946 -1.3951 -2.0071
19072TIP3   OH278630   0.605   2.581   0.452 -0.5109 -0.7039 -0.2340
19072TIP3    H178631   0.583   2.536   0.534  1.5978  0.2600  0.9045
19072TIP3    H278632   0.674   2.527   0.414  1.6813  1.2207  0.8863
19073TIP3   OH278633   5.034   4.680   1.172  0.1480 -0.2408 -0.3658
19073TIP3    H178634   5.125   4.650   1.163  0.7669  1.4225  0.2898
19073TIP3    H278635   5.004   4.642   1.254  1.4558  2.1688  1.2914
19074TIP3   OH278636   1.519   1.623  16.565  0.3465 -0.5385 -0.5637
19074TIP3    H178637   1.550   1.554  16.506 -0.7098 -1.3419 -0.1941
19074TIP3    H278638   1.426   1.632  16.544  0.2780  0.1389  0.0281
19075TIP3   OH278639   6.261   5.822   0.856 -0.0469 -0.4855 -0.3977
19075TIP3    H178640   6.338   5.880   0.853  0.8997 -1.7107  0.0070
19075TIP3    H278641   6.291   5.745   0.905 -1.5075 -1.0203 -0.3354
19076TIP3   OH278642   4.961   4.111   2.262 -0.1633  0.5542  0.0035
19076TIP3    H178643   4.878   4.158   2.257  0.4645  1.7052  0.1724
19076TIP3    H278644   4.978   4.103   2.356 -0.2763 -0.0351 -0.0241
19077TIP3   OH278645   0.643   5.771  15.546 -0.5991  0.0318  0.1386
19077TIP3    H178646   0.648   5.705  15.615 -0.8545  2.2521  2.3522
19077TIP3    H278647   0.553   5.804  15.550 -0.1523  1.3309 -0.1068
19078TIP3   OH278648   5.325   4.831   3.904  0.1901 -0.5894  0.1303
19078TIP3    H178649   5.230   4.837   3.909  0.3036  0.6286  1.0833
19078TIP3    H278650   5.342   4.742   3.872 -1.2281 -1.3251  1.3848
19079TIP3   OH278651   1.864   3.081   4.339 -0.3133 -0.5626 -0.1867
19079TIP3    H178652   1.823   3.082   4.426  0.9558  1.4951  0.4106
19079TIP3    H278653   1.861   2.989   4.313  0.7140 -1.4903  2.7291
19080TIP3   OH278654   3.753   1.475  11.439  0.4417  0.0029 -0.0696
19080TIP3    H178655   3.834   1.524  11.447  0.7197 -0.2312 -1.3084
19080TIP3    H278656   3.731   1.448  11.528  1.8543 -0.1544  0.2299
19081TIP3   OH278657   6.461   4.593   3.567  0.6519 -0.4964 -0.1857
19081TIP3    H178658   6.423   4.513   3.532  2.0608 -0.5751 -1.6014
19081TIP3    H278659   6.528   4.618   3.503  1.4717  0.8113  1.1411
19082TIP3   OH278660   1.700   3.852  16.712  0.0406 -0.2943 -0.1964
19082TIP3    H178661   1.615   3.846  16.668 -0.6483  1.4008  0.8604
19082TIP3    H278662   1.695   3.787  16.782 -0.2889 -0.3514 -0.2718
19083TIP3   OH278663   4.746   3.336  15.604  0.1025 -0.1196  0.2725
19083TIP3    H178664   4.781   3.376  15.684 -0.6271  0.0510  0.5058
19083TIP3    H278665   4.683   3.271  15.634  0.2175 -0.4324 -0.1498
19084TIP3   OH278666   4.190   5.790   2.586  0.0684 -0.6722 -0.2777
19084TIP3    H178667   4.161   5.708   2.546  4.1559 -1.2942 -2.2191
19084TIP3    H278668   4.129   5.805   2.658 -5.2003 -1.5991 -4.2326
19085TIP3   OH278669   1.730   0.262   2.118 -0.6614  0.7059 -0.0475
19085TIP3    H178670   1.640   0.272   2.088 -0.5079 -1.7342 -1.5089
19085TIP3    H278671   1.777   0.335   2.078 -1.7205  1.1636 -0.4743
19086TIP3   OH278672   4.465   6.222   0.517  0.1528 -0.2126 -0.0560
19086TIP3    H178673   4.521   6.278   0.463  2.5172 -0.0499  2.4213
19086TIP3    H278674   4.376   6.247   0.494  1.1474  3.3598 -0.2721
19087TIP3   OH278675   3.416   1.539  11.187 -0.2083 -0.1398 -0.0729
19087TIP3    H178676   3.503   1.500  11.196  0.7758  1.4503 -2.1958
19087TIP3    H278677   3.419   1.584  11.102 -2.8375  0.6228  0.1987
19088TIP3   OH278678   1.846   0.173   6.194 -0.5520 -0.4688 -0.1720
19088TIP3    H178679   1.930   0.186   6.238 -2.0690  3.8525  1.6959
19088TIP3    H278680   1.850   0.228   6.117 -1.2375 -1.2066 -0.7430
19089TIP3   OH278681   4.829   5.980   4.859 -0.0355 -0.1922 -0.4461
19089TIP3    H178682   4.880   6.051   4.819  0.4099 -0.2548  0.0090
19089TIP3    H278683   4.887   5.943   4.925 -0.5609 -0.4679 -0.1363
19090TIP3   OH278684   6.144   2.491   1.466 -0.4066 -0.3195 -0.2114
19090TIP3    H178685   6.236   2.469   1.454 -0.3670 -0.5944  0.5425
19090TIP3    H278686   6.122   2.453   1.551 -1.2527 -0.3743 -0.4547
19091TIP3   OH278687   0.709   4.239  11.497  0.0112  0.1069 -0.3676
19091TIP3    H178688   0.669   4.188  11.567  1.9541  0.5204  1.1037
19091TIP3    H278689   0.643   4.303  11.472 -1.2406 -0.9950  0.0729
19092TIP3   OH278690   2.826   3.252   5.052  0.6437 -0.1549  0.1480
19092TIP3    H178691   2.819   3.318   5.121 -2.5507 -0.7788  0.4719
19092TIP3    H278692   2.736   3.236   5.025  1.6798 -1.5431 -2.6578
19093TIP3   OH278693   6.303   6.098   1.014  0.4198 -0.1642  0.1231
19093TIP3    H178694   6.302   6.130   1.104  0.5124 -1.4647  0.6020
19093TIP3    H278695   6.387   6.054   1.005  0.9336  1.0183 -0.9950
19094TIP3   OH278696   3.364   1.979  12.480  0.4792 -0.2481  0.6368
19094TIP3    H178697   3.441   2.014  12.523  1.3104  0.2776 -1.2149
19094TIP3    H278698   3.362   2.023  12.395 -2.0268 -0.0526  0.7788
19095TIP3   OH278699   5.406   5.974   3.874  0.5616 -0.2339 -0.3383
19095TIP3    H178700   5.355   5.895   3.856 -2.6575  0.8866  3.1416
19095TIP3    H278701   5.364   6.041   3.820 -0.3004  0.2208  0.8680
19096TIP3   OH278702   2.118   0.911   6.207  0.2214  0.0545  0.7634
19096TIP3    H178703   2.125   0.990   6.154 -3.0286  0.4975  0.9256
19096TIP3    H278704   2.091   0.942   6.293 -1.2051 -1.2426  0.7940
19097TIP3   OH278705   6.236   1.690   2.393  0.3405  0.3091 -0.0600
19097TIP3    H178706   6.316   1.674   2.442  0.0352  0.9878  0.6689
19097TIP3    H278707   6.222   1.610   2.343  1.5024  0.2105 -0.2331
19098TIP3   OH278708   0.911   4.413  16.405 -1.1096 -0.0048 -0.1585
19098TIP3    H178709   0.967   4.489  16.389  0.9128 -1.0203  1.7620
19098TIP3    H278710   0.902   4.371  16.319  1.2424  0.1160 -0.5081
19099TIP3   OH278711   3.195   5.820  12.872 -0.0400 -0.1800  0.0882
19099TIP3    H178712   3.290   5.807  12.861  0.2212 -0.3197  2.1538
19099TIP3    H278713   3.179   5.908  12.840  1.2103  0.6885  1.7326
19100TIP3   OH278714   0.377   1.458   1.780 -0.5929  0.4291  0.2925
19100TIP3    H178715   0.444   1.507   1.828 -0.7393 -0.0365  0.9765
19100TIP3    H278716   0.316   1.525   1.749 -0.0663  0.8108  0.0699
19101TIP3   OH278717   0.160   5.041   2.761  0.6623  0.3799  0.1252
19101TIP3    H178718   0.201   5.126   2.778 -0.0397  0.4200  1.6840
19101TIP3    H278719   0.223   4.977   2.795  1.2613  0.2595 -1.1893
19102TIP3   OH278720   3.422   1.537   5.832  0.5080 -0.1055  0.0641
19102TIP3    H178721   3.423   1.473   5.902  1.6051  1.0125  1.0989
19102TIP3    H278722   3.335   1.578   5.838  0.0172 -1.0890 -0.2465
19103TIP3   OH278723   3.248   2.045  14.033 -0.3987 -0.1394  0.4339
19103TIP3    H178724   3.203   2.075  14.112  0.1262 -0.3927  0.8337
19103TIP3    H278725   3.314   1.985  14.065 -2.9816 -3.6527 -0.5280
19104TIP3   OH278726   4.627   2.842  12.305  0.1687 -0.2972  0.0706
19104TIP3    H178727   4.669   2.898  12.370  0.9648 -0.9767  0.1490
19104TIP3    H278728   4.699   2.810  12.250 -0.1305 -2.1249  0.7105
19105TIP3   OH278729   0.599   2.097  11.976 -0.4675  0.1781 -0.2228
19105TIP3    H178730   0.552   2.071  11.897 -0.4265 -1.6194  0.3382
19105TIP3    H278731   0.691   2.079  11.956 -0.3910  0.2807  0.0302
19106TIP3   OH278732   2.039   5.207  13.864 -0.3077 -0.3338 -0.3190
19106TIP3    H178733   2.084   5.251  13.792  0.1761 -0.4401 -0.0818
19106TIP3    H278734   1.948   5.235  13.856 -0.0991  0.2995 -0.4787
19107TIP3   OH278735   4.111   4.518   6.288 -0.3350  0.1411  0.3474
19107TIP3    H178736   4.114   4.427   6.316  0.4347 -0.2126 -0.8576
19107TIP3    H278737   4.154   4.566   6.358  2.9336 -0.9036 -0.8661
19108TIP3   OH278738   2.712   5.321   3.288  0.0195 -0.3057  0.8761
19108TIP3    H178739   2.720   5.334   3.193 -0.0112  0.1926  0.9413
19108TIP3    H278740   2.626   5.356   3.310  1.5621  3.2482  1.7065
19109TIP3   OH278741   5.963   5.763  12.354 -0.3759 -0.0529  0.4510
19109TIP3    H178742   5.978   5.675  12.388  1.4181  0.1945  0.3083
19109TIP3    H278743   6.003   5.763  12.267 -0.5058  0.8637  0.3843
19110TIP3   OH278744   0.378   0.590  13.607  0.0910 -0.2091  0.5103
19110TIP3    H178745   0.363   0.673  13.563  0.3691 -0.4448 -0.0234
19110TIP3    H278746   0.453   0.552  13.563 -0.1106 -0.8048  0.6735
19111TIP3   OH278747   4.979   2.230   5.725  0.1214 -0.2604 -0.1584
19111TIP3    H178748   5.033   2.307   5.741 -0.4075 -0.0201  0.4816
19111TIP3    H278749   5.014   2.192   5.644  1.7931 -0.5892  0.7078
19112TIP3   OH278750   0.595   3.413   2.704  0.0854  0.4494  0.1182
19112TIP3    H178751   0.667   3.352   2.719 -0.1069  0.4252  0.9583
19112TIP3    H278752   0.556   3.425   2.790 -0.6290  0.8215 -0.2574
19113TIP3   OH278753   5.620   1.505  11.046 -0.5846  0.5876 -0.5787
19113TIP3    H178754   5.693   1.559  11.015 -0.3413  1.6076  1.7144
19113TIP3    H278755   5.627   1.425  10.994  0.5036  1.7833 -2.3308
19114TIP3   OH278756   0.074   0.284  13.966 -0.8968 -0.2298 -0.1359
19114TIP3    H178757   0.062   0.324  14.052 -0.6464 -0.7868  0.1619
19114TIP3    H278758   0.162   0.310  13.938 -0.5695 -0.9141  0.2442
19115TIP3   OH278759   4.004   1.906  14.529 -0.1883 -0.2388 -0.0137
19115TIP3    H178760   3.931   1.851  14.500 -0.6780  0.2428  0.2823
19115TIP3    H278761   4.082   1.862  14.496 -0.5224 -1.5175  0.8498
19116TIP3   OH278762   0.642   4.395  14.831  0.0701  0.0074  0.3549
19116TIP3    H178763   0.660   4.455  14.903  0.1468  0.1756  0.1980
19116TIP3    H278764   0.663   4.446  14.752  0.0964 -0.2126  0.2204
19117TIP3   OH278765   3.236   5.683  16.359 -0.6797 -0.4546  0.0303
19117TIP3    H178766   3.295   5.643  16.422  0.9962 -0.1464 -1.3033
19117TIP3    H278767   3.219   5.771  16.394 -1.5173 -1.0390  1.1366
19118TIP3   OH278768   4.921   1.050   1.949  0.0617  0.3764  0.4477
19118TIP3    H178769   4.841   0.997   1.953  0.6360 -0.5602 -0.2142
19118TIP3    H278770   4.972   1.011   1.878  1.6203  0.2300  1.6177
19119TIP3   OH278771   1.958   0.070   0.860 -0.2656  0.6404  0.5735
19119TIP3    H178772   1.961   0.164   0.843 -0.4218  0.6166  0.4195
19119TIP3    H278773   2.047   0.040   0.841 -0.7714  0.3762 -1.5720
19120TIP3   OH278774   2.161   0.244  13.053 -0.7998  0.6104 -0.5622
19120TIP3    H178775   2.097   0.175  13.073  0.9013 -0.7511  0.2979
19120TIP3    H278776   2.195   0.271  13.138  1.1211  0.0042 -1.1144
19121TIP3   OH278777   5.810   3.330  15.994  0.2483  0.4805  0.2098
19121TIP3    H178778   5.847   3.372  15.917  0.0008 -0.2385 -0.3069
19121TIP3    H278779   5.746   3.267  15.959  0.5115 -0.2226  0.9778
19122TIP3   OH278780   4.737   1.844   4.971 -0.3497 -0.1639  0.1079
19122TIP3    H178781   4.677   1.897   4.917 -0.5844 -0.5802 -0.0406
19122TIP3    H278782   4.824   1.866   4.937 -0.5401 -0.9444 -0.9155
19123TIP3   OH278783   1.684   0.569  16.423  0.8105  0.2630 -0.2147
19123TIP3    H178784   1.696   0.478  16.450 -0.2290 -0.4629 -2.0919
19123TIP3    H278785   1.594   0.590  16.448  1.0344  0.7632  0.1738
19124TIP3   OH278786   2.349   4.512   0.385 -0.1861 -0.1804 -0.4961
19124TIP3    H178787   2.378   4.507   0.476 -0.2175 -1.1177 -0.5243
19124TIP3    H278788   2.426   4.485   0.334 -0.9797 -2.4137 -0.5861
19125TIP3   OH278789   2.585   4.862   5.011 -0.0886 -0.0088  0.1469
19125TIP3    H178790   2.667   4.912   5.014 -0.4783  0.6743 -0.4695
19125TIP3    H278791   2.587   4.809   5.090  0.2866  1.0584  0.8707
19126TIP3   OH278792   4.318   0.195  12.464  0.0699 -0.2620  0.3969
19126TIP3    H178793   4.384   0.184  12.395  0.1490  0.1635  0.4040
19126TIP3    H278794   4.276   0.109  12.470  1.7259 -1.0198  1.5279
19127TIP3   OH278795   2.193   0.477   2.507 -0.4006  0.0886  0.2596
19127TIP3    H178796   2.233   0.512   2.427  1.5149 -0.2218  1.0518
19127TIP3    H278797   2.202   0.382   2.499 -3.8691 -0.2200 -0.9936
19128TIP3   OH278798   1.462   5.193   1.607 -0.2594 -0.0069  0.0472
19128TIP3    H178799   1.453   5.106   1.569  1.2483 -0.2700  0.2665
19128TIP3    H278800   1.551   5.194   1.644 -0.6768  1.2225  1.0458
19129TIP3   OH278801   0.269   5.941  11.678  0.3022 -0.0442  0.3697
19129TIP3    H178802   0.310   5.879  11.618  1.2129 -1.1909  2.1230
19129TIP3    H278803   0.175   5.925  11.669  0.3597  0.5400 -1.4939
19130TIP3   OH278804   3.525   1.580  14.191  0.0403  0.5983 -0.3482
19130TIP3    H178805   3.486   1.493  14.198  0.2811  0.6711  2.2738
19130TIP3    H278806   3.615   1.569  14.220 -0.0440  1.8082  0.4080
19131TIP3   OH278807   3.014   1.378   2.471 -0.3753 -0.0151  0.7671
19131TIP3    H178808   3.072   1.433   2.524  0.7817  0.4364 -0.9359
19131TIP3    H278809   3.042   1.288   2.490  1.0905  0.2125 -0.2614
19132TIP3   OH278810   0.014   6.183   1.181  0.2830  0.1503  0.0624
19132TIP3    H178811   0.063   6.158   1.259  0.5833  0.0048 -0.1679
19132TIP3    H278812  -0.064   6.228   1.214  0.5435  0.3299  0.4347
19133TIP3   OH278813   2.267   1.319  15.922  0.1866  0.1234  0.5807
19133TIP3    H178814   2.289   1.337  15.831  0.1687 -0.3982  0.4733
19133TIP3    H278815   2.172   1.328  15.927  0.1340 -0.3401  0.4355
19134TIP3   OH278816   2.374   4.470   4.611  0.7968  0.0852  0.2476
19134TIP3    H178817   2.286   4.451   4.641 -0.2042  0.0050 -2.6212
19134TIP3    H278818   2.386   4.563   4.631 -1.0393  0.8256 -1.8881
19135TIP3   OH278819   2.540   2.118  15.196 -0.0438 -0.3154 -0.7189
19135TIP3    H178820   2.525   2.025  15.214 -1.0050  0.1536  0.9778
19135TIP3    H278821   2.627   2.120  15.155  0.7661 -1.8103  0.8200
19136TIP3   OH278822   2.938   0.924  11.376 -0.2024 -0.3532 -0.3540
19136TIP3    H178823   2.864   0.881  11.420  1.6495 -2.2224  1.0295
19136TIP3    H278824   2.914   0.925  11.283 -0.9529 -3.1061 -0.2294
19137TIP3   OH278825   4.624   2.422  15.305  0.2122 -0.1395 -0.4428
19137TIP3    H178826   4.653   2.450  15.392 -0.9461 -0.5221  0.0779
19137TIP3    H278827   4.604   2.503  15.259  1.9701  0.1157 -0.7563
19138TIP3   OH278828   2.685   3.923  12.619  0.2928 -0.2663 -0.3107
19138TIP3    H178829   2.606   3.883  12.581  0.8886 -0.0671 -1.7987
19138TIP3    H278830   2.735   3.850  12.653 -1.4505 -0.2345  2.4694
19139TIP3   OH278831   6.726   0.809   2.833  0.5801  0.4481 -0.2750
19139TIP3    H178832   6.765   0.824   2.747 -0.7300 -2.4401 -1.4622
19139TIP3    H278833   6.743   0.717   2.851 -0.5467  0.6272  1.8545
19140TIP3   OH278834   0.400   6.637   3.712 -0.0240 -0.2170  0.0483
19140TIP3    H178835   0.327   6.687   3.750 -0.2146  0.3983 -1.0967
19140TIP3    H278836   0.372   6.546   3.718 -0.8277  0.0066 -0.2430
19141TIP3   OH278837   4.162   3.364  13.777 -0.7934 -0.0871  0.8416
19141TIP3    H178838   4.214   3.285  13.792 -0.8626 -0.0588  1.2428
19141TIP3    H278839   4.077   3.332  13.750 -0.2474 -0.1173 -0.8808
19142TIP3   OH278840   4.532   0.169   3.184 -0.4818 -0.0509 -0.8741
19142TIP3    H178841   4.548   0.104   3.116  2.3898 -0.8539  0.4486
19142TIP3    H278842   4.541   0.254   3.139  2.1370 -0.5584 -1.4340
19143TIP3   OH278843   2.266   3.353   1.808  0.0787 -0.7782 -0.6480
19143TIP3    H178844   2.227   3.439   1.818  2.9045  0.2880  2.2344
19143TIP3    H278845   2.227   3.300   1.877  0.1660 -1.0773 -0.8260
19144TIP3   OH278846   5.045   3.136   5.197  0.0635  0.5922  0.8620
19144TIP3    H178847   5.062   3.087   5.116 -0.7148 -1.3805  1.8542
19144TIP3    H278848   5.119   3.114   5.254 -0.2193  0.6809  1.2625
19145TIP3   OH278849   4.391   1.251  12.278 -0.1897 -0.1231 -0.0768
19145TIP3    H178850   4.327   1.233  12.210  0.2101  0.6673 -0.6732
19145TIP3    H278851   4.476   1.238  12.236  0.0579 -0.1749  0.4280
19146TIP3   OH278852   3.646   4.347   1.882  0.3467  0.4706 -0.4905
19146TIP3    H178853   3.596   4.355   1.964 -0.6448  0.5382 -1.1035
19146TIP3    H278854   3.684   4.434   1.869  0.3001  0.5301 -0.2429
19147TIP3   OH278855   0.423   5.057   2.017  0.0156  0.8397  0.4636
19147TIP3    H178856   0.503   5.032   1.972 -1.0050  0.1494 -1.0276
19147TIP3    H278857   0.411   4.989   2.084 -0.2221 -0.0366 -0.4499
19148TIP3   OH278858   0.348   4.523  12.739  0.4139 -0.5126  0.0712
19148TIP3    H178859   0.262   4.555  12.765  0.7156  1.0528 -0.7825
19148TIP3    H278860   0.334   4.482  12.653  0.7433  0.8962 -0.6641
19149TIP3   OH278861   5.947   0.483  12.502  0.2112 -0.0952 -0.0537
19149TIP3    H178862   5.994   0.555  12.461 -0.8292  0.9246  0.5111
19149TIP3    H278863   5.972   0.406  12.451  0.5488  0.8237 -1.3012
19150TIP3   OH278864   0.052   2.891  11.274  0.0775  0.1193 -0.2488
19150TIP3    H178865   0.035   2.984  11.290  0.1051  0.2870 -1.1243
19150TIP3    H278866   0.139   2.890  11.233 -0.8857 -0.0515 -2.3994
19151TIP3   OH278867   2.447   1.568  15.747  0.6833 -0.3574 -0.2779
19151TIP3    H178868   2.371   1.515  15.724  0.2985  0.2618 -0.4677
19151TIP3    H278869   2.449   1.637  15.681 -0.7154  1.7262  1.7713
19152TIP3   OH278870   4.588   4.580   3.317 -0.9845 -0.6042 -0.2135
19152TIP3    H178871   4.503   4.565   3.360 -0.1668 -1.5840  1.0992
19152TIP3    H278872   4.585   4.523   3.240 -1.2867 -1.0954  0.1521
19153TIP3   OH278873   6.430   0.000  12.336 -0.8432 -0.0194  0.1057
19153TIP3    H178874   6.398  -0.007  12.426  1.8140  1.0461  1.2057
19153TIP3    H278875   6.455   0.092  12.327  0.9949 -0.5989 -0.9653
19154TIP3   OH278876   2.499   2.780   4.215  0.0459 -0.0756  0.2060
19154TIP3    H178877   2.478   2.797   4.307 -2.1475 -0.2893 -0.2261
19154TIP3    H278878   2.573   2.837   4.197 -1.4538  2.3121  1.2644
19155TIP3   OH278879   4.457   2.169   5.523 -0.1529  0.2973  0.2345
19155TIP3    H178880   4.421   2.193   5.608 -1.0223  2.2495 -0.6377
19155TIP3    H278881   4.423   2.081   5.507 -1.0149  0.4114  1.3479
19156TIP3   OH278882   4.326   2.843  14.779 -0.3572  0.5818 -0.8036
19156TIP3    H178883   4.323   2.934  14.748 -0.2500  0.2117 -1.9409
19156TIP3    H278884   4.352   2.793  14.701 -1.4652 -0.5416 -0.4517
19157TIP3   OH278885   1.608   5.860   3.562 -0.1468 -0.0219 -0.2226
19157TIP3    H178886   1.556   5.928   3.519  1.0676  1.3015  0.3784
19157TIP3    H278887   1.589   5.780   3.512 -1.2705  0.8338 -1.1797
19158TIP3   OH278888   3.133   4.225  14.149 -0.4257  0.2860 -0.3396
19158TIP3    H178889   3.228   4.227  14.157 -0.5690 -0.1150  1.8246
19158TIP3    H278890   3.115   4.153  14.089  0.5727 -0.6015  0.4265
19159TIP3   OH278891   5.492   4.302  12.554 -0.4360 -0.1150  0.4122
19159TIP3    H178892   5.505   4.228  12.613  1.9919  0.4424  0.6277
19159TIP3    H278893   5.578   4.343  12.548 -1.1142  1.0264 -1.9470
19160TIP3   OH278894   3.931   6.091   4.617  0.1837  0.0564  0.3384
19160TIP3    H178895   3.841   6.058   4.623 -0.5031  1.8042  0.0736
19160TIP3    H278896   3.923   6.174   4.571  2.1150 -0.3877 -0.8458
19161TIP3   OH278897   5.906   6.139  12.758 -0.1939  0.8601 -0.1033
19161TIP3    H178898   5.990   6.180  12.734 -0.0524 -0.6808 -2.3454
19161TIP3    H278899   5.841   6.186  12.706 -0.4186  0.4037 -0.2355
19162TIP3   OH278900   1.705   5.802   3.163  0.2901  0.5552  0.7326
19162TIP3    H178901   1.647   5.879   3.157  0.6794  0.8725  0.9887
19162TIP3    H278902   1.654   5.739   3.214 -0.7910 -0.0788 -1.1144
19163TIP3   OH278903   3.122   3.700  12.170 -0.4859 -0.7579 -0.3507
19163TIP3    H178904   3.195   3.750  12.206  0.9306 -3.1896  0.3195
19163TIP3    H278905   3.074   3.762  12.116  1.8799  0.9880 -0.5157
19164TIP3   OH278906   6.665   1.043  13.450 -0.2027  0.0518 -0.0769
19164TIP3    H178907   6.726   0.970  13.451  0.4580  0.5751 -1.0010
19164TIP3    H278908   6.665   1.076  13.540  0.2967 -0.4324  0.0999
19165TIP3   OH278909   3.146   4.937  16.884 -0.1244 -0.5818  0.3949
19165TIP3    H178910   3.081   4.924  16.815  0.3218 -1.0466  0.0636
19165TIP3    H278911   3.139   4.858  16.939 -0.7741 -0.0281  1.1266
19166TIP3   OH278912   0.615   6.158   1.095  0.0741  0.7618  0.1819
19166TIP3    H178913   0.705   6.192   1.098  0.2021  0.3055  3.3486
19166TIP3    H278914   0.562   6.227   1.133 -1.2772  1.8005 -3.3550
19167TIP3   OH278915   0.587   2.863   0.577 -0.0892 -0.2577 -0.2534
19167TIP3    H178916   0.624   2.906   0.500 -0.6556  0.5694 -0.0808
19167TIP3    H278917   0.647   2.791   0.596  1.0998  0.6949 -0.3312
19168TIP3   OH278918   3.594   5.119   3.648  0.5346 -0.5980 -0.0353
19168TIP3    H178919   3.637   5.064   3.714 -0.6993 -1.9706 -0.3655
19168TIP3    H278920   3.502   5.121   3.674  0.6094  1.5472  0.1223
19169TIP3   OH278921   2.213   5.865   5.655  0.6339 -0.2483  0.2019
19169TIP3    H178922   2.263   5.804   5.710 -0.9636 -1.2198  0.5962
19169TIP3    H278923   2.136   5.887   5.708 -1.0737 -1.4067 -1.7220
19170TIP3   OH278924   4.150   3.004  16.147 -0.3705  0.1859 -0.3882
19170TIP3    H178925   4.079   2.954  16.108 -0.7380  1.6445 -1.6203
19170TIP3    H278926   4.136   2.996  16.241 -0.8787 -1.3536 -0.5767
19171TIP3   OH278927   3.567   6.273   1.331  0.2805  0.3502  0.8476
19171TIP3    H178928   3.608   6.237   1.410 -0.4538  0.9335  1.4948
19171TIP3    H278929   3.488   6.220   1.319  0.4120  0.2371  0.4773
19172TIP3   OH278930   4.863   2.643   5.810  0.4898 -0.5631  0.6174
19172TIP3    H178931   4.780   2.604   5.836  0.5924 -1.7096 -0.6780
19172TIP3    H278932   4.840   2.731   5.781 -0.4696 -1.2698 -0.8410
19173TIP3   OH278933   2.047   3.083  14.990  0.0314 -0.3262  0.3036
19173TIP3    H178934   2.129   3.102  14.944 -0.3226 -1.4645 -0.8637
19173TIP3    H278935   1.987   3.057  14.920 -0.7442 -1.3912  1.3403
19174TIP3   OH278936   6.168   4.331  14.302  0.1137  0.2349  0.4544
19174TIP3    H178937   6.073   4.335  14.288 -0.1347  2.1108  2.3690
19174TIP3    H278938   6.178   4.282  14.383  1.0236 -2.8446 -1.4352
19175TIP3   OH278939   4.217   0.128   5.836  0.5319 -0.7496 -0.3816
19175TIP3    H178940   4.245   0.213   5.803 -1.8763  0.3846  0.3937
19175TIP3    H278941   4.174   0.086   5.761  0.6684 -0.7951 -0.4347
19176TIP3   OH278942   5.454   1.469  15.061  0.4113 -0.4546  0.0596
19176TIP3    H178943   5.499   1.473  15.145  0.0545  0.9974  0.2056
19176TIP3    H278944   5.461   1.558  15.026 -1.0052 -0.5815 -0.6025
19177TIP3   OH278945   3.723   4.103  16.150 -0.2950  0.6581 -0.5840
19177TIP3    H178946   3.698   4.073  16.063  1.0698 -0.0889 -0.7375
19177TIP3    H278947   3.766   4.188  16.134  1.7761 -0.4153 -0.8857
19178TIP3   OH278948   1.566   1.147  12.455 -0.6250  0.5876  0.0901
19178TIP3    H178949   1.539   1.199  12.530 -0.1901  0.9725 -0.0191
19178TIP3    H278950   1.626   1.204  12.406  1.4658 -0.7192  1.0559
19179TIP3   OH278951   3.753   3.166  13.341  0.2975  0.6553  0.4115
19179TIP3    H178952   3.811   3.100  13.380  1.2208 -0.3732 -2.5686
19179TIP3    H278953   3.723   3.218  13.416  2.3976 -0.8899  2.4237
19180TIP3   OH278954   4.035   6.598   2.998  0.1438  0.2305  0.3143
19180TIP3    H178955   4.072   6.673   2.952  0.8865  0.5856  1.4569
19180TIP3    H278956   3.969   6.635   3.056 -0.0787 -0.0945  0.2695
19181TIP3   OH278957   5.736   1.904  11.245  0.2128  0.5521  0.1773
19181TIP3    H178958   5.798   1.831  11.241 -0.8850 -0.4594  1.2153
19181TIP3    H278959   5.687   1.898  11.163 -0.9849 -0.8953  0.9824
19182TIP3   OH278960   5.899   3.998   0.674 -0.3494 -0.4391  0.5145
19182TIP3    H178961   5.983   4.020   0.632 -0.9890  0.2895 -0.4076
19182TIP3    H278962   5.863   3.927   0.620 -1.1319  0.4366 -0.1332
19183TIP3   OH278963   2.877   1.723   5.643 -0.0083 -0.4893 -0.0891
19183TIP3    H178964   2.894   1.718   5.737  0.7512 -0.5981 -0.2312
19183TIP3    H278965   2.933   1.794   5.612  1.8683 -2.2570 -0.9181
19184TIP3   OH278966   3.299   0.768   3.382  0.2488 -0.1797 -0.2621
19184TIP3    H178967   3.203   0.767   3.385  0.2461 -1.4668 -0.5267
19184TIP3    H278968   3.324   0.840   3.440 -0.8793  0.2262 -0.2610
19185TIP3   OH278969   5.591   0.034  13.473 -0.4079  0.3366 -0.0912
19185TIP3    H178970   5.585  -0.041  13.533 -0.3536  0.1594 -0.3087
19185TIP3    H278971   5.500   0.056  13.453 -0.4660  1.1269  0.9697
19186TIP3   OH278972   6.703   4.838   5.703  0.2413  0.4813  0.1172
19186TIP3    H178973   6.784   4.791   5.683 -0.0857  0.6436 -1.6885
19186TIP3    H278974   6.644   4.771   5.738  0.1182 -0.2929 -1.4974
19187TIP3   OH278975   6.155   2.365  16.558  0.2695  0.3961  0.8617
19187TIP3    H178976   6.059   2.366  16.558  0.2611  0.1576  1.4902
19187TIP3    H278977   6.180   2.423  16.486 -0.3228 -2.8684 -2.0470
19188TIP3   OH278978   1.659   1.473  17.183 -0.4785 -0.1775  0.3428
19188TIP3    H178979   1.721   1.455  17.253  1.1866 -0.4315 -1.1517
19188TIP3    H278980   1.678   1.563  17.157 -0.1785 -0.5151 -0.6430
19189TIP3   OH278981   5.889   0.858   5.757 -0.1189 -0.0509  0.4672
19189TIP3    H178982   5.806   0.897   5.728 -0.1205 -0.9485 -0.7808
19189TIP3    H278983   5.947   0.932   5.770 -0.1293  0.4169 -1.8452
19190TIP3   OH278984   1.953   6.334   3.054  0.2208  0.0954 -0.2794
19190TIP3    H178985   1.912   6.259   3.098  0.6875  0.1855  0.3120
19190TIP3    H278986   1.894   6.407   3.071  0.9019  0.3529  1.0665
19191TIP3   OH278987   4.297   0.975  15.287 -0.0750 -0.2672 -0.7784
19191TIP3    H178988   4.289   1.069  15.305 -0.3826 -0.2884 -0.7977
19191TIP3    H278989   4.325   0.971  15.196  1.5675 -0.1589 -0.3035
19192TIP3   OH278990   6.624   0.787  16.502 -0.0510 -0.2017  0.0185
19192TIP3    H178991   6.661   0.851  16.564  1.3151 -0.8267 -0.1439
19192TIP3    H278992   6.567   0.732  16.556 -2.3194  1.9519 -0.0661
19193TIP3   OH278993   0.920   1.869   1.322 -0.3269  0.1964  0.4099
19193TIP3    H178994   0.884   1.813   1.253  0.7088  0.0333 -0.0120
19193TIP3    H278995   0.883   1.956   1.304  0.2712  0.2499 -0.6173
19194TIP3   OH278996   5.836   6.082  10.933 -0.3685  0.7928  0.4570
19194TIP3    H178997   5.899   6.013  10.915 -1.8376 -0.8180  1.3527
19194TIP3    H278998   5.879   6.137  10.998  0.5975  0.4105  0.1487
19195TIP3   OH278999   0.192   0.635  14.615  0.2496  0.1372  0.3672
19195TIP3    H179000   0.258   0.580  14.573  0.2376  0.3380  0.0842
19195TIP3    H279001   0.109   0.591  14.597  0.4643 -1.1910  2.4004
19196TIP3   OH279002   3.183   5.391  11.904  0.1053  0.1704  0.2689
19196TIP3    H179003   3.186   5.310  11.853 -1.0022 -0.2750  0.9037
19196TIP3    H279004   3.264   5.437  11.880 -0.9525  0.5416 -2.8260
19197TIP3   OH279005   3.123   2.031  15.772 -0.6827 -0.2160 -0.1629
19197TIP3    H179006   3.052   2.027  15.709  0.5396 -0.0135 -1.5978
19197TIP3    H279007   3.080   2.034  15.857 -2.4794  2.8473 -1.0982
19198TIP3   OH279008   2.806   2.642  16.764 -0.7285  0.2248  0.3544
19198TIP3    H179009   2.849   2.706  16.820  0.8072  1.3167 -1.9634
19198TIP3    H279010   2.855   2.561  16.779  2.0687  1.3679 -1.9842
19199TIP3   OH279011   4.600   2.941  14.928 -0.1805  0.3347  0.1655
19199TIP3    H179012   4.654   2.974  15.000  0.5642  0.2384 -0.3400
19199TIP3    H279013   4.550   2.869  14.966 -0.1217  0.5777  0.6984
19200TIP3   OH279014   0.364   2.762  13.159 -0.0916  0.4991 -0.4058
19200TIP3    H179015   0.296   2.740  13.222 -0.7728  0.2826 -1.2055
19200TIP3    H279016   0.433   2.697  13.175 -0.3132  0.3739  0.0393
19201TIP3   OH279017   1.740   3.780  12.180  0.5280 -0.1625 -0.5378
19201TIP3    H179018   1.781   3.803  12.263 -2.2942  3.6689 -0.0825
19201TIP3    H279019   1.799   3.815  12.114  0.8719  0.1761 -0.0596
19202TIP3   OH279020   3.031   5.394   1.095 -0.2929 -0.3128 -0.2144
19202TIP3    H179021   2.950   5.443   1.100 -0.8465 -1.1619 -0.6791
19202TIP3    H279022   3.069   5.401   1.182 -1.2418 -0.5428  0.2187
19203TIP3   OH279023   2.009   5.362  15.044  0.1939 -0.4186 -0.2198
19203TIP3    H179024   1.991   5.327  14.956 -0.7268  1.4556 -0.8066
19203TIP3    H279025   2.084   5.420  15.031  0.5784 -0.7776  0.3978
19204TIP3   OH279026   4.606   2.702   3.479 -0.1352 -0.2591  0.1070
19204TIP3    H179027   4.543   2.646   3.434 -0.3646  0.8176 -0.9293
19204TIP3    H279028   4.574   2.706   3.569 -0.4816 -1.2416  0.0409
19205TIP3   OH279029   1.971   3.332  14.777  0.2173 -0.3458 -0.0574
19205TIP3    H179030   1.906   3.385  14.822 -0.4834 -0.0759 -1.3582
19205TIP3    H279031   2.049   3.338  14.832 -0.4569  0.3904  0.8406
19206TIP3   OH279032   3.731   0.786   3.016  0.4769  0.2292 -0.4628
19206TIP3    H179033   3.688   0.801   3.100  2.9584  2.1443  0.5482
19206TIP3    H279034   3.662   0.799   2.951 -0.8892  1.4284  1.1706
19207TIP3   OH279035   3.567   5.025   3.952  0.1990 -0.2848 -0.4532
19207TIP3    H179036   3.486   5.044   3.905  0.5383 -1.6423 -1.6510
19207TIP3    H279037   3.596   5.110   3.985 -0.8521  0.4768 -1.4180
19208TIP3   OH279038   2.587   3.867   5.905 -0.7146 -0.3436  0.2985
19208TIP3    H179039   2.515   3.891   5.846 -1.5593  2.5734  2.4010
19208TIP3    H279040   2.666   3.896   5.859 -1.2875  1.1277  0.2190
19209TIP3   OH279041   1.634   4.059   5.725  0.0812  0.7420  0.9421
19209TIP3    H179042   1.620   3.972   5.763  0.2691 -0.0076 -0.6623
19209TIP3    H279043   1.702   4.098   5.780  1.6857 -1.0414  0.2625
19210TIP3   OH279044   6.159   5.513  17.200 -0.1697 -0.1400 -0.1877
19210TIP3    H179045   6.122   5.501  17.112  0.2243 -1.5247 -0.1756
19210TIP3    H279046   6.208   5.595  17.194  0.2246 -0.4493 -1.3850
19211TIP3   OH279047   1.102   5.633   1.342 -0.3282  0.0480  0.1500
19211TIP3    H179048   1.138   5.685   1.413 -0.8859 -0.4421  0.7900
19211TIP3    H279049   1.084   5.697   1.272 -0.0034  0.5562  0.5293
19212TIP3   OH279050   5.718   0.565   5.934 -0.0615  0.0717 -0.0525
19212TIP3    H179051   5.697   0.599   5.846  2.8807  0.0761 -0.7943
19212TIP3    H279052   5.776   0.631   5.972  1.2076 -1.4481  0.6824
19213TIP3   OH279053   0.120   3.205  16.092 -0.2913  0.1308  0.0987
19213TIP3    H179054   0.162   3.147  16.156  0.7953  2.3373  1.4707
19213TIP3    H279055   0.033   3.221  16.128  0.2599  1.2359  0.9672
19214TIP3   OH279056   1.539   4.057   1.845 -0.4821  0.2080 -0.1071
19214TIP3    H179057   1.476   4.027   1.780  0.7524 -0.4860 -1.0124
19214TIP3    H279058   1.591   3.979   1.865 -0.0183  0.7332  0.7523
19215TIP3   OH279059   6.244   3.040   5.913  0.5925  0.3991  0.9695
19215TIP3    H179060   6.336   3.020   5.932  0.7437  0.8985  0.7697
19215TIP3    H279061   6.198   3.022   5.995  0.6572 -1.1630  0.6880
19216TIP3   OH279062   0.296   4.935  16.183  0.0729 -0.5840  0.3729
19216TIP3    H179063   0.384   4.911  16.210  0.3058 -1.8039 -1.3383
19216TIP3    H279064   0.301   5.029  16.164  0.6200 -0.3429  1.6639
19217TIP3   OH279065   6.092   0.027  16.423  0.5258 -0.6042  0.3205
19217TIP3    H179066   6.134   0.086  16.486 -0.0399 -0.6335  0.7346
19217TIP3    H279067   6.034   0.084  16.372  0.1546 -0.7608  0.5645
19218TIP3   OH279068   6.458   3.372  17.123 -0.2039 -0.4131 -0.2576
19218TIP3    H179069   6.487   3.461  17.140 -1.7235 -0.0081  0.3168
19218TIP3    H279070   6.537   3.325  17.097  0.3351  1.4835 -2.1430
19219TIP3   OH279071   5.875   2.194  12.338  0.1692 -0.0731 -0.4313
19219TIP3    H179072   5.848   2.234  12.420  1.6191  1.4588 -0.6589
19219TIP3    H279073   5.895   2.103  12.361  1.2724  0.5260  1.0690
19220TIP3   OH279074   5.762   1.837   3.966  0.1616 -0.6793  0.2862
19220TIP3    H179075   5.779   1.837   3.872  0.0612 -2.6247  0.2469
19220TIP3    H279076   5.841   1.800   4.005  0.4293  0.6342  1.0303
19221TIP3   OH279077   0.807   5.714  12.775  0.1551  0.6109  0.3642
19221TIP3    H179078   0.856   5.784  12.818  2.1352 -0.1629 -0.5560
19221TIP3    H279079   0.828   5.724  12.682  1.1128 -1.6701  0.3033
19222TIP3   OH279080   2.673   2.829   1.991  0.5483  0.2118  0.3067
19222TIP3    H179081   2.588   2.804   1.957  0.0492 -0.4000  1.9483
19222TIP3    H279082   2.694   2.762   2.056  1.3581  1.4656  1.3770
19223TIP3   OH279083   5.582   1.462   3.430  0.8825  0.3080 -0.4505
19223TIP3    H179084   5.510   1.405   3.402  1.9147 -2.0014  1.3476
19223TIP3    H279085   5.578   1.460   3.526  4.1039 -0.9886 -0.2640
19224TIP3   OH279086   0.518   0.075   5.227 -0.6100  0.2108 -0.1275
19224TIP3    H179087   0.589   0.075   5.164 -0.0769 -1.1194  0.4730
19224TIP3    H279088   0.505   0.168   5.248  0.7541  0.4772 -0.4406
19225TIP3   OH279089   1.949   4.664   2.350 -0.4127 -0.3644 -0.1997
19225TIP3    H179090   1.971   4.650   2.258 -1.5768  0.1343 -0.5664
19225TIP3    H279091   1.853   4.672   2.351 -0.4346 -0.6224  1.0867
19226TIP3   OH279092   0.149   2.816   4.913 -0.3750  0.2398 -0.0287
19226TIP3    H179093   0.074   2.871   4.891 -0.6209  0.0479  0.3349
19226TIP3    H279094   0.114   2.728   4.921 -0.0970  0.1355  0.0611
19227TIP3   OH279095   2.043   6.421  15.761 -0.1327  0.3048 -0.0983
19227TIP3    H179096   2.059   6.487  15.693  1.5810 -0.8619 -0.8688
19227TIP3    H279097   1.948   6.412  15.764 -0.2476  0.4682 -2.2626
19228TIP3   OH279098   6.163   1.164  12.270 -0.7612  0.3119 -0.0284
19228TIP3    H179099   6.196   1.161  12.360  2.4256  1.0513 -1.0827
19228TIP3    H279100   6.162   1.072  12.241  0.9465  0.3032 -0.1216
19229TIP3   OH279101   0.819   3.570   6.272 -0.0782 -0.6509  0.1826
19229TIP3    H179102   0.828   3.498   6.335  0.6240 -0.5562  0.1972
19229TIP3    H279103   0.895   3.625   6.289 -0.8921  0.3706  0.5247
19230TIP3   OH279104   4.085   3.485  16.017 -0.0803 -0.4166  0.0820
19230TIP3    H179105   4.123   3.417  16.073 -1.1712 -0.8878  0.2638
19230TIP3    H279106   3.991   3.479  16.032 -0.1828  1.2174  0.1855
19231TIP3   OH279107   1.154   5.338  15.056  0.2526  0.0855  0.0114
19231TIP3    H179108   1.226   5.307  15.001  0.7205 -0.3363  0.8539
19231TIP3    H279109   1.089   5.371  14.994  1.1732  0.4778 -0.7465
19232TIP3   OH279110   3.370   3.671  13.502 -0.3663  0.0805  0.6681
19232TIP3    H179111   3.391   3.759  13.473 -2.3426  0.6294  0.8319
19232TIP3    H279112   3.392   3.615  13.428  0.6729  0.7231  0.4773
19233TIP3   OH279113   3.680   1.376  12.572 -0.1025 -0.1297 -0.8711
19233TIP3    H179114   3.587   1.352  12.570 -0.2946  0.5852 -0.8283
19233TIP3    H279115   3.691   1.435  12.497 -0.0734  1.1488  0.1293
19234TIP3   OH279116   2.951   2.712   3.518  0.1111 -0.6338  0.2338
19234TIP3    H179117   3.031   2.712   3.465  0.0887 -1.6713  0.1930
19234TIP3    H279118   2.880   2.706   3.454  0.0835 -1.8851  0.3655
19235TIP3   OH279119   6.763   1.028   3.882 -0.3113 -0.5216 -0.3304
19235TIP3    H179120   6.728   0.967   3.817  0.9256 -2.0405  0.4037
19235TIP3    H279121   6.686   1.063   3.926 -1.0374 -1.5336 -0.7751
19236TIP3   OH279122   5.603   3.289  14.671  0.0035 -0.2542  0.7431
19236TIP3    H179123   5.665   3.355  14.640 -1.3743  0.5550 -0.3772
19236TIP3    H279124   5.606   3.296  14.766  1.2854  0.0760  0.6946
19237TIP3   OH279125   1.852   6.524   5.256 -0.9642 -0.2599  0.0643
19237TIP3    H179126   1.866   6.460   5.326 -2.3495  0.4418  0.9892
19237TIP3    H279127   1.762   6.555   5.268 -0.6905  1.0450 -1.0556
19238TIP3   OH279128   5.784   3.263   2.158  0.3762 -0.2920 -0.0165
19238TIP3    H179129   5.751   3.335   2.211 -1.0487 -0.4369 -0.7034
19238TIP3    H279130   5.773   3.185   2.213 -1.5283 -0.5088 -0.6761
19239TIP3   OH279131   2.766   3.012   3.720  0.3669  0.2147  0.1055
19239TIP3    H179132   2.821   3.023   3.797  1.5278  2.7699 -1.0235
19239TIP3    H279133   2.815   2.950   3.665 -0.2059 -1.1929  1.1713
19240TIP3   OH279134   3.980   2.986  14.484  0.6089 -0.3792 -0.0791
19240TIP3    H179135   4.000   2.900  14.520 -1.2312 -0.2562  1.3435
19240TIP3    H279136   4.050   3.004  14.421  1.6634 -2.3734  0.5116
19241TIP3   OH279137   2.237   2.973  13.580 -0.5298 -0.3040 -0.2875
19241TIP3    H179138   2.208   3.063  13.590 -0.2227 -0.2260 -0.1059
19241TIP3    H279139   2.255   2.943  13.669  0.4489 -0.1832 -0.4373
19242TIP3   OH279140   5.768   6.290  14.196  0.2877 -0.4351 -0.9709
19242TIP3    H179141   5.800   6.256  14.280  0.8370 -1.0359 -1.4181
19242TIP3    H279142   5.748   6.382  14.214 -0.4165 -0.7791  0.0326
19243TIP3   OH279143   2.453   5.038  16.697  0.4953  0.2863  0.4232
19243TIP3    H179144   2.543   5.066  16.679 -0.3761  1.7784 -1.7638
19243TIP3    H279145   2.453   4.945  16.675  0.7321  0.9778 -2.6887
19244TIP3   OH279146   3.623   3.811  11.381 -0.1180 -0.1813  0.3796
19244TIP3    H179147   3.708   3.830  11.342 -0.5476  2.4512  0.5912
19244TIP3    H279148   3.622   3.862  11.462 -2.1730  0.4336  0.0111
19245TIP3   OH279149   1.472   4.720  15.428 -0.1938  0.3156  0.3399
19245TIP3    H179150   1.538   4.673  15.478 -0.4140  0.0438  0.3799
19245TIP3    H279151   1.403   4.740  15.492  0.2474  1.3756  0.4970
19246TIP3   OH279152   0.369   4.340  12.479  0.0767 -0.0489 -0.1077
19246TIP3    H179153   0.344   4.253  12.511 -1.1568  0.5586  0.6031
19246TIP3    H279154   0.343   4.339  12.387 -2.7495  0.5932  0.6227
19247TIP3   OH279155   5.031   3.849  12.076  0.2078 -0.1343 -0.4132
19247TIP3    H179156   5.115   3.889  12.100 -0.3950  1.2872 -0.6290
19247TIP3    H279157   4.981   3.851  12.158 -0.2222  0.5675 -0.6944
19248TIP3   OH279158   5.573   5.121  16.404 -0.2044  0.3452  0.1568
19248TIP3    H179159   5.510   5.182  16.444  0.7966 -0.1343  2.5712
19248TIP3    H279160   5.652   5.173  16.392 -0.0449  0.1034  0.1616
19249TIP3   OH279161   4.927   6.479  14.776 -0.0725 -0.2660  0.1839
19249TIP3    H179162   4.945   6.573  14.781 -0.1088 -0.2551  0.1149
19249TIP3    H279163   4.930   6.449  14.867  0.9218 -0.3848  0.1194
19250TIP3   OH279164   4.548   3.483  15.220 -0.3843 -0.0014  0.4405
19250TIP3    H179165   4.516   3.402  15.181 -0.8186 -0.0312  0.8525
19250TIP3    H279166   4.470   3.538  15.228 -0.3655 -0.1306  1.5958
19251TIP3   OH279167   1.361   3.298   4.367 -0.0921  0.2543  0.2521
19251TIP3    H179168   1.336   3.212   4.333 -0.8437 -0.2972  2.1384
19251TIP3    H279169   1.451   3.309   4.338 -0.4340 -0.5585 -1.1902
19252TIP3   OH279170   6.245   1.003   5.424  0.3550  0.4132 -0.3110
19252TIP3    H179171   6.215   0.980   5.512  1.8458  0.0682  0.1117
19252TIP3    H279172   6.286   0.923   5.390 -0.6784  0.3741 -1.5412
19253TIP3   OH279173   0.840   2.437  15.042 -0.5624 -0.2272  0.2503
19253TIP3    H179174   0.767   2.406  15.096  0.2998 -1.9605  0.4917
19253TIP3    H279175   0.912   2.448  15.104 -0.0506 -0.5233 -0.2845
19254TIP3   OH279176   3.552   1.029   1.799 -0.4808 -0.0081 -0.4516
19254TIP3    H179177   3.505   0.946   1.803 -0.4233 -0.0381 -0.4094
19254TIP3    H279178   3.568   1.053   1.890  2.3026 -1.5256 -0.5037
19255TIP3   OH279179   1.396   4.907  13.050  0.4193  0.3878 -0.0841
19255TIP3    H179180   1.326   4.870  13.105 -0.0017  0.4707 -0.5593
19255TIP3    H279181   1.351   4.933  12.970  0.9071  0.9521 -0.1693
19256TIP3   OH279182   4.622   2.190  11.772  0.3833  0.1814  0.4978
19256TIP3    H179183   4.662   2.241  11.702 -0.5390  0.7209  0.3630
19256TIP3    H279184   4.697   2.149  11.817  0.9985  0.1233 -0.5649
19257TIP3   OH279185   6.638   2.309  13.210  0.4665  0.4374  0.4102
19257TIP3    H179186   6.603   2.391  13.245  0.1349  0.6357 -0.3723
19257TIP3    H279187   6.657   2.256  13.287  0.2481  1.0731  0.9051
19258TIP3   OH279188   4.037   5.686   0.621 -0.3288  0.0362  0.2537
19258TIP3    H179189   3.993   5.604   0.598 -0.6165 -0.0336  1.0464
19258TIP3    H279190   3.971   5.736   0.670  0.0685  0.4555  0.3658
19259TIP3   OH279191   5.559   4.713  12.879 -0.4538  0.2514  0.4306
19259TIP3    H179192   5.644   4.726  12.838 -0.2741 -0.2299  0.6528
19259TIP3    H279193   5.578   4.708  12.972 -0.6969 -0.1336  0.4572
19260TIP3   OH279194   2.864   6.330   3.836  0.6825  0.1240 -0.0952
19260TIP3    H179195   2.890   6.333   3.928  0.8394 -0.4187 -0.1153
19260TIP3    H279196   2.824   6.243   3.826  0.5008  0.2536 -0.4912
19261TIP3   OH279197   4.889   0.390   4.190 -0.1717 -0.1353  0.5382
19261TIP3    H179198   4.804   0.431   4.205  0.4461  0.8355  1.5734
19261TIP3    H279199   4.931   0.392   4.276  1.0571 -0.2072 -0.0483
19262TIP3   OH279200   6.525   1.094  14.023  0.6904  0.3169 -0.0204
19262TIP3    H179201   6.597   1.125  14.079  0.5514 -1.3979  1.1694
19262TIP3    H279202   6.486   1.174  13.988  2.2994  1.3351  0.4383
19263TIP3   OH279203   6.436   0.244   5.697  0.1349  0.4482  0.4328
19263TIP3    H179204   6.520   0.281   5.670 -0.4949  0.9836 -0.8106
19263TIP3    H279205   6.459   0.178   5.762  1.5499  0.3074 -0.2007
19264TIP3   OH279206   2.536   2.260  14.022 -0.2789 -0.5614  0.2552
19264TIP3    H179207   2.494   2.190  13.972  1.0278 -0.9657 -0.2939
19264TIP3    H279208   2.617   2.278  13.975 -0.9865  1.9243 -0.0994
19265TIP3   OH279209   1.797   3.833  12.510  0.3133 -0.6419  0.2122
19265TIP3    H179210   1.753   3.914  12.537 -1.2347 -0.7422 -1.9121
19265TIP3    H279211   1.889   3.858  12.502  0.1291  0.4582  1.2634
19266TIP3   OH279212   1.861   5.314  12.574 -0.8148 -0.4947 -1.0534
19266TIP3    H179213   1.893   5.224  12.571 -0.1686 -0.2277 -3.0493
19266TIP3    H279214   1.786   5.315  12.514 -0.5121  0.3880 -1.4311
19267TIP3   OH279215   3.434   3.568   4.428 -0.8854 -0.5349  0.1160
19267TIP3    H179216   3.397   3.607   4.507  0.0200  0.7792 -0.1044
19267TIP3    H279217   3.442   3.475   4.449  0.0841 -0.0860  1.8701
19268TIP3   OH279218   6.470   3.588  15.227  0.2135  0.0283 -0.0770
19268TIP3    H179219   6.422   3.668  15.248  2.4679  1.1949  0.7250
19268TIP3    H279220   6.540   3.583  15.292 -0.7897 -3.4348  0.8371
19269TIP3   OH279221   2.644   3.769  10.603 -0.3915  0.0282  0.0781
19269TIP3    H179222   2.577   3.834  10.624 -0.6828 -0.0547 -0.5764
19269TIP3    H279223   2.727   3.812  10.623 -0.6546  0.0217  1.1898
19270TIP3   OH279224   6.671   5.893  16.917  0.2786  0.3545 -0.1933
19270TIP3    H179225   6.579   5.865  16.916  1.0996 -2.6142  1.5636
19270TIP3    H279226   6.678   5.954  16.844 -3.0125  0.3468 -0.5821
19271TIP3   OH279227   3.672   2.753  13.717  0.0425  1.5391 -0.2499
19271TIP3    H179228   3.609   2.784  13.782  0.3398 -0.6420  1.1238
19271TIP3    H279229   3.743   2.715  13.768  0.8833  0.9167 -1.8413
19272TIP3   OH279230   1.427   2.756  12.375  0.0185  0.3779  0.2329
19272TIP3    H179231   1.514   2.773  12.339  0.3562 -0.4644  0.6353
19272TIP3    H279232   1.366   2.789  12.309  0.6337 -0.4765 -0.7687
19273TIP3   OH279233   5.952   3.818   4.127 -0.5091 -0.0849 -0.0805
19273TIP3    H179234   5.972   3.881   4.197 -1.4020  1.2977 -1.0435
19273TIP3    H279235   5.862   3.790   4.145  0.2634 -1.9290  0.9681
19274TIP3   OH279236   2.078   0.731  13.727  0.3694  0.2122  0.1140
19274TIP3    H179237   2.003   0.719  13.669  0.1780  2.1109 -0.0763
19274TIP3    H279238   2.137   0.658  13.706 -1.6690 -1.6331  0.6994
19275TIP3   OH279239   5.705   6.423  11.528  0.9819 -0.0700 -0.0265
19275TIP3    H179240   5.676   6.472  11.451  0.2731 -0.3717  0.0419
19275TIP3    H279241   5.629   6.369  11.552  1.9309 -1.6529 -0.4645
19276TIP3   OH279242   4.089   4.512  16.813  0.1176  0.0090 -0.4346
19276TIP3    H179243   4.102   4.606  16.796  0.3502  0.1285  0.3657
19276TIP3    H279244   3.996   4.504  16.832  0.0352  0.0249 -0.8350
19277TIP3   OH279245   3.743   0.023   4.806 -0.1373 -0.4079 -0.0510
19277TIP3    H179246   3.669   0.018   4.746 -1.4443  1.1939  1.3543
19277TIP3    H279247   3.781   0.110   4.790  0.7311 -0.7680  0.0350
19278TIP3   OH279248   2.953   6.696  14.496  0.1713  0.3000 -0.8313
19278TIP3    H179249   2.931   6.787  14.476 -0.1347  0.2535 -0.7107
19278TIP3    H279250   2.882   6.667  14.553 -0.0645 -0.2127 -1.3944
19279TIP3   OH279251   4.153   3.787   2.562 -0.0906 -0.1610 -0.3867
19279TIP3    H179252   4.103   3.706   2.560  1.0633 -0.8851 -0.0889
19279TIP3    H279253   4.142   3.824   2.474 -0.3674 -0.7848 -0.6171
19280TIP3   OH279254   3.369   6.205   0.323  0.3068 -0.1334  0.1919
19280TIP3    H179255   3.305   6.156   0.375  0.6205 -1.1866 -0.4127
19280TIP3    H279256   3.418   6.138   0.276  0.2466  0.8014 -1.2274
19281TIP3   OH279257   5.839   4.653  14.576  0.2713 -0.2784 -0.3780
19281TIP3    H179258   5.933   4.662  14.593  0.0893 -1.5154  1.4450
19281TIP3    H279259   5.798   4.669  14.661 -0.9635 -2.9291 -0.4284
19282TIP3   OH279260   6.772   1.770   5.657  1.1458  0.1609 -0.4597
19282TIP3    H179261   6.793   1.688   5.612 -1.4100 -0.8133  0.0648
19282TIP3    H279262   6.762   1.834   5.587  0.3967 -0.6167 -1.0699
19283TIP3   OH279263   0.051   5.595   1.045 -0.4542 -0.4332 -0.0396
19283TIP3    H179264   0.058   5.500   1.050  0.7212 -0.3080  0.8304
19283TIP3    H279265   0.133   5.624   1.005 -1.9008  0.0458 -2.7998
19284TIP3   OH279266   1.818   1.025   3.362  0.2427 -0.2052  0.0973
19284TIP3    H179267   1.896   1.013   3.417  0.5085  1.7678  0.1872
19284TIP3    H279268   1.772   1.100   3.401 -0.1479  0.5194 -1.6867
19285TIP3   OH279269   6.340   4.570   6.292  0.0516 -0.7593  0.7964
19285TIP3    H179270   6.360   4.494   6.238 -0.5316 -0.7665  0.5874
19285TIP3    H279271   6.245   4.568   6.303 -0.0052  0.1052  0.5370
19286TIP3   OH279272   4.251   0.983  14.086 -0.6923 -0.2627  0.5080
19286TIP3    H179273   4.203   1.029  14.016  0.1607 -0.8079 -0.4440
19286TIP3    H279274   4.312   1.048  14.120  0.1960 -0.5465 -0.5308
19287TIP3   OH279275   4.810   2.960  15.910  0.4850  0.3058 -0.0021
19287TIP3    H179276   4.825   2.877  15.955 -0.2658  0.6865  0.9696
19287TIP3    H279277   4.750   2.938  15.838  0.1441  0.0376  0.3643
19288TIP3   OH279278   2.308   6.602   4.073  0.0857  0.2903 -0.0968
19288TIP3    H179279   2.217   6.595   4.102  0.0732 -0.1383 -0.2274
19288TIP3    H279280   2.305   6.654   3.993 -0.3032 -1.5448 -1.3066
19289TIP3   OH279281   0.398   4.637  16.035  0.7289  0.1284  0.2807
19289TIP3    H179282   0.400   4.666  15.944  0.8864  0.2388  0.3173
19289TIP3    H279283   0.382   4.717  16.085 -0.2162 -0.0710  0.2920
19290TIP3   OH279284   6.216   6.189  11.259 -0.6344  0.4542  0.2682
19290TIP3    H179285   6.192   6.107  11.215 -3.6215 -0.0147  2.6456
19290TIP3    H279286   6.309   6.179  11.279 -0.7139 -1.9149 -0.3992
19291TIP3   OH279287   0.445   1.435  17.118  0.4416  0.1234 -0.2626
19291TIP3    H179288   0.487   1.350  17.104  2.9950  1.3232 -0.2455
19291TIP3    H279289   0.435   1.472  17.031  2.7969  1.3447 -0.0689
19292TIP3   OH279290   0.505   0.416   5.607 -0.3984 -1.0938  0.0517
19292TIP3    H179291   0.442   0.361   5.654  0.5218 -0.5818  1.9393
19292TIP3    H279292   0.588   0.368   5.614  0.4421  0.6108  1.8542
19293TIP3   OH279293   4.979   2.779   3.267  0.2695 -0.0022 -0.1396
19293TIP3    H179294   5.068   2.807   3.287 -0.4646  1.4035  1.2680
19293TIP3    H279295   4.986   2.732   3.185  2.5898 -1.4097  0.8337
19294TIP3   OH279296   2.902   0.504  16.710 -0.1286 -0.4235 -0.5580
19294TIP3    H179297   2.828   0.494  16.649  0.3116 -1.0540 -0.9894
19294TIP3    H279298   2.958   0.428  16.693  1.9967  1.4371 -2.1258
19295TIP3   OH279299   1.768   6.349   5.052 -0.3530 -0.0642 -0.6627
19295TIP3    H179300   1.715   6.273   5.075  0.9802 -1.0469 -0.7277
19295TIP3    H279301   1.808   6.377   5.135  0.4617 -0.4720 -0.9107
19296TIP3   OH279302   2.580   2.223   5.755 -0.5026 -0.2158 -0.0063
19296TIP3    H179303   2.534   2.170   5.820 -0.5268  0.5614  0.6051
19296TIP3    H279304   2.613   2.298   5.804  0.4965 -0.2250 -0.6505
19297TIP3   OH279305   4.334   2.157   1.627 -0.0846 -0.4600  0.3529
19297TIP3    H179306   4.401   2.205   1.579 -0.9748  1.5063  1.0339
19297TIP3    H279307   4.258   2.156   1.569 -0.9249  1.2881  1.3870
19298TIP3   OH279308   6.649   1.176   2.243 -0.3722  0.3363 -0.4197
19298TIP3    H179309   6.689   1.262   2.240 -1.5432  0.8509 -1.9657
19298TIP3    H279310   6.629   1.162   2.336  1.6063  0.8640  0.0983
19299TIP3   OH279311   0.693   2.975   6.216 -0.1562  0.5176  0.5219
19299TIP3    H179312   0.692   2.942   6.306 -0.7843  1.3002  0.8065
19299TIP3    H279313   0.783   3.004   6.202 -0.0755  0.4574  0.9130
19300TIP3   OH279314   1.324   2.420   0.648 -0.2204 -0.3395 -0.1189
19300TIP3    H179315   1.240   2.412   0.603 -1.0503  0.5322  1.2570
19300TIP3    H279316   1.373   2.484   0.597 -0.7530 -0.1399 -0.3850
19301TIP3   OH279317   1.995   1.870  14.502 -0.0950  0.6940 -0.0973
19301TIP3    H179318   2.023   1.860  14.410 -1.3871 -1.1815 -0.3216
19301TIP3    H279319   2.062   1.824  14.552  0.8161  2.0441 -0.0465
19302TIP3   OH279320   6.639   5.911   0.053  0.3122  0.1814 -0.1467
19302TIP3    H179321   6.646   5.833  -0.002  3.5486  1.5327 -1.7798
19302TIP3    H279322   6.578   5.968   0.007 -0.6506 -0.6190  0.1222
19303TIP3   OH279323   0.132   6.262   1.829  0.3648 -0.0197 -0.6046
19303TIP3    H179324   0.177   6.337   1.792 -0.0839  2.0075  2.7360
19303TIP3    H279325   0.040   6.289   1.835  0.2286 -0.7475  0.7976
19304TIP3   OH279326   3.700   2.247  11.362 -0.7337 -0.1243 -0.5051
19304TIP3    H179327   3.775   2.211  11.314 -1.1161 -1.7068  0.0433
19304TIP3    H279328   3.730   2.331  11.395  0.4931 -0.3327 -1.0804
19305TIP3   OH279329   5.237   0.137  15.826  0.0249 -0.7977 -0.2096
19305TIP3    H179330   5.145   0.161  15.838 -0.5340 -1.3885 -3.0136
19305TIP3    H279331   5.251   0.065  15.887 -1.3008 -0.6017  0.3609
19306TIP3   OH279332   1.759   0.030   4.599  0.6118 -0.1654 -0.2370
19306TIP3    H179333   1.797   0.083   4.528  3.3862 -2.1562 -0.3304
19306TIP3    H279334   1.717  -0.043   4.554 -1.0042  0.5874  0.0170
19307TIP3   OH279335   2.727   6.724   5.920 -0.1616  0.0160  0.1866
19307TIP3    H179336   2.808   6.674   5.930  0.4063  1.2443  2.0878
19307TIP3    H279337   2.678   6.707   6.000 -0.3902  1.7031  0.4366
19308TIP3   OH279338   5.298   5.709   3.791 -0.1720  0.8631  0.5584
19308TIP3    H179339   5.295   5.614   3.781 -1.2795  0.8573  0.9711
19308TIP3    H279340   5.231   5.729   3.856 -0.4729  2.0046 -0.0922
19309TIP3   OH279341   4.675   3.951   2.028 -0.2118  0.0771  0.4065
19309TIP3    H179342   4.681   3.871   1.976  0.5358  0.0322  0.5640
19309TIP3    H279343   4.764   3.985   2.030 -0.6656  1.3877 -0.4194
19310TIP3   OH279344   0.027   4.865  16.003  0.2355  0.5522  0.0880
19310TIP3    H179345  -0.042   4.926  16.028  1.1911  2.0457 -0.8723
19310TIP3    H279346  -0.003   4.780  16.037 -1.2506  1.4795  1.1490
19311TIP3   OH279347   3.399   1.497   0.374 -0.5596  0.1791 -0.2680
19311TIP3    H179348   3.350   1.524   0.451  0.7958  1.2286  0.2490
19311TIP3    H279349   3.461   1.431   0.406 -1.6085 -1.1565 -0.9200
19312TIP3   OH279350   0.879   0.404   4.971  0.4889 -0.1647 -0.8407
19312TIP3    H179351   0.841   0.480   4.927  0.8216 -0.2301 -1.2506
19312TIP3    H279352   0.972   0.409   4.951  0.3998 -1.1057 -1.5294
19313TIP3   OH279353   5.201   2.649  15.552  0.2133 -0.1986 -0.1727
19313TIP3    H179354   5.165   2.714  15.613 -1.8652 -0.0534 -1.5007
19313TIP3    H279355   5.261   2.699  15.496 -2.2961  0.8898 -1.9836
19314TIP3   OH279356   3.179   1.773  17.187 -0.2880  0.1594 -0.3933
19314TIP3    H179357   3.189   1.697  17.245  0.2422  0.9792  0.6186
19314TIP3    H279358   3.085   1.781  17.173 -0.3132 -0.9169 -0.8200
19315TIP3   OH279359   0.571   6.471   4.061  0.0940 -0.4232  0.6867
19315TIP3    H179360   0.498   6.523   4.095  1.0639 -1.1653  4.0871
19315TIP3    H279361   0.536   6.383   4.052 -0.8507  0.2248 -2.7456
19316TIP3   OH279362   4.957   6.035  16.869 -0.5209  0.1180 -0.5704
19316TIP3    H179363   5.049   6.054  16.854 -0.5372  1.7746  1.1876
19316TIP3    H279364   4.926   5.996  16.787  1.7852 -0.7137 -1.0656
19317TIP3   OH279365   5.268   3.114   5.567 -0.5467  0.6398  0.3094
19317TIP3    H179366   5.189   3.072   5.601 -1.2708  2.5626  1.0676
19317TIP3    H279367   5.336   3.094   5.632 -0.5060 -0.6144 -0.1028
19318TIP3   OH279368   1.617   3.502  10.483  0.4139  0.2934 -0.4610
19318TIP3    H179369   1.654   3.590  10.494  0.8046  0.1126 -0.3087
19318TIP3    H279370   1.690   3.450  10.449 -0.3415  0.4772 -2.4357
19319TIP3   OH279371   6.531   5.217  17.233  0.3775  0.0149  0.1703
19319TIP3    H179372   6.581   5.158  17.177 -0.8400 -0.1282 -0.7830
19319TIP3    H279373   6.466   5.161  17.275 -0.8462  0.6710 -0.8063
19320TIP3   OH279374   1.128   0.100  15.920 -0.6069  0.1724  0.5263
19320TIP3    H179375   1.137   0.095  15.825 -0.1798 -0.8452  0.6114
19320TIP3    H279376   1.196   0.161  15.948 -0.1634 -0.1989  0.2579
19321TIP3   OH279377   2.452   3.989  17.146  0.3814 -0.4338 -0.7372
19321TIP3    H179378   2.423   3.994  17.055  2.4690  0.8071 -1.3545
19321TIP3    H279379   2.475   3.897  17.158  1.2658 -0.3756 -1.8522
19322TIP3   OH279380   1.340   2.276   3.772  0.3708 -0.6882 -0.3619
19322TIP3    H179381   1.287   2.225   3.710  0.6690  1.5596 -2.5560
19322TIP3    H279382   1.287   2.280   3.851 -1.1820 -1.4821 -1.3374
19323TIP3   OH279383   2.610   1.680   4.133  0.2085 -0.1834 -0.0952
19323TIP3    H179384   2.673   1.729   4.185 -1.4328  0.2860  1.4813
19323TIP3    H279385   2.595   1.599   4.182  0.0075 -0.5496 -0.7492
19324TIP3   OH279386   0.804   3.234   4.418 -0.3288  0.2010 -0.2411
19324TIP3    H179387   0.888   3.217   4.460 -0.1735 -1.2217 -1.0692
19324TIP3    H279388   0.767   3.307   4.466  0.8234  0.0286  0.9373
19325TIP3   OH279389   6.328   2.723   2.413 -0.0422 -0.1005 -0.3327
19325TIP3    H179390   6.337   2.742   2.507  1.6672 -0.2365 -0.4466
19325TIP3    H279391   6.331   2.627   2.408  1.4796 -0.0584 -0.6406
19326TIP3   OH279392   4.040   6.681  14.395  0.3350  0.0645  0.2054
19326TIP3    H179393   3.973   6.625  14.435 -0.1783  0.4607 -0.1023
19326TIP3    H279394   4.119   6.627  14.395 -0.1152 -0.5976  0.0699
19327TIP3   OH279395   0.152   2.043   2.574 -0.2536  0.9834  0.1206
19327TIP3    H179396   0.246   2.043   2.594 -0.1965  0.7120 -0.1400
19327TIP3    H279397   0.121   1.959   2.607 -0.3338  0.9201 -0.1135
19328TIP3   OH279398   4.972   6.384   4.284  0.0373  0.2251  0.1306
19328TIP3    H179399   5.006   6.417   4.200  0.6856  0.0550  0.3194
19328TIP3    H279400   5.051   6.358   4.332 -0.5152 -2.8750 -0.5366
19329TIP3   OH279401   3.372   1.246   1.372  0.0482 -1.0523  0.3502
19329TIP3    H179402   3.393   1.300   1.448  0.1740  0.3657 -0.6619
19329TIP3    H279403   3.437   1.176   1.373  0.2432 -0.8617  1.3680
19330TIP3   OH279404   5.291   3.106  12.599 -0.5171 -0.3115 -0.5383
19330TIP3    H179405   5.369   3.161  12.601 -1.2417  0.7977 -1.8635
19330TIP3    H279406   5.240   3.139  12.525 -2.3285 -0.9176  0.4140
19331TIP3   OH279407   5.923   4.932   4.736 -0.0532 -0.4608  0.3762
19331TIP3    H179408   5.904   4.994   4.807 -1.7137 -0.8319  0.2923
19331TIP3    H279409   5.993   4.877   4.771  0.3987  0.5062  1.0225
19332TIP3   OH279410   0.075   0.115   5.182 -0.7126  0.3412 -0.1218
19332TIP3    H179411   0.156   0.082   5.143 -0.7875 -1.8240  1.4293
19332TIP3    H279412   0.007   0.057   5.148 -1.1473  0.1269  1.0982
19333TIP3   OH279413   2.678   5.268  12.718  0.1096  0.3933 -0.1700
19333TIP3    H179414   2.681   5.250  12.624 -0.2376  0.7348 -0.2452
19333TIP3    H279415   2.764   5.240  12.750 -0.0494 -0.4494 -0.4621
19334TIP3   OH279416   6.025   5.104  17.031 -0.7098  0.6121 -0.3708
19334TIP3    H179417   6.097   5.149  17.076 -0.3084 -0.6452  0.2599
19334TIP3    H279418   5.953   5.166  17.034 -0.9388  0.2564  2.7377
19335TIP3   OH279419   1.116   6.363  17.142  0.1699 -0.0645 -0.3698
19335TIP3    H179420   1.085   6.273  17.147 -1.7956  0.7003  1.9188
19335TIP3    H279421   1.201   6.361  17.185 -0.4088 -0.6161  0.7852
19336TIP3   OH279422   2.198   2.303   0.115 -0.8392  0.3654 -0.4692
19336TIP3    H179423   2.243   2.240   0.058  1.0452  1.3563 -0.1013
19336TIP3    H279424   2.225   2.389   0.083 -2.8593  1.0140 -0.5225
19337TIP3   OH279425   6.765   5.432  13.456 -0.1346  0.0981 -0.5310
19337TIP3    H179426   6.791   5.356  13.508  0.2677  1.3203  1.0817
19337TIP3    H279427   6.694   5.472  13.506 -0.9566  0.2966 -1.8232
19338TIP3   OH279428   4.082   3.122   5.185  0.8405  0.7476 -0.4319
19338TIP3    H179429   4.136   3.066   5.129  0.8837  0.8249 -0.4677
19338TIP3    H279430   4.115   3.108   5.273  0.1650 -0.0876 -0.3073
19339TIP3   OH279431   0.101   4.642  16.826 -0.6544 -0.1135  0.0288
19339TIP3    H179432   0.137   4.558  16.798 -0.1222  0.1944 -0.2245
19339TIP3    H279433   0.178   4.694  16.850 -1.0687 -0.1959  1.6026
19340TIP3   OH279434   2.367   5.670   3.356  0.7539 -0.1664 -0.2175
19340TIP3    H179435   2.396   5.731   3.287  0.5696  0.3338  0.1450
19340TIP3    H279436   2.446   5.620   3.378  0.4181 -1.5550 -2.0212
19341TIP3   OH279437   2.932   4.707  11.855 -0.0210 -0.2161  0.1116
19341TIP3    H179438   2.972   4.794  11.868 -1.5202  0.4594  0.2392
19341TIP3    H279439   2.990   4.648  11.903  0.2813  0.8877  1.1589
19342TIP3   OH279440   5.116   0.658   2.492  0.3801  0.3736 -0.5346
19342TIP3    H179441   5.164   0.740   2.501  1.9341 -0.6132  0.4138
19342TIP3    H279442   5.087   0.637   2.581 -2.7416  1.4781 -1.2405
19343TIP3   OH279443   5.409   5.491   0.649 -0.3534  0.8366  0.3637
19343TIP3    H179444   5.466   5.440   0.591 -0.7198  0.7290  0.1016
19343TIP3    H279445   5.455   5.575   0.659 -0.6445  1.1223 -0.6642
19344TIP3   OH279446   0.449   4.627  10.955 -0.2970 -0.1510  0.3232
19344TIP3    H179447   0.454   4.705  11.010 -1.8023 -0.2990  0.7069
19344TIP3    H279448   0.502   4.562  11.001  0.9736  0.6384 -0.0073
19345TIP3   OH279449   0.144   5.460   4.353 -0.2841  0.3241  0.0059
19345TIP3    H179450   0.050   5.461   4.373 -0.5345  0.6216 -1.1336
19345TIP3    H279451   0.174   5.548   4.374  0.1815 -0.3364  2.2919
19346TIP3   OH279452   4.811   2.541   2.886 -0.2428  0.2500  0.0454
19346TIP3    H179453   4.763   2.521   2.805 -0.8457  1.0338  0.2031
19346TIP3    H279454   4.744   2.572   2.947  0.4780  1.5690  0.1943
19347TIP3   OH279455   6.092   4.443   3.833 -0.0152  0.0865  0.0076
19347TIP3    H179456   6.160   4.456   3.766  1.1319 -1.2508  0.8700
19347TIP3    H279457   6.088   4.526   3.879  0.0797  0.6177 -0.9343
19348TIP3   OH279458   2.852   2.144   3.022  0.6959 -0.7479 -0.1262
19348TIP3    H179459   2.942   2.111   3.032  0.4196 -1.6126 -0.4760
19348TIP3    H279460   2.802   2.097   3.089  0.2479 -1.2582 -0.8157
19349TIP3   OH279461   6.516   1.818   2.174  0.1435 -0.2375  0.1167
19349TIP3    H179462   6.597   1.785   2.135  0.7376 -0.5344  1.5760
19349TIP3    H279463   6.514   1.911   2.152  1.0660 -0.1502  0.3906
19350TIP3   OH279464   5.444   0.923   1.039 -0.3458 -0.6187 -0.7124
19350TIP3    H179465   5.392   0.999   1.010  0.6493 -0.2621 -1.5772
19350TIP3    H279466   5.378   0.859   1.067 -1.3385 -0.9221 -3.6233
19351TIP3   OH279467   5.359   5.175   3.969 -0.3240 -0.1714  0.0874
19351TIP3    H179468   5.333   5.252   4.019 -0.9383 -1.1153  1.2607
19351TIP3    H279469   5.388   5.112   4.035 -1.8948 -1.7303 -0.6450
19352TIP3   OH279470   5.515   2.440  16.130 -0.5123 -0.4855 -0.1193
19352TIP3    H179471   5.433   2.401  16.160 -0.9711  0.4940 -0.0745
19352TIP3    H279472   5.508   2.441  16.035 -1.1045  0.7527 -0.0732
19353TIP3   OH279473   3.649   4.900  12.797  0.1581  0.3928 -0.2735
19353TIP3    H179474   3.562   4.932  12.821 -0.1602 -0.1741 -0.6696
19353TIP3    H279475   3.707   4.937  12.864 -0.6403 -0.6978  1.0478
19354TIP3   OH279476   1.976   6.202  14.354 -0.1427  0.4750 -0.6234
19354TIP3    H179477   2.026   6.137  14.404  0.4767  0.6928 -0.9564
19354TIP3    H279478   1.977   6.281  14.409 -0.1845  0.4617 -0.6031
19355TIP3   OH279479   1.215   1.695   5.318  0.6530  0.4436 -0.0753
19355TIP3    H179480   1.219   1.756   5.392 -0.5191  0.0252  0.3526
19355TIP3    H279481   1.224   1.608   5.358 -2.1802  0.0738 -0.1422
19356TIP3   OH279482   3.962   4.367  12.047  0.5213  0.1052 -0.3893
19356TIP3    H179483   4.013   4.417  11.983  1.5839 -0.1974  0.2136
19356TIP3    H279484   3.972   4.276  12.020  1.5827 -0.0880  0.6326
19357TIP3   OH279485   0.681   0.159   1.864 -0.0712  0.1064  0.1643
19357TIP3    H179486   0.662   0.074   1.825 -0.5098 -0.6716  2.0209
19357TIP3    H279487   0.636   0.158   1.948  1.3706  1.4757  0.9921
19358TIP3   OH279488   5.233   1.412  16.417  0.4081 -0.0198 -0.3264
19358TIP3    H179489   5.316   1.451  16.391  0.5339 -1.0864 -1.5461
19358TIP3    H279490   5.229   1.425  16.512  1.6694  0.5989 -0.3575
19359TIP3   OH279491   0.859   3.937   5.833  0.1473  0.4182 -0.1487
19359TIP3    H179492   0.824   3.944   5.744 -2.1579 -0.1095  0.6799
19359TIP3    H279493   0.902   4.022   5.848 -1.5089  1.4252 -0.9317
19360TIP3   OH279494   1.729   5.310  10.660 -0.0474 -0.5695  0.1107
19360TIP3    H179495   1.684   5.231  10.691 -0.9414  0.3389  1.1292
19360TIP3    H279496   1.659   5.372  10.642  0.8284  1.3481  3.0561
19361TIP3   OH279497   3.861   0.363   2.650  0.8065  0.0912 -0.3406
19361TIP3    H179498   3.930   0.347   2.715  0.4261  0.0980  0.0718
19361TIP3    H279499   3.851   0.280   2.605  2.0073  0.4626 -1.3081
19362TIP3   OH279500   3.866   5.960   3.154  0.1456 -0.6326  0.0582
19362TIP3    H179501   3.806   6.001   3.092  1.1423 -1.0021 -1.1783
19362TIP3    H279502   3.847   5.866   3.147  0.7745 -0.7384 -0.2515
19363TIP3   OH279503   3.219   1.293  11.354  0.0834 -0.1011 -0.6344
19363TIP3    H179504   3.182   1.227  11.412  0.0019 -0.0288 -0.6041
19363TIP3    H279505   3.211   1.255  11.266  1.5332 -0.8299 -0.4576
19364TIP3   OH279506   6.388   3.410  15.606 -0.1529  0.1257  0.0817
19364TIP3    H179507   6.481   3.391  15.597  0.0268  1.2573 -0.5757
19364TIP3    H279508   6.346   3.355  15.539  0.3174  1.6630 -1.5066
19365TIP3   OH279509   4.909   2.729   4.120 -0.7265  0.6702  0.5863
19365TIP3    H179510   4.904   2.697   4.029 -0.1506 -0.3416  0.8943
19365TIP3    H279511   4.819   2.726   4.152 -0.8088  0.1912  0.3201
19366TIP3   OH279512   5.496   6.071   5.403  0.0053 -0.0135 -0.0014
19366TIP3    H179513   5.567   6.012   5.379  0.9513  1.2245 -0.2936
19366TIP3    H279514   5.483   6.056   5.497  1.4390  0.5803  0.2977
19367TIP3   OH279515   0.705   1.347  14.650  0.0378  0.1936  0.4450
19367TIP3    H179516   0.659   1.343  14.734  0.1008  1.1683  0.5304
19367TIP3    H279517   0.776   1.410  14.664  1.2406 -1.0918  0.2354
19368TIP3   OH279518   1.186   1.305   3.777  0.5316  0.4479 -0.4854
19368TIP3    H179519   1.144   1.249   3.711  2.5475  0.0455 -1.4735
19368TIP3    H279520   1.241   1.365   3.725 -1.3243  3.1221  0.5740
19369TIP3   OH279521   0.471   2.507  17.155  0.0243  0.6215 -0.1193
19369TIP3    H179522   0.495   2.448  17.227  0.6962  0.8793 -0.1326
19369TIP3    H279523   0.376   2.496  17.147  0.1348 -0.4587 -0.1167
19370TIP3   OH279524   1.202   2.752   0.581  0.1292 -0.1894  0.1154
19370TIP3    H179525   1.278   2.705   0.545  1.1742  0.8417  0.9173
19370TIP3    H279526   1.221   2.844   0.565 -1.2810  0.0396 -0.2627
19371TIP3   OH279527   3.704   2.728  12.956  0.0982 -0.1725  0.2469
19371TIP3    H179528   3.749   2.646  12.978  0.3212  0.2064  1.1941
19371TIP3    H279529   3.611   2.705  12.956  0.0687 -0.0813  1.9937
19372TIP3   OH279530   4.012   0.745   4.598 -0.0967 -0.4041  0.2203
19372TIP3    H179531   3.984   0.772   4.686  2.2999 -1.5360  1.4013
19372TIP3    H279532   4.031   0.827   4.553 -1.8465  0.2132  0.5618
19373TIP3   OH279533   5.963   6.070  10.590 -0.0345 -0.3449  0.1045
19373TIP3    H179534   6.014   6.045  10.513  1.0428 -0.2880  0.7815
19373TIP3    H279535   5.976   6.165  10.597  0.2855 -0.4243  0.6373
19374TIP3   OH279536   5.899   6.312  13.581 -0.1219  0.1939  0.2325
19374TIP3    H179537   5.854   6.293  13.499 -1.3865  4.8884 -0.2894
19374TIP3    H279538   5.829   6.326  13.645  0.7620  0.4767  1.1716
19375TIP3   OH279539   0.990   6.721   3.088 -0.1250 -0.1204 -0.0411
19375TIP3    H179540   0.932   6.660   3.133  0.7047 -1.5038 -0.7976
19375TIP3    H279541   0.974   6.706   2.995  1.7736 -0.8980 -0.2729
19376TIP3   OH279542   3.638   4.967   5.310 -0.0826  0.8480 -0.1995
19376TIP3    H179543   3.547   4.937   5.318 -0.5156  1.8081 -1.4678
19376TIP3    H279544   3.686   4.909   5.369 -1.0888 -1.5742 -1.6670
19377TIP3   OH279545   0.587   1.889  16.169  0.0743  0.5432  0.0603
19377TIP3    H179546   0.639   1.894  16.250  0.2441  2.0978 -0.1286
19377TIP3    H279547   0.612   1.967  16.120 -0.4686 -0.0883 -1.2433
19378TIP3   OH279548   1.698   1.860   1.531 -0.1505  0.1883  0.5140
19378TIP3    H179549   1.734   1.922   1.467  0.4500 -0.4525  0.2242
19378TIP3    H279550   1.774   1.813   1.564 -0.8283 -2.1882 -1.1740
19379TIP3   OH279551   3.034   1.874  14.308 -0.5243 -0.2290 -0.1087
19379TIP3    H179552   3.049   1.962  14.272  0.7516 -0.4841 -0.2278
19379TIP3    H279553   3.101   1.820  14.268 -0.1448 -0.8827  1.3565
19380TIP3   OH279554   6.107   0.728   1.498  0.1802  0.5248 -0.0184
19380TIP3    H179555   6.115   0.660   1.565  0.8484  1.0318  0.4160
19380TIP3    H279556   6.036   0.784   1.529 -0.2912  0.0970 -0.3167
19381TIP3   OH279557   0.624   0.422  15.336  0.3324 -0.6280 -0.3236
19381TIP3    H179558   0.565   0.451  15.406 -1.9201 -3.3363 -0.9869
19381TIP3    H279559   0.580   0.447  15.255  1.9263  0.6367 -0.8247
19382TIP3   OH279560   0.441   4.558   2.214 -0.2242 -0.1356 -0.6349
19382TIP3    H179561   0.461   4.527   2.126 -1.4489 -0.5348 -0.7821
19382TIP3    H279562   0.511   4.523   2.268  1.1919  1.0856 -1.6247
19383TIP3   OH279563   3.852   0.011   0.136  0.5271  0.4446 -0.2345
19383TIP3    H179564   3.919   0.027   0.070  1.5884  0.0804  0.7565
19383TIP3    H279565   3.769   0.017   0.087  1.3325 -0.6206 -1.7522
19384TIP3   OH279566   1.357   4.358   2.934  0.2533 -0.4639 -0.0623
19384TIP3    H179567   1.262   4.354   2.924  0.2756 -0.8375 -0.1695
19384TIP3    H279568   1.372   4.402   3.017 -0.0354 -1.3070  0.4407
19385TIP3   OH279569   3.759   6.158   4.334  0.5135 -0.1531  0.2167
19385TIP3    H179570   3.842   6.173   4.289  1.6441 -0.8797  1.9912
19385TIP3    H279571   3.726   6.245   4.353  0.9711  0.1457 -0.3569
19386TIP3   OH279572   0.050   1.984   6.249  0.2451 -0.0970  0.2135
19386TIP3    H179573  -0.008   1.969   6.323 -2.3741  0.8294 -1.5487
19386TIP3    H279574   0.137   1.995   6.287 -1.1096  0.8295  3.1538
19387TIP3   OH279575   5.636   3.001  14.931  0.4972 -0.6144  0.1195
19387TIP3    H179576   5.569   3.022  14.866 -1.7791 -1.6775  2.0577
19387TIP3    H279577   5.636   2.905  14.936  2.3365 -0.6385 -0.0227
19388TIP3   OH279578   0.171   2.167  16.658 -0.5388 -0.0806 -0.4711
19388TIP3    H179579   0.183   2.236  16.723 -1.2990 -0.9082  0.5556
19388TIP3    H279580   0.087   2.127  16.680 -0.4929 -0.7899 -1.5630
19389TIP3   OH279581   6.307   3.613   2.136  0.1951  0.5014 -0.2407
19389TIP3    H179582   6.251   3.556   2.083 -0.7552  0.7269  0.5232
19389TIP3    H279583   6.248   3.656   2.197  1.5144 -1.1320  2.2863
19390TIP3   OH279584   2.394   3.319  13.458 -0.2437  0.4785  0.3298
19390TIP3    H179585   2.479   3.312  13.415  0.4874  1.7707  1.5509
19390TIP3    H279586   2.365   3.408  13.440 -1.8917 -0.3127 -1.0660
19391TIP3   OH279587   5.712   5.231   0.735  0.5869 -0.2297 -0.1983
19391TIP3    H179588   5.718   5.135   0.738 -0.9059 -0.3028  0.9422
19391TIP3    H279589   5.781   5.262   0.793 -0.5110 -0.6802  1.3635
19392TIP3   OH279590   3.709   0.736  15.158 -0.0130 -0.3199  0.0105
19392TIP3    H179591   3.754   0.662  15.199  1.8854  1.1490  0.6756
19392TIP3    H279592   3.617   0.726  15.184  0.1572 -2.6079 -0.1937
19393TIP3   OH279593   0.293   1.636   2.785 -0.6975 -0.1010 -0.1900
19393TIP3    H179594   0.234   1.622   2.859 -1.8416 -0.5883 -1.1712
19393TIP3    H279595   0.254   1.709   2.737 -0.0574  0.0992 -0.4063
19394TIP3   OH279596   0.705   4.509  17.068 -0.6001 -0.3503 -0.5361
19394TIP3    H179597   0.685   4.595  17.030 -0.2541 -0.1364 -0.2409
19394TIP3    H279598   0.796   4.493  17.044 -0.2082  0.0243  0.6349
19395TIP3   OH279599   5.135   5.942  15.824 -0.4137  0.4646  0.0434
19395TIP3    H179600   5.172   5.876  15.766 -1.4818 -0.2780  0.1863
19395TIP3    H279601   5.208   5.971  15.878  0.0623 -0.6145 -0.0101
19396TIP3   OH279602   0.513   0.680   2.556 -0.1161 -0.3626  0.6402
19396TIP3    H179603   0.466   0.598   2.542  0.0468 -0.3003 -0.2922
19396TIP3    H279604   0.531   0.682   2.650 -1.7467 -0.5168  0.9753
19397TIP3   OH279605   2.375   1.329   4.539 -0.3993  0.4458  0.2887
19397TIP3    H179606   2.303   1.332   4.475  0.7541  0.1681 -1.0611
19397TIP3    H279607   2.409   1.419   4.540  0.9720 -0.0252 -1.1581
19398TIP3   OH279608   0.475   0.179  12.007  0.3934 -0.5632  0.0195
19398TIP3    H179609   0.550   0.154  11.953 -0.1548 -0.6186 -0.7212
19398TIP3    H279610   0.412   0.107  11.995  0.0591 -0.3196  0.3108
19399TIP3   OH279611   6.564   0.884   2.489 -0.4643  0.1125 -0.3005
19399TIP3    H179612   6.566   0.979   2.475  0.3394 -0.2578 -2.9060
19399TIP3    H279613   6.473   0.865   2.511 -1.2489  1.1251 -2.5301
19400TIP3   OH279614   3.550   6.397   6.351 -0.2848  0.1551 -0.0967
19400TIP3    H179615   3.606   6.444   6.413  1.1873 -2.7386  0.8783
19400TIP3    H279616   3.461   6.415   6.380  0.1592  3.2276 -0.4635
19401TIP3   OH279617   1.885   2.452   0.595 -0.1708  0.3137  0.0651
19401TIP3    H179618   1.840   2.527   0.634  0.9523  0.6164  0.7974
19401TIP3    H279619   1.870   2.381   0.657  2.0445  0.9210  1.3588
19402TIP3   OH279620   2.395   5.740   2.913  0.4680  0.2868 -0.4264
19402TIP3    H179621   2.488   5.747   2.891  0.8184 -1.7208  0.2426
19402TIP3    H279622   2.350   5.749   2.829  1.3351  0.3645 -0.8870
19403TIP3   OH279623   2.356   2.855  12.813  0.0176 -0.3226 -0.4180
19403TIP3    H179624   2.376   2.773  12.859 -0.0212 -1.0583 -1.7057
19403TIP3    H279625   2.282   2.892  12.862 -0.0938 -1.1528  0.0526
19404TIP3   OH279626   4.327   2.521  14.812 -0.0238  0.0347  0.1330
19404TIP3    H179627   4.305   2.613  14.828 -0.4944 -0.2296  1.0376
19404TIP3    H279628   4.243   2.475  14.817 -0.0998 -0.1976 -2.2625
19405TIP3   OH279629   1.582   0.961   3.130 -0.2416 -0.4912 -0.6852
19405TIP3    H179630   1.541   0.968   3.044 -0.4410  1.5593 -0.4679
19405TIP3    H279631   1.524   0.905   3.180 -1.6246  0.5920 -1.0534
19406TIP3   OH279632   0.805   4.039   2.295  0.2190  0.5594  0.2012
19406TIP3    H179633   0.756   4.031   2.213  0.8641  0.0955 -0.1541
19406TIP3    H279634   0.773   4.119   2.336 -0.0915  0.8044 -0.5219
19407TIP3   OH279635   5.672   5.872  13.087  0.1659  0.1598  0.1255
19407TIP3    H179636   5.608   5.942  13.098 -0.2572 -0.0115 -1.1117
19407TIP3    H279637   5.677   5.859  12.992  1.6434 -0.1911  0.2393
19408TIP3   OH279638   4.922   4.331   1.331  0.0802 -0.1847 -0.3403
19408TIP3    H179639   4.915   4.425   1.342  1.3763 -0.3004  1.7024
19408TIP3    H279640   4.831   4.300   1.330 -0.3112  0.8751  0.9661
19409TIP3   OH279641   2.478   2.596   2.964 -0.3390  0.4711 -0.1600
19409TIP3    H179642   2.512   2.624   2.879  1.0093  2.7178  1.0760
19409TIP3    H279643   2.525   2.515   2.983 -0.5887 -0.0034 -1.5036
19410TIP3   OH279644   2.129   2.170  11.776 -0.1761 -0.8444 -0.1023
19410TIP3    H179645   2.097   2.111  11.845  0.4630 -0.3503  0.6305
19410TIP3    H279646   2.055   2.228  11.758 -0.9011 -2.0400 -1.0227
19411TIP3   OH279647   5.211   3.501   6.010 -0.3068  0.1757  0.1364
19411TIP3    H179648   5.284   3.513   6.071 -0.0702  2.1081 -0.4900
19411TIP3    H279649   5.142   3.557   6.045 -0.1784  1.2831 -1.3146
19412TIP3   OH279650   3.360   3.869   1.246 -0.0554 -0.1085 -0.0108
19412TIP3    H179651   3.341   3.873   1.153  1.0604  0.0030 -0.2418
19412TIP3    H279652   3.297   3.806   1.281 -0.1683 -0.5041 -0.9171
19413TIP3   OH279653   1.302   4.344   3.206  0.6008 -0.8148 -0.9528
19413TIP3    H179654   1.362   4.321   3.278  2.4266  0.5440 -1.9920
19413TIP3    H279655   1.215   4.332   3.243  1.4474  2.3772  2.4168
19414TIP3   OH279656   6.428   3.512   5.087 -0.2188 -0.1896  0.1969
19414TIP3    H179657   6.404   3.422   5.064 -0.7435 -0.2541  0.9672
19414TIP3    H279658   6.524   3.512   5.086 -0.1875 -1.1253  1.5175
19415TIP3   OH279659   4.273   6.359  16.267  0.8782  0.0543 -0.0671
19415TIP3    H179660   4.202   6.297  16.250  1.0253 -0.5468  1.4573
19415TIP3    H279661   4.272   6.418  16.192 -0.6646 -0.4841 -0.4792
19416TIP3   OH279662   2.005   3.883  16.696 -0.3239 -0.3031 -0.6027
19416TIP3    H179663   2.077   3.945  16.708 -0.2139 -0.3972 -0.7673
19416TIP3    H279664   1.927   3.938  16.687  0.2745  0.0441 -4.6458
19417TIP3   OH279665   4.954   5.205  13.476 -0.7507 -0.8267 -0.2166
19417TIP3    H179666   4.950   5.204  13.380  1.5222 -2.0169 -0.3406
19417TIP3    H279667   4.936   5.296  13.500  2.1144  0.2785 -1.9927
19418TIP3   OH279668   6.541   3.488  14.069  0.1997 -0.6769 -0.2114
19418TIP3    H179669   6.574   3.550  14.004  1.6380 -0.3619  0.7836
19418TIP3    H279670   6.450   3.472  14.044  0.2231  0.7899 -1.2695
19419TIP3   OH279671   0.806   1.660  12.843 -0.0554 -1.0879  0.1723
19419TIP3    H179672   0.734   1.638  12.902  0.5785  0.0942  1.4061
19419TIP3    H279673   0.844   1.575  12.819 -1.4459 -1.6847  0.0123
19420TIP3   OH279674   3.012   4.092   5.896 -0.2375 -0.2785  0.5924
19420TIP3    H179675   3.093   4.142   5.891 -0.0861 -0.5828 -0.0671
19420TIP3    H279676   3.039   4.001   5.884 -0.7972 -0.2851 -0.7091
19421TIP3   OH279677   5.854   4.210   2.185  0.4269 -0.0484 -0.3525
19421TIP3    H179678   5.855   4.226   2.279  1.4639 -0.7858 -0.2282
19421TIP3    H279679   5.766   4.235   2.157 -0.1286 -0.5307  0.9297
19422TIP3   OH279680   5.584   6.777   2.013  0.5469  0.0125  0.4816
19422TIP3    H179681   5.646   6.784   2.086  1.2146 -1.3591  0.0667
19422TIP3    H279682   5.625   6.715   1.953 -0.7142 -0.0368 -0.3408
19423TIP3   OH279683   5.937   0.638  13.989 -0.0177 -0.3071  0.5457
19423TIP3    H179684   5.938   0.633  14.085 -0.4752  1.2481  0.6451
19423TIP3    H279685   5.931   0.547  13.961  1.3117 -0.8648  1.9746
19424TIP3   OH279686   2.806   5.290  11.891 -0.5457  0.8551 -0.1815
19424TIP3    H179687   2.806   5.198  11.915  3.1694  0.7868 -0.1270
19424TIP3    H279688   2.851   5.293  11.807  0.1528  2.6713  0.2249
19425TIP3   OH279689   0.200   0.578   3.466 -0.0800  0.0107 -0.2001
19425TIP3    H179690   0.168   0.514   3.529  0.9292 -1.1964 -0.9093
19425TIP3    H279691   0.137   0.650   3.471 -1.7157 -1.4205 -0.0539
19426TIP3   OH279692   1.014   2.497  11.907  0.2739 -0.3849 -0.5995
19426TIP3    H179693   0.920   2.509  11.893  0.1375 -0.1956  0.3918
19426TIP3    H279694   1.033   2.410  11.873 -0.2499 -0.3894 -0.8823
19427TIP3   OH279695   4.921   2.000   0.443  0.1015 -0.6905  0.6282
19427TIP3    H179696   4.985   1.989   0.514  0.1951 -0.6477  0.5516
19427TIP3    H279697   4.875   2.080   0.465  1.1097  0.1050 -0.1095
19428TIP3   OH279698   6.173   4.409   1.579  0.1895 -0.0926  0.3544
19428TIP3    H179699   6.247   4.450   1.535  0.4988 -0.4634  0.5314
19428TIP3    H279700   6.209   4.373   1.660 -0.2964  0.2261  0.7196
19429TIP3   OH279701   3.270   4.842  16.052 -0.2104 -0.0900 -0.2107
19429TIP3    H179702   3.219   4.838  15.971 -0.7000  1.1017  0.0328
19429TIP3    H279703   3.211   4.806  16.119 -0.1735 -0.1327 -0.2028
19430TIP3   OH279704   3.181   4.383   0.186 -0.0608  0.8853  0.0749
19430TIP3    H179705   3.245   4.311   0.190 -0.0538  0.8510 -0.5156
19430TIP3    H279706   3.096   4.338   0.187 -0.0511  0.7425 -2.0013
19431TIP3   OH279707   2.331   1.148  14.369 -0.1365 -0.5889  0.3249
19431TIP3    H179708   2.238   1.127  14.380 -0.3199 -0.2639 -0.5625
19431TIP3    H279709   2.365   1.078  14.314 -0.0179 -0.3184  0.0553
19432TIP3   OH279710   4.684   4.427  16.592  0.1767  0.3721 -0.3350
19432TIP3    H179711   4.664   4.333  16.591  0.0994  0.3934 -1.0808
19432TIP3    H279712   4.611   4.468  16.545  0.6388  0.7128 -0.7648
19433TIP3   OH279713   6.671   5.825   1.146  0.3852  0.1783  0.4230
19433TIP3    H179714   6.710   5.739   1.132  0.0266  0.1985 -0.7093
19433TIP3    H279715   6.743   5.886   1.134  0.1394  0.1816 -1.1510
19434TIP3   OH279716   3.432   3.815   4.989  0.1158 -0.5447 -0.4115
19434TIP3    H179717   3.515   3.843   4.949 -0.5159  0.4570 -1.0427
19434TIP3    H279718   3.457   3.743   5.047  1.8986  1.7140  1.7558
19435TIP3   OH279719   5.710   4.723   2.980 -0.0060 -0.0562 -0.1250
19435TIP3    H179720   5.771   4.793   3.001  1.6098 -1.3790 -0.2647
19435TIP3    H279721   5.627   4.750   3.018  0.6669  1.7893  0.0519
19436TIP3   OH279722   4.566   4.926  12.842  0.4651 -0.3769  0.4041
19436TIP3    H179723   4.524   4.975  12.912 -0.7725 -0.3540 -0.3363
19436TIP3    H279724   4.586   4.841  12.880  0.4910 -0.1035  1.0005
19437TIP3   OH279725   6.217   4.993  13.010  0.0978  0.7563  0.3524
19437TIP3    H179726   6.248   5.083  13.023 -0.7857  0.8942  1.6241
19437TIP3    H279727   6.123   4.997  13.029  0.2386 -0.6214  1.4463
19438TIP3   OH279728   1.502   4.331  12.750  0.6555  0.1491  0.3809
19438TIP3    H179729   1.526   4.248  12.791  0.4287 -0.6697 -1.1047
19438TIP3    H279730   1.409   4.323  12.731  0.6607  0.6882  0.1123
19439TIP3   OH279731   4.838   4.786   0.656  0.6754  0.7440  0.8547
19439TIP3    H179732   4.816   4.744   0.739  1.1859  0.5967  0.9164
19439TIP3    H279733   4.773   4.855   0.647 -0.4434 -0.3411  0.5281
19440TIP3   OH279734   5.675   2.512   2.485  0.1307  0.3454 -0.3308
19440TIP3    H179735   5.739   2.502   2.555 -0.8457 -0.2374  0.4926
19440TIP3    H279736   5.592   2.482   2.523 -1.1275  3.3145 -0.5837
19441TIP3   OH279737   4.671   0.635   5.534 -0.1479 -0.1328 -0.3036
19441TIP3    H179738   4.597   0.579   5.554 -0.1364  0.0491  0.2478
19441TIP3    H279739   4.674   0.698   5.606 -1.9388  2.4104 -2.3503
19442TIP3   OH279740   5.747   0.854  14.629 -0.1402  0.0608 -0.2960
19442TIP3    H179741   5.815   0.790  14.649  0.8307  1.1798  0.0335
19442TIP3    H279742   5.706   0.822  14.549  0.0062 -1.2301  0.1443
19443TIP3   OH279743   6.716   6.143  12.884 -0.2826  0.4313  0.2813
19443TIP3    H179744   6.714   6.198  12.805 -0.2680  1.3616  0.9183
19443TIP3    H279745   6.693   6.203  12.955 -0.6114 -0.4730  0.9485
19444TIP3   OH279746   2.679   4.752   5.233 -0.0362  0.2561 -0.4381
19444TIP3    H179747   2.757   4.777   5.284 -0.7902  1.9333 -0.0858
19444TIP3    H279748   2.607   4.761   5.295 -0.6314 -0.4140 -1.0322
19445TIP3   OH279749   1.430   5.813  11.152  0.3953  0.2927  0.0770
19445TIP3    H179750   1.472   5.894  11.182  0.3213 -0.5470  2.5665
19445TIP3    H279751   1.370   5.841  11.083  0.8444  2.2781  0.4670
19446TIP3   OH279752   5.576   4.791  15.002 -0.6242  0.3904  0.4869
19446TIP3    H179753   5.622   4.732  14.942 -1.9767 -0.4240  0.2283
19446TIP3    H279754   5.645   4.841  15.045  0.5369 -1.2795  0.5833
19447TIP3   OH279755   6.467   1.910  15.074 -0.2811 -1.0000  0.0738
19447TIP3    H179756   6.392   1.852  15.086  0.3791 -2.3596 -2.0305
19447TIP3    H279757   6.521   1.866  15.007  0.3705  1.8823 -1.3858
19448TIP3   OH279758   3.440   4.466  13.586  0.4566  0.4811 -0.0120
19448TIP3    H179759   3.520   4.419  13.562 -0.0881 -0.7457  0.5737
19448TIP3    H279760   3.441   4.468  13.682 -0.8690 -0.6670  0.0352
19449TIP3   OH279761   1.015   0.847   3.930  0.9170  0.0133 -0.5992
19449TIP3    H179762   1.087   0.900   3.898  0.9254  0.3337 -0.0401
19449TIP3    H279763   1.014   0.771   3.872 -0.9898  2.0206 -3.3375
19450TIP3   OH279764   2.969   2.113   0.344  0.7285 -0.2051  0.2803
19450TIP3    H179765   2.887   2.064   0.345 -1.0444  2.6223  1.9446
19450TIP3    H279766   3.025   2.065   0.284 -2.7628 -1.2502 -2.2984
19451TIP3   OH279767   4.257   3.256  15.393 -0.1544  0.1695  0.8033
19451TIP3    H179768   4.189   3.189  15.403  0.7982 -1.2293 -1.5584
19451TIP3    H279769   4.332   3.220  15.439 -0.6849  1.2822  2.5913
19452TIP3   OH279770   3.086   6.097  17.000  0.5336 -0.2518  0.3851
19452TIP3    H179771   3.030   6.124  16.928 -2.6199 -0.9230  2.4701
19452TIP3    H279772   3.067   6.160  17.070  0.5474 -1.9304  1.9298
19453TIP3   OH279773   4.488   3.779   5.744 -0.1486  0.1771  0.3168
19453TIP3    H179774   4.524   3.804   5.830 -0.9980  3.4849 -0.2114
19453TIP3    H279775   4.506   3.855   5.688 -0.6562 -1.4719 -2.1520
19454TIP3   OH279776   4.351   3.917   0.869 -0.2864  0.0129  0.4480
19454TIP3    H179777   4.402   3.862   0.928 -0.9642  1.1152  2.1314
19454TIP3    H279778   4.324   3.992   0.924  0.2602  1.7923 -1.6362
19455TIP3   OH279779   6.314   3.072  14.552 -0.1150  0.1865  0.6202
19455TIP3    H179780   6.260   3.118  14.616 -0.6091 -0.8166  0.9243
19455TIP3    H279781   6.253   3.011  14.509  0.1408  1.0137 -0.9737
19456TIP3   OH279782   3.103   0.636  13.597  0.2520  0.1213  0.1556
19456TIP3    H179783   3.074   0.573  13.531  0.4889  2.0017 -1.7908
19456TIP3    H279784   3.157   0.698  13.549  0.3811  1.5796  2.1222
19457TIP3   OH279785   2.056   0.294   3.223 -0.3001 -0.5549 -0.2749
19457TIP3    H179786   2.135   0.298   3.168  0.1460 -0.7012  0.3455
19457TIP3    H279787   2.087   0.319   3.310 -1.1138  0.2313 -0.2091
19458TIP3   OH279788   5.906   1.885  13.296  0.0276 -0.2051  0.0318
19458TIP3    H179789   5.884   1.889  13.389  0.4004  1.0086  0.0747
19458TIP3    H279790   5.822   1.886  13.251 -0.1298 -0.0072  0.3274
19459TIP3   OH279791   1.979   3.162   1.269  0.1790  0.0563  0.2340
19459TIP3    H179792   1.907   3.225   1.265 -1.2263 -1.5511 -0.5706
19459TIP3    H279793   2.010   3.156   1.179  0.4272 -0.2706  0.3419
19460TIP3   OH279794   5.968   0.696  14.627 -0.1390 -0.2429  0.0592
19460TIP3    H179795   5.911   0.621  14.612 -0.8502  0.0862  1.0480
19460TIP3    H279796   6.017   0.672  14.706  0.5777 -0.2181 -0.3757
19461TIP3   OH279797   6.423   4.932   0.444 -0.1601 -0.4685  0.6675
19461TIP3    H179798   6.366   4.895   0.377  0.3874  0.7855 -0.5158
19461TIP3    H279799   6.364   4.978   0.503 -0.4548  0.2330 -0.1618
19462TIP3   OH279800   3.972   1.093  15.264 -0.1851 -0.0375 -0.2014
19462TIP3    H179801   3.985   1.075  15.170  1.3741 -1.3196  0.2449
19462TIP3    H279802   3.980   1.008  15.306  1.7482  0.9078  1.3873
19463TIP3   OH279803   6.031   2.043  16.651 -0.0611  0.0811 -0.3812
19463TIP3    H179804   5.987   2.035  16.735  0.0338  0.0540 -0.3320
19463TIP3    H279805   5.977   2.103  16.600 -0.0230  0.2333 -0.2377
19464TIP3   OH279806   5.846   3.390  13.700 -0.0584  0.2030  0.1434
19464TIP3    H179807   5.761   3.435  13.700 -0.2550 -0.1589 -0.0114
19464TIP3    H279808   5.874   3.391  13.609 -0.0216  0.0941  0.1534
19465TIP3   OH279809   2.111   4.464  17.150  0.8691 -0.1772 -0.1525
19465TIP3    H179810   2.107   4.552  17.113  0.5588 -0.9360 -1.9330
19465TIP3    H279811   2.183   4.422  17.103  0.7237 -1.0265  0.3851
19466TIP3   OH279812   5.551   5.791  11.545 -0.3038 -0.1021 -0.4808
19466TIP3    H179813   5.640   5.826  11.541  0.0837 -1.0218  0.0890
19466TIP3    H279814   5.508   5.825  11.466  0.2348  1.1852 -0.2254
19467TIP3   OH279815   5.537   1.445   3.712 -0.6983  0.2479  0.7265
19467TIP3    H179816   5.477   1.504   3.757  0.1215  1.2856  0.4805
19467TIP3    H279817   5.620   1.455   3.758  0.0498  1.0322 -0.7626
19468TIP3   OH279818   0.928   0.938   1.202  0.1789  0.3020 -0.0814
19468TIP3    H179819   0.865   0.946   1.131 -0.7651 -0.3184  0.6845
19468TIP3    H279820   0.895   0.867   1.257  3.0917 -2.1114 -1.2624
19469TIP3   OH279821   5.321   4.822  15.935 -0.0927 -0.3543  0.0198
19469TIP3    H179822   5.314   4.899  15.993 -1.9102 -0.6088  0.1654
19469TIP3    H279823   5.381   4.850  15.865 -0.4156  1.0490  0.2865
19470TIP3   OH279824   0.110   2.164  12.664  0.7229  0.3315  0.0951
19470TIP3    H179825   0.099   2.213  12.746 -2.9722 -1.6657  0.9204
19470TIP3    H279826   0.069   2.220  12.598 -0.3069 -0.0330  0.4156
19471TIP3   OH279827   0.894   6.066   3.756 -0.1041 -0.0024  0.7774
19471TIP3    H179828   0.875   5.973   3.743  0.2160 -0.0060  0.3116
19471TIP3    H279829   0.951   6.068   3.833  2.2113 -0.4591 -0.8695
19472TIP3   OH279830   0.641   2.893  13.100 -0.0958 -0.1684  0.2335
19472TIP3    H179831   0.579   2.820  13.102  0.4944 -0.6559  1.2775
19472TIP3    H279832   0.697   2.878  13.176  0.9685  0.5523 -0.4040
19473TIP3   OH279833   3.974   5.180   1.395  0.2343  0.7100  0.0152
19473TIP3    H179834   4.036   5.244   1.361  0.6110 -0.5279 -1.6756
19473TIP3    H279835   3.895   5.193   1.343  0.1128  0.1883  0.0662
19474TIP3   OH279836   0.274   5.272  11.099 -0.2309 -0.3610 -0.3367
19474TIP3    H179837   0.290   5.238  11.187  0.6976 -0.1503 -0.4133
19474TIP3    H279838   0.182   5.252  11.081 -0.5363 -0.0190  0.8445
19475TIP3   OH279839   4.569   6.635  14.259  0.4394  0.1721 -0.4576
19475TIP3    H179840   4.581   6.606  14.350  0.0227 -0.9702 -0.7617
19475TIP3    H279841   4.592   6.559  14.206  0.7664  0.8664 -1.3167
19476TIP3   OH279842   1.528   5.185   1.247 -0.4306  1.0239  0.2122
19476TIP3    H179843   1.453   5.175   1.305 -0.7746  1.6402 -0.1250
19476TIP3    H279844   1.603   5.190   1.306 -0.7779  1.6426  0.5976
19477TIP3   OH279845   5.029   4.975  12.619 -0.5268 -0.9290  0.1111
19477TIP3    H179846   4.935   4.958  12.628 -0.4177 -0.6653  1.9451
19477TIP3    H279847   5.070   4.890  12.636 -0.3870 -0.7955  0.4518
19478TIP3   OH279848   0.568   5.192  13.342  0.1177  0.2619 -0.0155
19478TIP3    H179849   0.513   5.170  13.417 -0.5752  0.8707 -0.3346
19478TIP3    H279850   0.516   5.166  13.266  0.5643  0.2036 -0.3034
19479TIP3   OH279851   6.075   3.756  14.825 -0.0353 -0.2302 -0.3369
19479TIP3    H179852   6.169   3.739  14.830 -0.0090 -0.0875 -0.3563
19479TIP3    H279853   6.037   3.672  14.800  0.0371 -0.4218  0.1873
19480TIP3   OH279854   3.225   6.769   2.337  0.0820  0.3173 -0.2724
19480TIP3    H179855   3.311   6.810   2.337  0.4192 -0.3708 -0.9759
19480TIP3    H279856   3.174   6.819   2.401  0.9623  0.8067  0.0523
19481TIP3   OH279857   1.190   2.154   4.949 -0.6207  0.1501  0.1495
19481TIP3    H179858   1.262   2.091   4.953  0.3362  1.1488 -1.1286
19481TIP3    H279859   1.114   2.105   4.982 -0.0188 -1.8391 -1.3216
19482TIP3   OH279860   0.980   5.849  11.535 -0.1952  0.4746 -0.1539
19482TIP3    H179861   0.949   5.933  11.568 -1.8995  0.5770 -1.8907
19482TIP3    H279862   0.900   5.796  11.526  0.4533 -0.2266 -2.0480
19483TIP3   OH279863   6.180   4.354  16.512 -0.0427 -0.0042  0.1096
19483TIP3    H179864   6.220   4.281  16.558  1.5383  1.8307  1.7599
19483TIP3    H279865   6.237   4.370  16.437 -0.2988 -0.3618 -0.1615
19484TIP3   OH279866   5.284   3.964  14.543 -0.1642  0.6996 -0.3318
19484TIP3    H179867   5.191   3.952  14.559  0.2135 -2.7356 -0.2212
19484TIP3    H279868   5.301   3.917  14.461  1.4579  1.2501 -0.3365
19485TIP3   OH279869   0.819   3.333  12.691 -0.3073  0.4770 -0.0970
19485TIP3    H179870   0.725   3.329  12.673 -0.1521 -0.5781 -0.6845
19485TIP3    H279871   0.859   3.352  12.607 -0.0632  2.1001  0.3636
19486TIP3   OH279872   2.170   5.185  16.147  0.2208 -0.0837  0.4603
19486TIP3    H179873   2.120   5.192  16.229 -0.1914 -1.6231  0.3473
19486TIP3    H279874   2.159   5.270  16.105 -0.8295  0.1939  1.2782
19487TIP3   OH279875   6.235   6.186   1.598 -0.2637 -0.3045  0.1259
19487TIP3    H179876   6.293   6.196   1.523 -0.9609 -0.8420 -0.4977
19487TIP3    H279877   6.164   6.248   1.583  0.6655  1.1053  1.4146
19488TIP3   OH279878   3.227   0.603   1.850 -0.1313 -0.1784  0.2467
19488TIP3    H179879   3.238   0.545   1.925  0.5385  0.4042  0.6059
19488TIP3    H279880   3.236   0.545   1.774  0.9766 -0.4792  0.5975
19489TIP3   OH279881   5.033   0.846  16.481 -0.3259  0.6291 -0.5026
19489TIP3    H179882   4.998   0.909  16.544 -0.1726  0.6166 -0.4056
19489TIP3    H279883   5.100   0.798  16.530 -0.8021  0.0396 -0.4276
19490TIP3   OH279884   3.253   1.970   1.733  0.2969  0.7666  0.6780
19490TIP3    H179885   3.198   2.031   1.685  0.5540  1.1975  0.9343
19490TIP3    H279886   3.264   1.896   1.673  2.8690  2.4748 -1.0545
19491TIP3   OH279887   1.735   0.040   4.989  0.2634  0.1757  0.1437
19491TIP3    H179888   1.824   0.072   4.973  0.3379  0.4688  1.1435
19491TIP3    H279889   1.678   0.103   4.944  0.6325 -1.2779 -2.5016
19492TIP3   OH279890   5.458   2.202  11.534 -0.4161 -0.1659 -0.2597
19492TIP3    H179891   5.451   2.111  11.562  0.3242  0.6160  2.5688
19492TIP3    H279892   5.535   2.204  11.477 -0.7269 -1.3818 -0.7270
19493TIP3   OH279893   1.583   2.410   4.053  0.1273  0.1360 -0.3970
19493TIP3    H179894   1.582   2.482   4.116 -0.4230  0.0536 -0.3108
19493TIP3    H279895   1.491   2.383   4.046  0.2051  0.0428 -1.1111
19494TIP3   OH279896   1.672   5.184   0.884 -0.4415  0.2701  0.0281
19494TIP3    H179897   1.741   5.184   0.818  1.0133  1.3165  1.5135
19494TIP3    H279898   1.684   5.102   0.933 -0.3826  0.3516  0.1510
19495TIP3   OH279899   2.121   4.849   4.166  0.2853  0.1174  0.2475
19495TIP3    H179900   2.172   4.780   4.123  1.3720  0.1351  1.4972
19495TIP3    H279901   2.172   4.928   4.151  0.0218  0.3309  0.4989
19496TIP3   OH279902   5.039   3.654   4.345  0.2646 -0.1444  0.1980
19496TIP3    H179903   5.044   3.595   4.270  0.9144  1.6190 -1.1588
19496TIP3    H279904   5.101   3.618   4.408  1.0395 -0.6202 -0.8301
19497TIP3   OH279905   0.181   1.872   1.181 -0.4983 -0.7389  0.2540
19497TIP3    H179906   0.163   1.791   1.229 -1.2983 -1.5682 -1.4305
19497TIP3    H279907   0.098   1.918   1.180 -0.1226 -0.0325  0.9129
19498TIP3   OH279908   0.260   4.238  15.444 -0.0538 -0.4766 -0.0660
19498TIP3    H179909   0.277   4.160  15.498  0.6131  0.1336  0.6230
19498TIP3    H279910   0.334   4.295  15.462 -0.9718  0.6797  0.0821
19499TIP3   OH279911   4.035   4.700  12.771  0.3458 -0.1377 -0.5922
19499TIP3    H179912   4.111   4.659  12.730  0.8258  1.2800 -1.1439
19499TIP3    H279913   4.055   4.794  12.771 -1.7408  0.3226 -1.4232
19500TIP3   OH279914   5.372   3.614  12.215  0.2233 -0.2480  0.2304
19500TIP3    H179915   5.414   3.697  12.238  1.3729 -0.8853  0.4355
19500TIP3    H279916   5.283   3.622  12.250  0.2175  1.0303 -0.0562
19501TIP3   OH279917   0.645   5.822   0.796 -0.0689 -0.9508 -0.0403
19501TIP3    H179918   0.711   5.813   0.865  1.8100 -0.4109 -1.7324
19501TIP3    H279919   0.657   5.746   0.740  0.7846  0.3790 -1.7203
19502TIP3   OH279920   6.447   5.117   5.926 -0.4680  0.1335 -0.4078
19502TIP3    H179921   6.452   5.094   6.019 -0.1435  2.3608  0.1587
19502TIP3    H279922   6.356   5.143   5.912 -0.0329  1.8014 -0.2004
19503TIP3   OH279923   0.097   1.461  10.539 -0.1407 -0.3296  0.7089
19503TIP3    H179924   0.156   1.517  10.490 -0.0007  0.3755  1.6751
19503TIP3    H279925   0.045   1.416  10.472  0.9247 -0.3503 -0.1118
19504TIP3   OH279926   0.096   0.076   1.322 -0.2621  0.0650  0.1511
19504TIP3    H179927   0.030   0.070   1.253  0.1241  0.5170 -0.2616
19504TIP3    H279928   0.092   0.166   1.353  1.6642  0.7348 -1.4059
19505TIP3   OH279929   3.569   0.441  11.376  0.0297  0.3911 -0.1609
19505TIP3    H179930   3.510   0.366  11.373  0.6433 -0.0549 -2.8360
19505TIP3    H279931   3.636   0.421  11.310  2.0905  1.7531  1.4601
19506TIP3   OH279932   5.896   5.388  13.934 -1.2381 -0.3531  0.6350
19506TIP3    H179933   5.920   5.426  13.849 -1.2319  0.4584  0.9945
19506TIP3    H279934   5.905   5.293  13.921 -1.7892 -0.2739 -0.4403
19507TIP3   OH279935   3.525   4.324  14.642 -0.0615  0.3580  0.0458
19507TIP3    H179936   3.432   4.344  14.628 -0.0934  0.7257  0.7388
19507TIP3    H279937   3.571   4.401  14.610 -0.0806  0.7829  1.0193
19508TIP3   OH279938   5.772   0.127  12.807  0.0203 -0.5529  0.0971
19508TIP3    H179939   5.826   0.062  12.852 -1.1603 -1.2587  0.5159
19508TIP3    H279940   5.685   0.087  12.802 -0.3795  0.4197 -0.8889
19509TIP3   OH279941   4.498   5.733  11.290 -0.1518 -0.2785  0.1699
19509TIP3    H179942   4.528   5.696  11.374  0.1957 -1.2576 -0.3752
19509TIP3    H279943   4.435   5.669  11.257 -0.5893  0.3003 -0.1312
19510TIP3   OH279944   4.406   2.111  14.066  0.0972 -0.9217 -0.5352
19510TIP3    H179945   4.434   2.054  13.994  1.4962  0.5309 -1.1589
19510TIP3    H279946   4.457   2.191  14.055  0.6149 -0.8128  2.2900
19511TIP3   OH279947   1.861   5.510  12.948 -0.0376  0.1588  0.8439
19511TIP3    H179948   1.767   5.504  12.966  0.0397 -0.2330  1.1251
19511TIP3    H279949   1.901   5.452  13.013  0.4606  1.0061  1.2995
19512TIP3   OH279950   6.117   2.209  12.561  0.3256  0.1618 -0.2636
19512TIP3    H179951   6.071   2.277  12.611  0.1154 -1.2392  1.4869
19512TIP3    H279952   6.131   2.139  12.624  0.1189 -1.6307 -2.1726
19513TIP3   OH279953   5.411   0.473   2.112 -0.0801  0.3416 -0.5093
19513TIP3    H179954   5.376   0.384   2.102 -0.0374  0.1449  1.0937
19513TIP3    H279955   5.487   0.474   2.053  1.0903 -1.3323  0.9058
19514TIP3   OH279956   1.137   0.885   4.935  0.2147  0.6440  0.1050
19514TIP3    H179957   1.149   0.799   4.896  0.6988  0.6638  0.2074
19514TIP3    H279958   1.105   0.940   4.863 -1.1152  0.1334  0.2879
19515TIP3   OH279959   0.147   2.863  12.645  0.2667 -0.1650  0.1480
19515TIP3    H179960   0.210   2.890  12.711  0.8082 -0.6843 -0.1487
19515TIP3    H279961   0.164   2.769  12.632 -0.8099 -0.3973  0.3356
19516TIP3   OH279962   1.641   0.326  15.990  0.1298 -0.4810 -0.2321
19516TIP3    H179963   1.603   0.241  15.968  0.3340 -0.7985  0.6374
19516TIP3    H279964   1.733   0.307  16.007  0.0356 -0.1898  0.6000
19517TIP3   OH279965   2.519   1.590  14.829 -0.2209 -0.0489 -0.0340
19517TIP3    H179966   2.592   1.603  14.768 -0.6244  2.7132 -0.0067
19517TIP3    H279967   2.513   1.673  14.877 -1.0140 -1.5585  2.5756
19518TIP3   OH279968   4.721   1.878  13.812 -0.1526 -0.4386  0.4136
19518TIP3    H179969   4.730   1.865  13.718  1.2169  0.3203  0.4342
19518TIP3    H279970   4.670   1.958  13.821 -0.7661 -0.8145  0.3244
19519TIP3   OH279971   0.187   4.479  15.919 -0.0932 -0.4575  0.3336
19519TIP3    H179972   0.250   4.443  15.858  0.8499 -0.2202  1.1556
19519TIP3    H279973   0.235   4.547  15.967 -1.3180  0.5857  0.1036
19520TIP3   OH279974   5.531   2.637  11.665  0.1591  0.9561 -0.0397
19520TIP3    H179975   5.587   2.655  11.740  1.9730 -0.3645 -1.0279
19520TIP3    H279976   5.442   2.655  11.696  0.8929  0.6185  2.3440
19521TIP3   OH279977   5.278   5.451   3.663 -0.1630 -0.8211 -0.5183
19521TIP3    H179978   5.368   5.437   3.634 -0.8546 -0.8438 -2.7739
19521TIP3    H279979   5.243   5.362   3.675 -0.6980 -0.8939 -2.3872
19522TIP3   OH279980   3.494   3.650   5.222 -0.9023 -0.0786 -0.2362
19522TIP3    H179981   3.571   3.593   5.219 -0.3748  0.6919 -2.0913
19522TIP3    H279982   3.423   3.592   5.251  0.3014 -0.8671  1.1895
19523TIP3   OH279983   5.279   5.859  16.657  0.5077  0.3476  0.0535
19523TIP3    H179984   5.238   5.921  16.596  0.9621 -0.5232 -1.1459
19523TIP3    H279985   5.229   5.869  16.738 -1.1980  0.2942 -0.9665
19524TIP3   OH279986   2.295   3.908   4.374  0.2180 -0.3154 -0.2073
19524TIP3    H179987   2.221   3.890   4.317  0.2695  1.7224 -0.9697
19524TIP3    H279988   2.307   3.828   4.425 -0.5236 -1.7595 -2.2682
19525TIP3   OH279989   2.588   2.582   2.176  0.5208  0.0481  0.1052
19525TIP3    H179990   2.570   2.488   2.174 -0.1962  0.1805  0.0386
19525TIP3    H279991   2.643   2.594   2.253 -0.3949 -0.2570  0.8189
19526TIP3   OH279992   5.984   4.781   0.094 -0.4118 -0.2219  0.5647
19526TIP3    H179993   5.990   4.699   0.045  0.2660  0.4157 -0.4484
19526TIP3    H279994   5.904   4.772   0.146 -1.3818 -0.7584 -0.9694
19527TIP3   OH279995   5.369   3.009   5.793 -0.0638  0.6877 -0.6968
19527TIP3    H179996   5.327   3.082   5.839  1.0602  1.7136 -1.2463
19527TIP3    H279997   5.376   2.940   5.859  0.1451  1.5943  0.2580
19528TIP3   OH279998   1.842   1.910   2.082  0.6831  0.2181 -0.0079
19528TIP3    H179999   1.864   1.849   2.152 -1.6920  2.6451  2.9927
19528TIP3    H280000   1.925   1.954   2.061  1.7755 -1.8083 -0.0362
19529TIP3   OH280001   6.641   0.699  15.771 -0.1270 -0.4346  0.2411
19529TIP3    H180002   6.615   0.610  15.748  0.9316 -0.7505  0.2307
19529TIP3    H280003   6.722   0.688  15.821  0.1768  0.5407 -0.0226
19530TIP3   OH280004   0.350   5.921   0.389 -0.0903  0.0410 -0.0114
19530TIP3    H180005   0.321   5.914   0.298  0.6075 -0.1803 -0.2211
19530TIP3    H280006   0.382   5.834   0.411 -1.0651 -0.1278  0.7253
19531TIP3   OH280007   4.248   2.060  14.651  0.0466  0.0294  0.0983
19531TIP3    H180008   4.200   2.057  14.734 -1.8154 -3.4529 -0.9609
19531TIP3    H280009   4.183   2.031  14.586  3.6001 -5.4521 -1.3407
19532TIP3   OH280010   2.351   4.344  12.636 -0.3169 -0.0785 -0.4004
19532TIP3    H180011   2.424   4.404  12.650  1.1327 -1.6799 -0.9558
19532TIP3    H280012   2.361   4.278  12.705 -3.4112  1.6822  1.8732
19533TIP3   OH280013   2.425   1.970   2.330 -0.1335  0.1770  0.3365
19533TIP3    H180014   2.332   1.979   2.311 -0.5402 -0.6063  1.8584
19533TIP3    H280015   2.456   2.060   2.343 -0.5196  0.4838 -0.8365
19534TIP3   OH280016   0.972   0.241  16.785  0.1356  1.1467  0.1649
19534TIP3    H180017   0.982   0.329  16.751 -1.1295  1.1585 -0.2049
19534TIP3    H280018   0.897   0.205  16.739  1.1618 -0.4491 -0.3215
19535TIP3   OH280019   4.684   2.896   3.966  0.0230  0.2501 -0.3321
19535TIP3    H180020   4.760   2.911   4.022  0.0852 -0.0754 -0.3272
19535TIP3    H280021   4.679   2.974   3.910  0.5544  0.1225 -0.5586
19536TIP3   OH280022   1.812   4.800  14.389 -0.0463  0.1955 -0.1850
19536TIP3    H180023   1.849   4.841  14.311 -1.0900  1.6844  0.0870
19536TIP3    H280024   1.789   4.874  14.446  0.8645 -0.8627  1.6064
19537TIP3   OH280025   4.209   5.995  14.982  0.5248  0.0173 -0.4187
19537TIP3    H180026   4.237   5.903  14.983  0.4333 -0.0078  0.3219
19537TIP3    H280027   4.275   6.040  15.035  2.6811  1.0216 -3.7562
19538TIP3   OH280028   5.773   1.290   3.484  0.2563  0.2444 -0.8821
19538TIP3    H180029   5.846   1.337   3.524 -0.0175 -0.6471  0.7318
19538TIP3    H280030   5.710   1.358   3.461  0.0876  0.7312  0.9492
19539TIP3   OH280031   0.605   1.078   3.314 -0.6582 -0.2518 -0.1031
19539TIP3    H180032   0.585   1.102   3.405 -0.9992  0.2001 -0.2946
19539TIP3    H280033   0.579   1.155   3.263  0.3407 -0.1637 -0.4954
19540TIP3   OH280034   3.391   0.208  14.196  0.0395  0.2181  0.2229
19540TIP3    H180035   3.483   0.183  14.187  0.0951  0.6884 -0.5443
19540TIP3    H280036   3.342   0.129  14.171  0.2296 -0.2397  1.2657
19541TIP3   OH280037   5.145   3.426  14.594  0.0867 -0.0651 -0.1414
19541TIP3    H180038   5.129   3.405  14.686  0.2224 -0.1890 -0.1457
19541TIP3    H280039   5.226   3.379  14.572  1.8654  2.5206  0.5798
19542TIP3   OH280040   0.786   3.093  16.258  0.0588 -0.7297 -0.0631
19542TIP3    H180041   0.880   3.078  16.255  0.0382 -1.0574  0.8459
19542TIP3    H280042   0.765   3.097  16.352 -0.5166  1.2831 -0.2488
19543TIP3   OH280043   5.047   4.092   1.421 -0.5528 -0.0844 -0.4074
19543TIP3    H180044   5.055   4.187   1.423  0.4214 -0.1336 -1.7050
19543TIP3    H280045   5.110   4.063   1.356 -0.1182 -1.7065  0.6843
19544TIP3   OH280046   5.607   4.246  16.136  0.5523  0.0338  0.2742
19544TIP3    H180047   5.558   4.218  16.059  0.2588  1.5551 -0.1065
19544TIP3    H280048   5.541   4.284  16.194  0.8715 -0.4928  0.9820
19545TIP3   OH280049   0.113   0.717   4.770  0.1744  0.1278 -0.0420
19545TIP3    H180050   0.145   0.801   4.803  0.8715 -0.8640  1.8934
19545TIP3    H280051   0.018   0.725   4.773  0.2082  1.5279 -1.7273
19546TIP3   OH280052   2.768   3.349  15.118 -0.0565  0.4485  0.3028
19546TIP3    H180053   2.756   3.406  15.194  1.4187  2.1158 -0.6848
19546TIP3    H280054   2.863   3.337  15.111 -0.1668  0.3037 -1.2541
19547TIP3   OH280055   1.939   0.087   0.418 -0.2625 -0.2677 -0.2157
19547TIP3    H180056   2.014   0.035   0.389 -0.1131  0.4233 -1.0942
19547TIP3    H280057   1.863   0.036   0.391 -0.1138 -0.7683  0.3001
19548TIP3   OH280058   5.852   1.848   2.448  0.3891 -1.2189 -0.1158
19548TIP3    H180059   5.892   1.852   2.535 -1.0806 -1.6850  0.6027
19548TIP3    H280060   5.902   1.910   2.396 -0.1859  0.8328  1.6856
19549TIP3   OH280061   0.438   0.995  15.064  0.0036  0.1073  0.7580
19549TIP3    H180062   0.436   1.048  14.984  0.9832 -0.7598  0.1550
19549TIP3    H280063   0.442   0.905  15.033  1.6310 -0.1837  1.7891
19550TIP3   OH280064   3.927   5.702  16.227  0.3109 -0.0900 -0.3822
19550TIP3    H180065   3.948   5.788  16.264  1.2031 -0.3094 -0.3636
19550TIP3    H280066   3.921   5.717  16.133  2.1351 -0.3201 -0.5519
19551TIP3   OH280067   6.211   6.258  16.448  0.4083  0.0021 -0.7285
19551TIP3    H180068   6.232   6.194  16.380 -1.2292 -0.1738 -1.0951
19551TIP3    H280069   6.119   6.241  16.469  0.8333  0.1661  1.4213
19552TIP3   OH280070   4.239   4.662  16.457  0.1798  0.3328  0.2630
19552TIP3    H180071   4.213   4.648  16.548  1.2281 -1.2835  0.3368
19552TIP3    H280072   4.253   4.756  16.450  0.1289  0.4610  1.7800
19553TIP3   OH280073   6.158   4.870  15.396  0.1633  0.0546  0.1519
19553TIP3    H180074   6.191   4.939  15.453 -0.7755  0.8597 -0.2612
19553TIP3    H280075   6.210   4.878  15.316  1.0045 -0.6277  0.6167
19554TIP3   OH280076   6.521   1.906   4.984  0.3706 -0.3905  0.2143
19554TIP3    H180077   6.572   1.838   4.942  3.4731  0.9728  1.6192
19554TIP3    H280078   6.536   1.985   4.931 -2.1695 -0.4506 -0.6748
19555TIP3   OH280079   4.937   0.294   1.995 -0.1181 -0.7025  0.1738
19555TIP3    H180080   5.020   0.339   1.979  0.2312 -1.9756 -1.8429
19555TIP3    H280081   4.956   0.231   2.064  0.4726 -0.6627  0.0493
19556TIP3   OH280082   0.502   3.697  11.042  0.1780  0.2858 -0.1687
19556TIP3    H180083   0.448   3.619  11.053  0.2727  0.4638  1.7618
19556TIP3    H280084   0.511   3.707  10.947 -0.7111 -1.4353 -0.4588
19557TIP3   OH280085   1.706   4.965   5.811  0.4969  0.3891  0.2832
19557TIP3    H180086   1.655   4.953   5.891  0.2211 -0.7170 -0.0501
19557TIP3    H280087   1.793   4.992   5.842  0.0624  1.1115  0.8956
19558TIP3   OH280088   5.991   6.419   5.212  0.0666 -0.1199  0.0337
19558TIP3    H180089   5.975   6.497   5.265  1.4106  0.0846  0.1706
19558TIP3    H280090   5.932   6.353   5.247  1.2450 -0.1148  2.0709
19559TIP3   OH280091   4.928   6.563   6.260 -0.0406 -0.0618  0.4879
19559TIP3    H180092   4.879   6.494   6.304 -1.0257 -0.0816 -0.6100
19559TIP3    H280093   5.019   6.535   6.265 -0.1387 -0.1069  2.4079
19560TIP3   OH280094   0.422   0.576  15.864 -0.2306 -0.2512  0.3240
19560TIP3    H180095   0.485   0.505  15.863 -0.8725 -0.8461  1.9005
19560TIP3    H280096   0.467   0.648  15.907  0.2729  0.1700 -0.8947
19561TIP3   OH280097   3.132   3.986   5.267 -0.5626  0.2129  0.1790
19561TIP3    H180098   3.090   3.900   5.265 -2.5068  1.1719 -1.6510
19561TIP3    H280099   3.199   3.982   5.200  0.8401 -0.5911  1.6056
19562TIP3   OH280100   5.613   0.426  14.966  0.0223 -0.8233 -0.2678
19562TIP3    H180101   5.536   0.375  14.940 -0.7470 -0.0369  0.3910
19562TIP3    H280102   5.606   0.506  14.914  0.4395 -0.7867 -0.2653
19563TIP3   OH280103   5.428   4.594   4.055 -0.1307  0.2725  0.4048
19563TIP3    H180104   5.345   4.567   4.094 -0.1290  1.3598  1.1713
19563TIP3    H280105   5.446   4.526   3.990 -0.9338 -0.6943  1.1663
19564TIP3   OH280106   4.306   0.107  14.783  0.7819  0.1016 -0.1954
19564TIP3    H180107   4.232   0.126  14.726  0.2866 -2.8539 -0.6125
19564TIP3    H280108   4.274   0.124  14.871  0.3843  1.0898 -0.5180
19565TIP3   OH280109   2.069   0.507  13.911 -0.0022 -0.6185 -0.6139
19565TIP3    H180110   2.046   0.598  13.896 -0.0119 -0.8414 -2.0006
19565TIP3    H280111   1.992   0.458  13.883  0.1364 -1.0692 -0.2139
19566TIP3   OH280112   4.417   5.223   3.059  0.5652 -0.3678 -0.5996
19566TIP3    H180113   4.453   5.312   3.053  1.2149 -0.4215  1.8968
19566TIP3    H280114   4.488   5.171   3.097 -0.9337 -1.2210  1.0815
19567TIP3   OH280115   2.313   4.231   3.392 -0.5463 -0.0473  0.2680
19567TIP3    H180116   2.381   4.181   3.437  0.6648  1.4825  0.1854
19567TIP3    H280117   2.354   4.259   3.310 -2.1374 -1.2659 -0.9637
19568TIP3   OH280118   4.982   3.102   4.432 -0.0857  0.0262 -0.4795
19568TIP3    H180119   4.997   3.051   4.352  0.8064 -0.6641  0.1050
19568TIP3    H280120   5.057   3.161   4.438  1.0352 -1.4871  1.0020
19569TIP3   OH280121   6.246   0.241  12.320 -0.0527  0.5913 -0.4556
19569TIP3    H180122   6.335   0.228  12.353 -0.3787  0.3261  0.3459
19569TIP3    H280123   6.234   0.171  12.255 -0.0288 -0.0185  0.1855
19570TIP3   OH280124   1.943   6.322   4.675 -0.5921  0.3740 -0.3371
19570TIP3    H180125   2.019   6.265   4.680 -1.9104 -1.3814  0.2747
19570TIP3    H280126   1.873   6.272   4.718 -1.9753  2.1160 -0.5186
19571TIP3   OH280127   3.938   5.057   2.729  0.1587 -0.1358 -0.1906
19571TIP3    H180128   3.888   4.992   2.777  0.4542  0.7549  1.3801
19571TIP3    H280129   4.019   5.013   2.705 -1.0471 -1.3633 -2.1307
19572TIP3   OH280130   5.749   0.556   4.522  0.0777 -0.4929  0.4667
19572TIP3    H180131   5.712   0.478   4.565 -2.0013  0.9098  1.3265
19572TIP3    H280132   5.724   0.629   4.578  0.6441  0.9785 -1.1306
19573TIP3   OH280133   5.545   5.574  14.846 -0.2519 -0.0953  0.1646
19573TIP3    H180134   5.539   5.553  14.939  0.3178 -0.8495  0.0286
19573TIP3    H280135   5.512   5.664  14.840 -1.7045 -0.5669  0.8884
19574TIP3   OH280136   1.061   1.359  11.739  0.0334 -0.5840 -0.3248
19574TIP3    H180137   1.031   1.305  11.665 -0.0455  0.8803 -1.3956
19574TIP3    H280138   1.148   1.324  11.760 -0.2628 -1.5093 -0.6060
19575TIP3   OH280139   4.167   1.586  12.058  0.7184  0.6782  0.5224
19575TIP3    H180140   4.090   1.639  12.037 -0.2574 -0.6132  0.8197
19575TIP3    H280141   4.186   1.607  12.149  0.4439  0.6544  0.5852
19576TIP3   OH280142   5.688   2.079  12.147  0.5814 -0.2454  0.4205
19576TIP3    H180143   5.700   1.997  12.195 -1.2170 -0.0689  1.2137
19576TIP3    H280144   5.714   2.147  12.209  1.9618 -0.1896 -0.1984
19577TIP3   OH280145   4.750   4.387   1.883  0.2194  0.0157  0.2604
19577TIP3    H180146   4.794   4.304   1.870  0.0228 -0.4174  2.1594
19577TIP3    H280147   4.660   4.363   1.907  0.6204  0.6837  2.5837
19578TIP3   OH280148   3.998   6.654  13.638 -0.0446 -0.2061 -0.2793
19578TIP3    H180149   3.945   6.586  13.596  0.1030 -1.0169  0.8158
19578TIP3    H280150   3.935   6.711  13.681 -0.1257 -0.1919 -0.4191
19579TIP3   OH280151   2.725   5.398  17.043  0.1234  0.3540 -0.1866
19579TIP3    H180152   2.796   5.404  16.980  0.4505  2.2214  0.3479
19579TIP3    H280153   2.764   5.423  17.126 -0.0953 -2.9203  0.9567
19580TIP3   OH280154   4.282   0.157   2.718 -0.1792 -0.1338  0.2171
19580TIP3    H180155   4.321   0.134   2.803 -1.9124  0.7776  1.2895
19580TIP3    H280156   4.259   0.073   2.679  0.9177 -0.5782  0.5071
19581TIP3   OH280157   3.756   1.266  15.228 -0.1153 -0.2520 -0.0353
19581TIP3    H180158   3.746   1.230  15.139  0.5497 -0.7733  0.0969
19581TIP3    H280159   3.847   1.249  15.251 -0.1313  0.4065  0.5262
19582TIP3   OH280160   0.602   6.094  13.100 -0.1175 -0.1012 -0.8835
19582TIP3    H180161   0.550   6.100  13.020  0.3502  1.2465 -1.0906
19582TIP3    H280162   0.552   6.145  13.165  0.1876 -0.0666 -0.6763
19583TIP3   OH280163   1.416   3.332  16.381 -0.0314  0.4957 -0.3938
19583TIP3    H180164   1.385   3.378  16.459 -0.5734 -1.2621  0.4667
19583TIP3    H280165   1.348   3.346  16.316 -0.2412  0.8147 -0.1055
19584TIP3   OH280166   0.589   3.053  15.837 -1.0661  0.1631 -0.0542
19584TIP3    H180167   0.578   3.140  15.798 -1.6767 -0.0597 -0.3867
19584TIP3    H280168   0.534   2.996  15.783 -1.1086 -0.3281  0.5052
19585TIP3   OH280169   0.571   3.077   4.926 -0.4541 -0.1876 -0.2566
19585TIP3    H180170   0.631   3.059   4.853 -1.5234  1.8400 -1.6705
19585TIP3    H280171   0.484   3.070   4.888 -1.0334  0.5520  0.9147
19586TIP3   OH280172   1.744   5.346  16.815  0.3745  0.1666  0.2847
19586TIP3    H180173   1.801   5.289  16.763 -1.2927  0.6868 -2.1511
19586TIP3    H280174   1.781   5.433  16.805 -0.8262  0.5120 -1.3341
19587TIP3   OH280175   6.115   2.003  12.355  0.1107  0.2924 -0.3958
19587TIP3    H180176   6.096   2.096  12.367  0.3980  0.6342 -2.4086
19587TIP3    H280177   6.211   1.998  12.356  0.1375  0.2601 -1.8080
19588TIP3   OH280178   0.882   2.525  14.073  0.6713 -0.0738  0.0906
19588TIP3    H180179   0.840   2.529  14.159  0.0210 -1.3152 -0.1617
19588TIP3    H280180   0.819   2.479  14.017  1.5843 -0.3040 -0.7625
19589TIP3   OH280181   3.862   4.747  16.573 -0.5629  0.2283 -0.5029
19589TIP3    H180182   3.926   4.807  16.612 -2.4436  1.7473  0.3357
19589TIP3    H280183   3.778   4.774  16.611 -1.5517 -2.4912 -0.6716
19590TIP3   OH280184   0.165   2.741   0.748 -0.0113  0.2786  0.1786
19590TIP3    H180185   0.153   2.834   0.729 -3.4005 -0.2756 -0.7245
19590TIP3    H280186   0.116   2.726   0.828 -1.1158 -1.0890 -0.7229
19591TIP3   OH280187   1.165   2.686   1.143  0.1150 -0.4116 -0.1288
19591TIP3    H180188   1.154   2.679   1.048 -0.1374 -2.0185  0.0078
19591TIP3    H280189   1.242   2.741   1.154 -1.8090  2.6413 -1.2112
19592TIP3   OH280190   0.363   0.409  16.066 -0.0612 -0.2131  0.1248
19592TIP3    H180191   0.370   0.471  15.994 -1.6360  0.9032  0.8695
19592TIP3    H280192   0.372   0.323  16.026 -0.1629  0.4202 -1.2841
19593TIP3   OH280193   6.133   3.498  14.682  0.7873  0.0005 -0.1724
19593TIP3    H180194   6.188   3.562  14.637  0.3132  0.1393 -0.5571
19593TIP3    H280195   6.176   3.414  14.666  0.2269 -0.0398 -1.5063
19594TIP3   OH280196   2.541   4.228   0.025 -0.5096  0.5020 -0.0391
19594TIP3    H180197   2.617   4.260  -0.024 -1.3195  1.6299 -0.5836
19594TIP3    H280198   2.541   4.134   0.009  1.3885  0.3178  0.8434
19595TIP3   OH280199   4.509   0.617   4.682  0.4169  0.2897 -0.2839
19595TIP3    H180200   4.572   0.615   4.755 -0.8659 -0.8442  0.8185
19595TIP3    H280201   4.494   0.524   4.663 -1.3625  0.5506 -0.1554
19596TIP3   OH280202   2.089   2.577   2.147 -0.6668  0.1029  0.3945
19596TIP3    H180203   2.022   2.641   2.172 -1.7320 -1.2251  0.9951
19596TIP3    H280204   2.168   2.629   2.132 -2.0712  1.7846 -1.2417
19597TIP3   OH280205   4.159   6.198  12.495 -0.0862  0.1730 -0.5599
19597TIP3    H180206   4.103   6.192  12.572  0.5582  1.2655  0.0131
19597TIP3    H280207   4.187   6.108  12.478 -0.4706 -0.1156  0.3030
19598TIP3   OH280208   4.685   2.733  17.000  0.0253 -0.1682 -0.2826
19598TIP3    H180209   4.735   2.800  16.953 -1.2888  1.5197  0.6595
19598TIP3    H280210   4.726   2.728  17.086 -0.6787  0.3727  0.0886
19599TIP3   OH280211   5.480   1.960   2.684 -0.3256 -0.6567  1.0120
19599TIP3    H180212   5.427   1.887   2.716 -0.6102 -1.2766 -0.8411
19599TIP3    H280213   5.417   2.022   2.648  0.1130 -0.8903 -0.1820
19600TIP3   OH280214   0.658   5.682  16.735  0.2800 -0.2125  0.1146
19600TIP3    H180215   0.564   5.686  16.719  0.4672 -1.4786 -1.4752
19600TIP3    H280216   0.672   5.594  16.770  1.1973 -1.0598 -2.2507
19601TIP3   OH280217   6.303   5.346  15.732 -0.7848  0.2380  0.1241
19601TIP3    H180218   6.379   5.338  15.789 -0.0533  1.1682 -0.7112
19601TIP3    H280219   6.334   5.396  15.656 -1.2362 -2.5695 -2.0158
19602TIP3   OH280220   3.751   3.053   3.081 -0.5640  0.2375  0.1956
19602TIP3    H180221   3.691   3.078   3.010 -0.5030 -2.3768 -0.8402
19602TIP3    H280222   3.759   3.132   3.135  0.3341  2.7397 -3.3640
19603TIP3   OH280223   0.463   4.094  15.123 -0.1296 -0.2368  0.4982
19603TIP3    H180224   0.491   4.183  15.144 -0.5006 -0.2683  1.1458
19603TIP3    H280225   0.526   4.038  15.168  0.9874 -0.3119 -1.1208
19604TIP3   OH280226   5.686   0.636   3.660  0.2676  0.0644  0.9812
19604TIP3    H180227   5.759   0.588   3.620 -0.9180  0.1159 -1.3601
19604TIP3    H280228   5.700   0.628   3.754  3.0515 -0.2922  0.5769
19605TIP3   OH280229   5.095   1.454   3.332  0.1648 -0.3055  0.4129
19605TIP3    H180230   5.166   1.493   3.283  0.9296  0.1110  1.8271
19605TIP3    H280231   5.023   1.517   3.325  0.9721  0.7839  1.6051
19606TIP3   OH280232   1.866   0.672  13.531 -0.1503  0.1205  0.4884
19606TIP3    H180233   1.774   0.667  13.503  0.4662 -2.2807 -1.2465
19606TIP3    H280234   1.913   0.706  13.455  0.5099  0.8044  1.1832
19607TIP3   OH280235   0.087   6.131  15.391 -0.1420  0.2099 -0.0845
19607TIP3    H180236   0.059   6.082  15.314  2.4371 -2.1175  0.3849
19607TIP3    H280237   0.041   6.089  15.464  1.9173 -1.4523  0.2942
19608TIP3   OH280238   1.559   6.645   3.984  0.0650  0.1856  0.0473
19608TIP3    H180239   1.475   6.670   3.944  0.4267  0.7901 -0.3491
19608TIP3    H280240   1.593   6.577   3.926  0.4650  0.8748 -0.5320
19609TIP3   OH280241   5.710   3.653  16.353 -0.0820 -0.0593 -0.2704
19609TIP3    H180242   5.785   3.710  16.333  0.6170 -0.5658  0.8409
19609TIP3    H280243   5.739   3.566  16.327 -0.5214 -0.1609 -0.4116
19610TIP3   OH280244   4.327   2.549   0.535  0.1585  0.5494 -0.6687
19610TIP3    H180245   4.376   2.614   0.484  0.7967 -0.4162 -1.3082
19610TIP3    H280246   4.238   2.553   0.500  0.3934  0.4949 -1.2847
19611TIP3   OH280247   6.008   1.520   2.493  0.1506  0.2246  0.0088
19611TIP3    H180248   5.941   1.538   2.560  0.0913  0.4336 -0.1082
19611TIP3    H280249   6.070   1.592   2.501  0.2861  0.1052  0.0207
19612TIP3   OH280250   5.513   4.179   1.042  0.4390 -0.7955 -0.2366
19612TIP3    H180251   5.421   4.155   1.038  0.2011  0.0748 -0.1542
19612TIP3    H280252   5.555   4.126   0.974 -0.0090 -1.6649  0.1510
19613TIP3   OH280253   5.472   5.710  16.867 -0.5014 -0.3759  0.0235
19613TIP3    H180254   5.401   5.690  16.806 -1.4510 -1.1566  1.3845
19613TIP3    H280255   5.480   5.632  16.921 -1.3472  1.2799  2.5872
19614TIP3   OH280256   3.768   3.850   3.873 -0.4498  0.3210 -0.6412
19614TIP3    H180257   3.766   3.788   3.945  0.6295  2.6267  1.4432
19614TIP3    H280258   3.858   3.845   3.840 -0.3417  0.8183 -0.4251
19615TIP3   OH280259   0.980   1.276   4.199  0.2149 -0.5275 -0.0035
19615TIP3    H180260   1.073   1.281   4.219  0.6085 -1.1864 -1.5746
19615TIP3    H280261   0.940   1.241   4.279  1.1411  0.8505  1.0789
19616TIP3   OH280262   1.282   4.310  11.142  0.0320 -0.6951  0.5148
19616TIP3    H180263   1.325   4.359  11.071  0.6387 -0.9799  0.6864
19616TIP3    H280264   1.344   4.240  11.164  0.9599  0.8046  2.9526
19617TIP3   OH280265   5.086   5.523  12.596  0.5181  0.0720 -0.0021
19617TIP3    H180266   5.035   5.444  12.576 -0.0813  0.2541  0.7852
19617TIP3    H280267   5.078   5.533  12.691 -0.8359  2.0374 -0.2844
19618TIP3   OH280268   0.915   3.435  12.008 -0.8205  0.3592  0.5955
19618TIP3    H180269   0.914   3.510  11.949  1.0590  0.5274  0.7689
19618TIP3    H280270   0.968   3.463  12.083 -1.1368 -0.7050  1.2377
19619TIP3   OH280271   5.968   1.728  11.193  0.2903  0.1514 -0.1276
19619TIP3    H180272   6.043   1.787  11.200  1.6871 -1.6348  0.2944
19619TIP3    H280273   5.956   1.715  11.099  0.8745 -0.0109 -0.1790
19620TIP3   OH280274   5.247   3.245  13.776  0.4238  0.4868  0.0288
19620TIP3    H180275   5.213   3.319  13.726  1.1045  0.3166 -0.6994
19620TIP3    H280276   5.308   3.284  13.838 -0.1062  0.6542  0.4538
19621TIP3   OH280277   1.067   0.205  14.881  0.0389 -0.0864  0.1432
19621TIP3    H180278   1.095   0.121  14.845  0.5231  0.3945 -0.6119
19621TIP3    H280279   0.973   0.209  14.863 -0.1619 -0.8795  1.0209
19622TIP3   OH280280   5.831   4.008   5.664 -0.4155 -0.1117  0.2638
19622TIP3    H180281   5.815   4.095   5.701 -0.7657  0.2884 -0.8067
19622TIP3    H280282   5.860   4.025   5.574 -2.8983 -1.1940 -0.7718
19623TIP3   OH280283   1.095   2.627   0.187 -0.1010  0.2173 -0.1220
19623TIP3    H180284   1.034   2.565   0.227 -0.1700  0.6204  0.3946
19623TIP3    H280285   1.057   2.713   0.205  1.4657  0.5625  1.6609
19624TIP3   OH280286   5.438   6.078   0.842 -0.4269  0.2496  0.3783
19624TIP3    H180287   5.427   6.069   0.748 -1.1073  1.9729  0.2822
19624TIP3    H280288   5.357   6.043   0.879 -0.6289  0.5874  0.2627
19625TIP3   OH280289   1.095   0.949  12.620  0.2789  0.1348 -0.1331
19625TIP3    H180290   1.164   0.943  12.554  2.4166  0.9249  1.9573
19625TIP3    H280291   1.020   0.986  12.574  1.4515 -0.1026 -2.2895
19626TIP3   OH280292   1.027   6.114  14.080 -0.3294 -0.6923 -0.5663
19626TIP3    H180293   1.010   6.022  14.098 -1.2052 -0.2389  1.0174
19626TIP3    H280294   0.940   6.154  14.078  0.1786  0.6961  2.1989
19627TIP3   OH280295   6.347   2.170   2.561 -0.2146  0.3386  0.1091
19627TIP3    H180296   6.254   2.147   2.570 -0.3119  0.1847 -1.1570
19627TIP3    H280297   6.370   2.211   2.644 -1.1151 -0.6679  0.8749
19628TIP3   OH280298   3.625   0.372  12.928  0.1131 -0.6934 -0.5979
19628TIP3    H180299   3.666   0.300  12.976  2.9155  0.1713 -1.5903
19628TIP3    H280300   3.596   0.332  12.845 -0.1476 -1.1020 -0.3094
19629TIP3   OH280301   5.449   3.089   2.992 -0.0030  0.3889 -0.2071
19629TIP3    H180302   5.469   3.123   2.904 -0.7069  1.0306 -0.1187
19629TIP3    H280303   5.447   2.994   2.980 -2.2303  0.5554 -1.3536
19630TIP3   OH280304   0.563   4.370  15.904  0.5369 -0.1630  0.4703
19630TIP3    H180305   0.535   4.462  15.903  0.7647 -0.0944  0.2795
19630TIP3    H280306   0.621   4.362  15.828 -0.8480 -0.9052 -0.5092
19631TIP3   OH280307   0.032   2.130   2.175 -0.1379  0.3914 -0.2187
19631TIP3    H180308   0.122   2.106   2.195  0.5385  2.0882 -1.1842
19631TIP3    H280309   0.008   2.194   2.242 -0.4786  0.2674 -0.2217
19632TIP3   OH280310   1.246   4.286   5.017  0.0147  0.2293  0.2405
19632TIP3    H180311   1.299   4.206   5.022 -0.6630 -0.2722 -0.5243
19632TIP3    H280312   1.184   4.278   5.089 -0.1483  0.0004  0.0740
19633TIP3   OH280313   1.765   3.046   3.258  0.8292 -0.5680 -0.3839
19633TIP3    H180314   1.716   3.048   3.176  0.0884  0.5877  0.0751
19633TIP3    H280315   1.699   3.056   3.327  1.6099  0.2329  0.2743
19634TIP3   OH280316   2.345   0.091   4.937  0.1911 -0.2118 -0.0211
19634TIP3    H180317   2.249   0.083   4.929  0.2497  1.4998 -2.7489
19634TIP3    H280318   2.358   0.143   5.016 -1.1349 -0.3565  0.3079
19635TIP3   OH280319   2.243   5.347   5.739 -0.1190  0.7152 -0.2127
19635TIP3    H180320   2.223   5.255   5.720 -0.8152  0.9770 -0.7505
19635TIP3    H280321   2.331   5.344   5.776 -0.1093 -0.1666 -0.2776
19636TIP3   OH280322   2.873   5.843   1.415 -0.2264 -0.0076 -0.3388
19636TIP3    H180323   2.798   5.895   1.445 -1.4707 -1.2691 -1.1715
19636TIP3    H280324   2.862   5.759   1.460 -0.2794 -0.7888 -1.7798
19637TIP3   OH280325   0.927   2.000   5.374 -0.3507  0.4170 -0.3590
19637TIP3    H180326   0.874   2.069   5.414  1.0535  0.6603  1.1414
19637TIP3    H280327   0.875   1.921   5.386 -1.5286  1.0499 -1.1973
19638TIP3   OH280328   0.778   4.129  15.773  0.1969 -0.2561  0.1036
19638TIP3    H180329   0.727   4.074  15.833 -0.0394  0.3967  0.5027
19638TIP3    H280330   0.865   4.087  15.771  0.7810  0.7695  2.3937
19639TIP3   OH280331   5.851   0.220   5.759  0.4487  0.1959  0.9752
19639TIP3    H180332   5.865   0.264   5.843 -1.9884 -0.2598  1.6599
19639TIP3    H280333   5.756   0.209   5.753  0.5579  0.3086 -1.9037
19640TIP3   OH280334   4.809   1.054  10.790 -0.2690 -0.2177  0.2159
19640TIP3    H180335   4.796   0.993  10.863  1.8312 -1.8172 -0.6810
19640TIP3    H280336   4.899   1.038  10.762 -0.4236  1.7399 -1.5188
19641TIP3   OH280337   0.654   1.718  13.522 -0.4514 -0.1824 -0.3569
19641TIP3    H180338   0.612   1.665  13.588 -1.7448  0.4910 -0.6230
19641TIP3    H280339   0.640   1.671  13.440 -1.3922  0.4374 -0.5596
19642TIP3   OH280340   5.033   0.836  11.508  0.4551  0.1744  0.1607
19642TIP3    H180341   5.098   0.824  11.439 -0.1425  0.7816 -0.5130
19642TIP3    H280342   5.071   0.902  11.566  0.5102  0.4181 -0.1522
19643TIP3   OH280343   1.621   6.711   2.802  0.2906  0.7290  0.1477
19643TIP3    H180344   1.527   6.713   2.781  0.7913 -0.1544 -2.2873
19643TIP3    H280345   1.624   6.720   2.897 -2.3608 -1.3077  0.4791
19644TIP3   OH280346   3.991   3.520  15.252 -0.3760 -0.8958  0.2280
19644TIP3    H180347   3.987   3.438  15.202 -1.9316 -0.9438  0.4302
19644TIP3    H280348   4.002   3.492  15.343 -0.8008 -0.8792  0.2845
19645TIP3   OH280349   5.092   4.654   3.654  0.0985 -0.1744  0.0111
19645TIP3    H180350   5.030   4.681   3.586  1.3555 -0.7296 -1.3790
19645TIP3    H280351   5.050   4.680   3.736 -0.8461  1.7290 -1.0387
19646TIP3   OH280352   2.059   1.151  14.424  0.1631  0.5908 -0.4268
19646TIP3    H180353   2.025   1.218  14.484  0.4915 -1.6923  2.3852
19646TIP3    H280354   2.000   1.155  14.349 -0.1997  3.5860 -0.0708
19647TIP3   OH280355   0.384   5.669   4.890 -0.0008 -0.4190 -0.1766
19647TIP3    H180356   0.430   5.649   4.971  2.3478  1.8689 -0.8998
19647TIP3    H280357   0.292   5.677   4.916  0.5693 -0.8082  2.0493
19648TIP3   OH280358   6.291   2.679   5.934  0.2205 -0.7911 -0.4896
19648TIP3    H180359   6.332   2.740   5.873  0.1964 -0.8858 -0.6007
19648TIP3    H280360   6.204   2.663   5.897  0.1707 -0.7737 -0.3800
19649TIP3   OH280361   0.552   3.935   1.868 -0.3762  0.2520  0.3755
19649TIP3    H180362   0.494   4.011   1.860 -0.5701  0.2009  1.2906
19649TIP3    H280363   0.493   3.861   1.879 -0.1978 -0.0828 -0.8013
19650TIP3   OH280364   6.530   3.087   2.826 -0.0313 -0.7094 -0.1357
19650TIP3    H180365   6.460   3.063   2.764 -1.2938 -0.2182  1.0799
19650TIP3    H280366   6.586   3.010   2.828 -1.0742 -1.4958 -0.3937
19651TIP3   OH280367   5.587   1.522   0.103 -0.5579  0.6478 -0.3443
19651TIP3    H180368   5.528   1.471   0.160 -0.5153 -0.4294 -1.2456
19651TIP3    H280369   5.672   1.480   0.114 -0.7728 -0.2497 -2.0272
19652TIP3   OH280370   5.594   4.797  13.658 -0.7181 -0.2490  0.5992
19652TIP3    H180371   5.567   4.885  13.685  1.2420  0.5005  0.2101
19652TIP3    H280372   5.688   4.793  13.679 -0.2488 -1.3859 -1.5705
19653TIP3   OH280373   1.632   5.244  16.117  0.1470 -0.1748 -0.5283
19653TIP3    H180374   1.557   5.295  16.148 -0.9892 -1.9858 -0.2781
19653TIP3    H280375   1.618   5.236  16.023  1.2056  1.3615 -0.8515
19654TIP3   OH280376   5.190   5.931   0.902 -0.1052 -0.2852 -0.1404
19654TIP3    H180377   5.145   5.955   0.982  2.4886  0.2028  1.2280
19654TIP3    H280378   5.120   5.908   0.841 -2.4380  4.5524  0.4951
19655TIP3   OH280379   4.635   2.181   0.261 -0.4401 -0.5829  0.1940
19655TIP3    H180380   4.679   2.236   0.325 -0.0820 -0.3464 -0.2577
19655TIP3    H280381   4.563   2.235   0.228 -0.0718 -0.3697 -0.2694
19656TIP3   OH280382   2.884   4.802   3.391  0.5127  0.3858  0.7084
19656TIP3    H180383   2.941   4.769   3.322  0.4125  0.4151  0.6107
19656TIP3    H280384   2.796   4.800   3.353  0.5817  1.3191  0.4887
19657TIP3   OH280385   2.699   5.995   3.215 -0.5820  0.3906  0.0554
19657TIP3    H180386   2.719   6.088   3.222 -0.0484  0.3586 -0.9260
19657TIP3    H280387   2.750   5.965   3.140 -0.6714 -0.7140  0.4244
19658TIP3   OH280388   0.377   2.880  13.583 -0.3297 -0.9752 -0.5399
19658TIP3    H180389   0.328   2.962  13.570 -1.8649 -1.7421  0.2835
19658TIP3    H280390   0.466   2.902  13.558 -0.7671  0.9010 -0.5603
19659TIP3   OH280391   3.592   6.758   4.058  0.4628 -1.1121  0.7368
19659TIP3    H180392   3.503   6.792   4.062  0.8502  0.3834 -2.0767
19659TIP3    H280393   3.582   6.668   4.027 -0.1146 -1.1855  1.1375
19660TIP3   OH280394   2.213   0.120  16.793  0.1911 -0.2280 -0.9405
19660TIP3    H180395   2.153   0.049  16.819 -0.1735  0.2734 -0.4059
19660TIP3    H280396   2.159   0.178  16.740 -0.0121  0.6138  0.1535
19661TIP3   OH280397   3.016   6.729   3.778 -0.3146  0.1395 -0.3580
19661TIP3    H180398   2.941   6.756   3.726  0.4193 -1.0950 -2.1056
19661TIP3    H280399   3.092   6.758   3.727  0.4197 -1.2477 -0.0731
19662TIP3   OH280400   1.990   4.604   5.091  0.2784  0.2259 -0.1351
19662TIP3    H180401   2.011   4.602   5.184 -2.2982 -0.4553  0.4779
19662TIP3    H280402   1.952   4.691   5.077 -2.2566 -0.7732  0.1900
19663TIP3   OH280403   2.195   4.862  10.692 -0.0178 -0.1821  0.6336
19663TIP3    H180404   2.290   4.850  10.689 -0.0180 -0.0905  0.2787
19663TIP3    H280405   2.162   4.805  10.623 -0.2657 -0.6619  1.1366
19664TIP3   OH280406   4.329   6.251   0.858 -0.3693 -0.0487  0.2228
19664TIP3    H180407   4.346   6.310   0.784 -0.0328 -0.6738 -0.2050
19664TIP3    H280408   4.235   6.238   0.857 -0.2247 -1.0754 -0.8958
19665TIP3   OH280409   1.617   6.085  10.955  0.0512  0.1492 -0.5172
19665TIP3    H180410   1.540   6.033  10.933  0.7899 -0.3083 -2.1093
19665TIP3    H280411   1.691   6.029  10.933  0.8451  0.9872 -0.0204
19666TIP3   OH280412   0.210   3.258  13.293 -0.1672  0.3036  0.4213
19666TIP3    H180413   0.262   3.325  13.249  0.1408 -0.2328 -0.0389
19666TIP3    H280414   0.139   3.306  13.335 -0.1423  0.8765 -0.1933
19667TIP3   OH280415   1.510   3.960  14.451  0.3277  0.2012 -0.3953
19667TIP3    H180416   1.578   3.893  14.441 -0.3206 -0.4677 -0.3563
19667TIP3    H280417   1.432   3.911  14.479  0.7344  1.3608  3.0776
19668TIP3   OH280418   6.404   4.777  13.009  0.6299 -0.2132 -0.6603
19668TIP3    H180419   6.381   4.758  13.100  0.7623 -0.5600 -0.7017
19668TIP3    H280420   6.338   4.841  12.981 -0.2670 -1.1759 -0.7639
19669TIP3   OH280421   6.700   3.284  13.526 -0.3270  0.3637  0.1570
19669TIP3    H180422   6.610   3.316  13.513  0.4857  2.6803 -0.0830
19669TIP3    H280423   6.753   3.341  13.470  1.0149 -2.7290 -1.8109
19670TIP3   OH280424   1.294   2.063   2.069  0.7629  0.1984  0.1520
19670TIP3    H180425   1.358   2.065   1.998 -0.5380 -2.7005 -1.2006
19670TIP3    H280426   1.210   2.083   2.027  0.4594  1.9471  1.5272
19671TIP3   OH280427   5.768   5.644   3.290  0.1897 -0.6049 -0.3307
19671TIP3    H180428   5.753   5.562   3.242 -0.7745 -0.7893  0.2729
19671TIP3    H280429   5.695   5.700   3.266 -0.9417 -1.1080  1.7694
19672TIP3   OH280430   6.784   2.582   3.034 -0.0387 -0.1332 -0.1153
19672TIP3    H180431   6.835   2.603   3.112  0.7434  2.9372 -1.3688
19672TIP3    H280432   6.849   2.551   2.971  0.1310  2.4124 -1.2394
19673TIP3   OH280433   1.393   4.884  16.489  0.0835 -0.2791 -0.0593
19673TIP3    H180434   1.339   4.959  16.463 -1.0229 -1.3504 -0.9177
19673TIP3    H280435   1.416   4.842  16.406  0.8319 -0.8057  0.4079
19674TIP3   OH280436   5.977   3.088   3.542 -0.0285  0.1182 -0.1040
19674TIP3    H180437   5.961   3.182   3.534  2.4822  0.5367 -0.6387
19674TIP3    H280438   5.946   3.051   3.459 -0.4497  0.5544 -0.1413
19675TIP3   OH280439   0.778   3.793  16.104  0.1947  0.0551 -0.3507
19675TIP3    H180440   0.854   3.736  16.112  0.5026  0.6048  0.7225
19675TIP3    H280441   0.760   3.822  16.194 -0.9305  0.3809 -0.6758
19676TIP3   OH280442   4.187   3.858   4.293 -0.6928  0.2236  0.5027
19676TIP3    H180443   4.131   3.847   4.216  0.5381  2.3671 -0.7702
19676TIP3    H280444   4.130   3.900   4.358 -1.2156  0.2143  0.0549
19677TIP3   OH280445   6.298   6.086  14.716 -0.3551  0.0268  0.5312
19677TIP3    H180446   6.233   6.056  14.779 -1.0820  0.2615 -0.0973
19677TIP3    H280447   6.258   6.163  14.675  0.1070 -0.1269 -0.2162
19678TIP3   OH280448   0.191   2.062   3.838  0.1669 -0.0305  0.1333
19678TIP3    H180449   0.200   2.153   3.811 -3.6087 -0.1139 -1.6377
19678TIP3    H280450   0.154   2.066   3.927  1.4101  0.1301  0.6585
19679TIP3   OH280451   0.574   1.901  14.971 -0.1641 -0.4493  0.0449
19679TIP3    H180452   0.572   1.826  15.031 -1.7188 -0.6601 -0.2419
19679TIP3    H280453   0.493   1.949  14.991  0.3913  0.6737 -0.3789
19680TIP3   OH280454   5.415   3.699  12.658  0.5318  0.1260  0.0575
19680TIP3    H180455   5.511   3.696  12.661  0.6477  3.1828  1.3082
19680TIP3    H280456   5.389   3.727  12.746 -1.5078 -0.0730 -0.4497
19681TIP3   OH280457   0.115   3.267  12.588  0.0766  0.5749  0.7375
19681TIP3    H180458   0.126   3.243  12.497 -1.0718 -0.3390  0.8288
19681TIP3    H280459   0.085   3.187  12.631  0.1679  1.1124  1.8322
19682TIP3   OH280460   5.705   3.402   4.298 -0.5833 -0.0695 -0.6308
19682TIP3    H180461   5.730   3.479   4.350  0.3841 -0.2031 -0.8964
19682TIP3    H280462   5.704   3.433   4.208 -0.3294 -0.3393 -0.7249
19683TIP3   OH280463   5.261   3.199  13.374 -0.5614 -0.0994  0.1258
19683TIP3    H180464   5.310   3.153  13.306 -1.2366 -1.1830  0.3578
19683TIP3    H280465   5.286   3.154  13.455  0.4127  1.3241  0.6409
19684TIP3   OH280466   3.024   6.166   0.370 -0.3577 -0.3202  0.1385
19684TIP3    H180467   3.056   6.087   0.326 -0.4811  0.3509 -1.1688
19684TIP3    H280468   3.082   6.175   0.446  0.5331 -0.9039 -0.4568
19685TIP3   OH280469   0.146   2.849   4.596  0.2668  0.5460  0.7946
19685TIP3    H180470   0.230   2.815   4.625 -0.2603 -0.1199  1.5693
19685TIP3    H280471   0.165   2.938   4.565  1.0820  0.7626  1.8842
19686TIP3   OH280472   1.035   6.062  13.649 -0.2300  0.1200  0.1869
19686TIP3    H180473   1.003   6.134  13.704 -0.2005 -0.0881  0.4787
19686TIP3    H280474   1.011   5.983  13.698  1.2212 -0.0266  0.6784
19687TIP3   OH280475   5.467   6.088   0.275 -0.5661  0.0146  0.0088
19687TIP3    H180476   5.540   6.056   0.222 -0.4545  0.4388 -0.0948
19687TIP3    H280477   5.421   6.009   0.303  0.8601 -0.3321  1.3974
19688TIP3   OH280478   6.654   3.112  13.276 -0.1927 -0.1195 -0.0450
19688TIP3    H180479   6.681   3.130  13.367  0.6102  0.6543 -0.4307
19688TIP3    H280480   6.619   3.195  13.245  0.0846 -0.2225 -0.6332
19689TIP3   OH280481   6.436   1.977   1.343 -0.4673 -0.7850  0.0073
19689TIP3    H180482   6.406   2.027   1.267  0.0219 -0.7960 -0.1991
19689TIP3    H280483   6.487   1.905   1.305 -0.1438 -0.7374  0.3525
19690TIP3   OH280484   6.638   1.350   4.990 -0.0679 -0.0768  0.4811
19690TIP3    H180485   6.729   1.378   4.980  0.2121 -0.7689  1.0747
19690TIP3    H280486   6.600   1.413   5.051 -1.0275  2.4822 -2.5667
19691TIP3   OH280487   2.471   6.305   2.891  0.0354  0.2483  0.6918
19691TIP3    H180488   2.504   6.392   2.914  0.2457  0.2300  0.4651
19691TIP3    H280489   2.548   6.248   2.896  0.3469  0.4531 -1.1955
19692TIP3   OH280490   3.487   6.162  14.981 -0.3260  0.4309 -0.0909
19692TIP3    H180491   3.430   6.117  15.044  1.2235 -0.7484  0.4848
19692TIP3    H280492   3.576   6.136  15.005  0.3420  0.5348 -2.3215
19693TIP3   OH280493   1.242   3.572  15.858  0.5222 -0.0123  0.1446
19693TIP3    H180494   1.286   3.511  15.917  0.3634 -0.6513 -0.3988
19693TIP3    H280495   1.313   3.625  15.822  0.5779  0.7010  1.2577
19694TIP3   OH280496   6.371   5.149  16.207  0.2242 -0.4613  0.2825
19694TIP3    H180497   6.318   5.116  16.279 -0.2351 -0.0527  0.1396
19694TIP3    H280498   6.388   5.240  16.229  0.7393 -0.5480  0.2506
19695TIP3   OH280499   6.765   6.718  16.306  0.4266  0.2732 -0.3452
19695TIP3    H180500   6.670   6.729  16.304  0.4464  0.2208 -1.7885
19695TIP3    H280501   6.778   6.623  16.299  0.5560  0.1522  1.3351
19696TIP3   OH280502   1.387   4.981  14.171  0.4073 -0.1239 -0.0829
19696TIP3    H180503   1.454   4.992  14.104  1.6184 -2.4920  0.6775
19696TIP3    H280504   1.313   5.033  14.140  1.0909 -0.8061 -3.0384
19697TIP3   OH280505   3.767   2.272   4.269  0.3422  0.0784 -0.6590
19697TIP3    H180506   3.733   2.247   4.183 -0.8566 -0.1864 -0.1058
19697TIP3    H280507   3.701   2.243   4.331  0.3069  1.9748  0.2141
19698TIP3   OH280508   4.100   4.986   6.335 -0.2479  0.4211  0.5886
19698TIP3    H180509   4.012   5.010   6.306  0.5721  0.3550 -2.0643
19698TIP3    H280510   4.150   5.067   6.331 -0.6430  0.9445  4.1780
19699TIP3   OH280511   6.639   0.862  12.333  0.3793  0.1174  0.0247
19699TIP3    H180512   6.551   0.890  12.356 -0.2493 -0.9142 -1.1167
19699TIP3    H280513   6.632   0.830  12.243  1.6287 -1.2537  0.3961
19700TIP3   OH280514   2.800   4.263   2.523 -0.2241  0.2993  0.0967
19700TIP3    H180515   2.837   4.300   2.443 -0.8148  0.4036 -0.1301
19700TIP3    H280516   2.845   4.179   2.534  0.4418  0.6519  0.1007
19701TIP3   OH280517   5.727   2.793  12.063 -0.1699 -0.0544 -0.2738
19701TIP3    H180518   5.818   2.789  12.094 -0.5965  0.0513  1.0002
19701TIP3    H280519   5.695   2.878  12.094 -1.0518 -0.5650  0.2183
19702TIP3   OH280520   5.147   3.027   0.887  0.0609  0.1753  0.5265
19702TIP3    H180521   5.190   2.989   0.964  0.0575  1.6239  1.2648
19702TIP3    H280522   5.219   3.060   0.834 -0.0760  1.6574  1.2534
19703TIP3   OH280523   0.499   2.921   3.166 -0.4037 -0.4226  0.6700
19703TIP3    H180524   0.507   3.008   3.205 -0.9446  0.5003 -1.2508
19703TIP3    H280525   0.558   2.924   3.090 -2.2044 -0.9364 -0.7613
19704TIP3   OH280526   0.809   5.802   5.134  0.1350 -0.1971  0.2318
19704TIP3    H180527   0.897   5.837   5.117 -0.3674 -0.4205 -3.4121
19704TIP3    H280528   0.811   5.714   5.095 -2.4013  0.7597 -2.2394
19705TIP3   OH280529   0.761   4.563  16.046 -0.3552  0.9097  0.0770
19705TIP3    H180530   0.778   4.628  16.114  0.2466  0.4775  0.3419
19705TIP3    H280531   0.686   4.598  15.998  0.3642  2.1044 -0.1871
19706TIP3   OH280532   1.802   3.200   1.699 -0.4033  0.5402  0.2974
19706TIP3    H180533   1.788   3.140   1.625 -1.5797  2.0791 -0.7541
19706TIP3    H280534   1.773   3.285   1.666  0.8293  1.6036  1.9265
19707TIP3   OH280535   2.741   6.758   1.941 -0.2855  0.0587  0.8333
19707TIP3    H180536   2.789   6.727   1.864  0.2502 -3.9057  2.6658
19707TIP3    H280537   2.651   6.729   1.927 -0.8197  1.8904  0.3749
19708TIP3   OH280538   1.472   2.740   3.634  0.5622  0.2302 -0.5405
19708TIP3    H180539   1.517   2.669   3.589  1.6592  0.3610  0.3516
19708TIP3    H280540   1.424   2.698   3.705  0.1220  0.2324 -0.8259
19709TIP3   OH280541   5.477   4.811   3.152  0.1706 -0.8928 -0.2942
19709TIP3    H180542   5.506   4.748   3.218 -1.3676 -1.4408 -0.1352
19709TIP3    H280543   5.384   4.823   3.168 -0.5115 -1.9654 -3.1072
19710TIP3   OH280544   3.401   4.683   1.234  0.1920  0.3610 -0.1512
19710TIP3    H180545   3.389   4.627   1.157 -0.6687  1.4687 -0.8385
19710TIP3    H280546   3.474   4.741   1.211  0.1344  0.4898 -0.0092
19711TIP3   OH280547   3.639   2.059  11.587  0.8708 -0.4984 -0.3236
19711TIP3    H180548   3.561   2.075  11.640  0.5341 -1.2181 -0.5870
19711TIP3    H280549   3.631   2.120  11.514  0.3233 -0.8647 -0.5772
19712TIP3   OH280550   0.973   0.039  11.377 -0.4316  0.5818 -0.4928
19712TIP3    H180551   0.911   0.096  11.422 -0.4295  0.4200 -0.2893
19712TIP3    H280552   1.055   0.050  11.425 -0.0838  1.4182 -1.2461
19713TIP3   OH280553   0.520   4.679  15.779  0.5221  0.1179 -0.4675
19713TIP3    H180554   0.509   4.698  15.685  2.7653 -1.7651 -1.1454
19713TIP3    H280555   0.582   4.745  15.809  2.0370 -1.0268 -0.9980
19714TIP3   OH280556   5.812   4.355   0.190 -0.7455 -0.2750 -0.6445
19714TIP3    H180557   5.780   4.321   0.274 -2.2330 -0.5032 -1.2774
19714TIP3    H280558   5.749   4.424   0.168  0.0740  0.2844 -1.2136
19715TIP3   OH280559   5.014   6.050  15.092  0.2105 -0.1574  0.3411
19715TIP3    H180560   4.925   6.019  15.080 -0.1379  1.1918 -0.6316
19715TIP3    H280561   5.035   6.027  15.183 -0.7708 -1.3255  0.2827
19716TIP3   OH280562   1.848   4.041  13.341  0.0061  0.1274  0.5099
19716TIP3    H180563   1.828   3.968  13.281  1.5359 -1.3204  1.7261
19716TIP3    H280564   1.879   4.111  13.283 -0.3378 -0.5910 -0.5687
19717TIP3   OH280565   5.244   6.609  17.119 -1.0506  0.5085  0.0119
19717TIP3    H180566   5.328   6.656  17.115 -0.3145 -0.7985 -0.3329
19717TIP3    H280567   5.222   6.608  17.212  0.8021 -1.6390  0.4870
19718TIP3   OH280568   6.263   6.033   4.343  0.4198 -0.5124  0.3319
19718TIP3    H180569   6.265   5.968   4.273 -2.0061 -2.4964  2.0097
19718TIP3    H280570   6.335   6.008   4.401  0.9442 -0.2878 -0.2154
19719TIP3   OH280571   1.742   4.358   3.679 -0.8459  0.5800  0.2084
19719TIP3    H180572   1.804   4.363   3.606 -2.1446  2.5950 -0.7893
19719TIP3    H280573   1.673   4.420   3.656 -2.2067 -0.1302  2.2866
19720TIP3   OH280574   4.442   2.900  15.211 -0.3716  0.2688  0.2897
19720TIP3    H180575   4.467   2.958  15.283  0.2992  0.8445 -0.3905
19720TIP3    H280576   4.353   2.926  15.189  0.1439  1.4967 -0.4223
19721TIP3   OH280577   3.990   1.691  15.461  0.2927  0.2167  0.4751
19721TIP3    H180578   4.083   1.671  15.470  0.4594  0.0036 -1.4030
19721TIP3    H280579   3.949   1.654  15.539  1.3800 -2.3465 -0.1230
19722TIP3   OH280580   2.468   2.948  14.607 -0.5527 -0.3907 -0.0527
19722TIP3    H180581   2.554   2.907  14.598  0.7745  1.9308  1.3452
19722TIP3    H280582   2.434   2.915  14.690 -0.0374  0.3695  0.4630
19723TIP3   OH280583   1.898   2.071   1.786  0.3150 -0.7299  0.8755
19723TIP3    H180584   1.820   2.095   1.836 -1.0059 -1.3352 -0.8440
19723TIP3    H280585   1.939   2.155   1.763 -1.2506 -0.2943 -0.4032
19724TIP3   OH280586   4.271   4.236  14.821  0.2884  0.2609 -0.3133
19724TIP3    H180587   4.339   4.288  14.780  1.2806 -0.4772  0.3877
19724TIP3    H280588   4.199   4.236  14.758  0.8958  1.1186 -1.0122
19725TIP3   OH280589   6.305   0.732  14.240 -0.1765 -0.6276  0.2518
19725TIP3    H180590   6.232   0.729  14.303  0.9582 -0.4724  1.5947
19725TIP3    H280591   6.358   0.806  14.269 -0.1119 -0.0013 -1.4364
19726TIP3   OH280592   6.067   2.822  14.736 -0.4647 -0.3214  0.3154
19726TIP3    H180593   6.038   2.896  14.789 -1.2826 -0.9668  0.7809
19726TIP3    H280594   6.093   2.861  14.653 -3.3647  0.2084 -0.3707
19727TIP3   OH280595   2.344   6.572  13.090  0.2251 -0.2012  0.1276
19727TIP3    H180596   2.251   6.556  13.078  0.0228  1.0910 -0.0791
19727TIP3    H280597   2.383   6.484  13.096 -1.2743 -0.7693  2.3259
19728TIP3   OH280598   4.417   3.909   5.269  0.3982  0.0768 -0.4128
19728TIP3    H180599   4.420   3.929   5.176 -0.5618 -1.0417 -0.7014
19728TIP3    H280600   4.437   3.816   5.274  0.7804  0.2023  0.5359
19729TIP3   OH280601   4.665   4.940  14.038 -0.2893 -0.0221 -0.1750
19729TIP3    H180602   4.654   5.013  13.978  1.4963  0.8523  0.5343
19729TIP3    H280603   4.679   4.981  14.124  1.7938 -1.1349  0.0558
19730TIP3   OH280604   0.187   1.380  14.238  0.1378  0.0806  0.3200
19730TIP3    H180605   0.249   1.335  14.181 -0.4327  0.1800 -0.3967
19730TIP3    H280606   0.185   1.470  14.204 -0.0801  0.1806  0.5969
19731TIP3   OH280607   5.239   4.774   4.521  0.4099  0.4217  0.0462
19731TIP3    H180608   5.310   4.722   4.560 -0.4269  0.2382  1.3671
19731TIP3    H280609   5.161   4.717   4.528 -0.2256  1.3041  0.2004
19732TIP3   OH280610   2.773   6.601   1.256  0.2770  0.2909  0.4692
19732TIP3    H180611   2.689   6.644   1.275 -0.9664 -1.8465  0.0530
19732TIP3    H280612   2.773   6.590   1.161  0.0847 -1.5473  0.6720
19733TIP3   OH280613   0.886   4.635  16.666 -0.3741  0.4702 -0.0937
19733TIP3    H180614   0.953   4.605  16.605  1.3166  1.0974  1.4134
19733TIP3    H280615   0.870   4.726  16.640 -2.1669 -0.2757 -1.7451
19734TIP3   OH280616   5.168   4.478  13.350  0.0819 -0.1538 -0.1880
19734TIP3    H180617   5.085   4.479  13.398  0.2980  1.8546  0.2078
19734TIP3    H280618   5.181   4.569  13.323  2.3208 -0.3743  0.0238
19735TIP3   OH280619   0.524   2.787  10.885  0.2387  0.3271 -0.2025
19735TIP3    H180620   0.599   2.844  10.898  1.1954 -0.7114 -1.0734
19735TIP3    H280621   0.449   2.846  10.880  1.5548  1.7866 -4.0842
19736TIP3   OH280622   2.807   4.576   5.693  0.1237  0.7932  0.3333
19736TIP3    H180623   2.719   4.539   5.703  0.8276 -0.6322  1.5444
19736TIP3    H280624   2.856   4.508   5.646  0.1693  2.2684 -1.8397
19737TIP3   OH280625   1.742   5.925   2.553  0.1267  0.4631 -0.2591
19737TIP3    H180626   1.765   5.912   2.645  1.1113  0.4482 -0.4934
19737TIP3    H280627   1.724   6.019   2.546 -1.0290  0.2813  0.1698
19738TIP3   OH280628   4.644   2.472  15.561 -0.3364  0.5762  0.0847
19738TIP3    H180629   4.569   2.453  15.617  0.4348  0.0358  0.9574
19738TIP3    H280630   4.681   2.553  15.597 -0.9734  1.2887 -0.8469
19739TIP3   OH280631   5.451   5.634  11.059  0.6285  0.1933 -0.4384
19739TIP3    H180632   5.507   5.557  11.071  1.1234  0.8498  1.7716
19739TIP3    H280633   5.368   5.610  11.101 -0.4284 -0.3857 -2.7828
19740TIP3   OH280634   1.469   1.041  12.695  0.1624  0.2273 -0.5829
19740TIP3    H180635   1.436   0.953  12.713 -1.0282  0.4617 -1.5291
19740TIP3    H280636   1.518   1.031  12.613  2.3573 -0.0779  0.7083
19741TIP3   OH280637   6.641   2.772   4.284  0.3752  0.4220 -0.1199
19741TIP3    H180638   6.608   2.727   4.207  0.4102  1.3993 -0.7212
19741TIP3    H280639   6.593   2.855   4.286  0.2320  0.3221  1.0173
19742TIP3   OH280640   5.982   0.233  12.393  0.1836  0.2955  0.0614
19742TIP3    H180641   6.073   0.253  12.372 -0.4434  1.6479 -1.5208
19742TIP3    H280642   5.981   0.140  12.411  1.8029  0.1724 -0.3902
19743TIP3   OH280643   4.761   1.773  15.025 -0.2964 -0.1701  0.0852
19743TIP3    H180644   4.768   1.857  14.980 -0.7925 -0.2348 -0.1295
19743TIP3    H280645   4.833   1.721  14.991 -0.5158 -0.1285 -0.4527
19744TIP3   OH280646   5.367   0.287   3.722  0.5401  0.4114  0.1999
19744TIP3    H180647   5.342   0.250   3.638 -0.7497 -3.1602  2.0731
19744TIP3    H280648   5.454   0.252   3.740  1.7054  2.8059 -0.5209
19745TIP3   OH280649   6.685   6.340  13.096 -0.0553 -0.1525  0.9130
19745TIP3    H180650   6.765   6.296  13.127  0.6771  1.8350  1.8870
19745TIP3    H280651   6.717   6.408  13.037 -1.0648  0.4632  1.0768
19746TIP3   OH280652   0.535   3.129   3.371 -0.0943  0.0774  0.0984
19746TIP3    H180653   0.497   3.210   3.338 -1.3010 -0.3593  0.4098
19746TIP3    H280654   0.501   3.120   3.460  0.0625 -0.7523  0.0839
19747TIP3   OH280655   6.534   5.991  11.605  0.3552 -0.3489 -0.0931
19747TIP3    H180656   6.534   5.909  11.556  3.5929  0.2453 -1.1953
19747TIP3    H280657   6.517   6.059  11.540 -1.9228 -0.0455  0.7506
19748TIP3   OH280658   1.830   2.324  13.391  0.2047  0.7638 -0.3581
19748TIP3    H180659   1.883   2.327  13.312 -0.7883 -0.0422 -1.0621
19748TIP3    H280660   1.892   2.302  13.461  0.7835 -0.3421 -1.2006
19749TIP3   OH280661   1.587   2.113   4.861 -0.3843 -0.3188  0.1804
19749TIP3    H180662   1.508   2.153   4.823 -0.5997  0.6379  1.5912
19749TIP3    H280663   1.589   2.146   4.951  2.2166  0.5375 -0.1589
19750TIP3   OH280664   1.586   0.562  12.656 -0.1348  0.4522  0.1660
19750TIP3    H180665   1.677   0.590  12.642  0.0291  0.4042  1.0701
19750TIP3    H280666   1.573   0.489  12.595  0.3544  0.6245 -0.1463
19751TIP3   OH280667   6.639   3.489   4.140 -0.5303  0.1300  0.2183
19751TIP3    H180668   6.660   3.493   4.046  0.6555  2.0528  0.5388
19751TIP3    H280669   6.556   3.536   4.148 -1.6820 -1.7654 -0.1106
19752TIP3   OH280670   3.420   4.258   3.277 -0.3870 -0.0651 -0.1573
19752TIP3    H180671   3.469   4.232   3.354 -1.5750 -0.7131  0.3879
19752TIP3    H280672   3.475   4.233   3.203  0.3230 -0.3046  0.4516
19753TIP3   OH280673   6.737   2.830   0.139  0.5484  0.3902 -0.6040
19753TIP3    H180674   6.756   2.890   0.067 -1.9385 -0.0588 -1.6918
19753TIP3    H280675   6.765   2.877   0.218 -0.1426  2.4379 -1.5466
19754TIP3   OH280676   1.791   3.513  13.720 -0.5970  0.1343 -0.1538
19754TIP3    H180677   1.748   3.427  13.711 -0.9204  0.4436 -1.6625
19754TIP3    H280678   1.745   3.569  13.658  1.2676  0.7497 -1.0218
19755TIP3   OH280679   1.881   4.039   0.975 -0.3016  0.1323 -0.6977
19755TIP3    H180680   1.906   4.049   0.883  0.0542 -1.6600 -0.8315
19755TIP3    H280681   1.943   4.093   1.023 -0.2722  0.8102 -1.4939
19756TIP3   OH280682   0.424   1.226  15.287  0.1823  0.1329 -0.1441
19756TIP3    H180683   0.384   1.144  15.256  0.9588 -0.8336  1.3162
19756TIP3    H280684   0.502   1.236  15.233  0.2210 -0.2320 -0.1598
19757TIP3   OH280685   4.307   0.094   1.535  0.0619  0.3230  0.0127
19757TIP3    H180686   4.212   0.096   1.545 -0.1464 -0.5531 -1.5948
19757TIP3    H280687   4.336   0.182   1.557 -0.7138 -0.2905  3.9918
19758TIP3   OH280688   1.656   0.729   4.393 -0.4161  0.8169 -0.1285
19758TIP3    H180689   1.729   0.767   4.343 -0.2098 -0.0280 -0.4916
19758TIP3    H280690   1.687   0.726   4.483  0.2511 -0.1068 -0.3769
19759TIP3   OH280691   6.649   1.690   4.853  0.3963 -0.1870  0.3378
19759TIP3    H180692   6.730   1.694   4.904  0.5442  0.0610  0.0890
19759TIP3    H280693   6.678   1.705   4.762 -0.1317  1.5613  0.4408
19760TIP3   OH280694   5.284   3.625   5.514  0.3764 -0.3460 -0.0907
19760TIP3    H180695   5.198   3.628   5.472 -0.4016  0.9200  1.5670
19760TIP3    H280696   5.345   3.619   5.441 -1.0583 -0.3551 -1.3258
19761TIP3   OH280697   2.859   2.977   2.601 -0.5553 -0.0473 -0.6511
19761TIP3    H180698   2.766   2.995   2.615 -0.5507 -0.0112 -0.6639
19761TIP3    H280699   2.868   2.970   2.506  0.0997  3.5921 -0.9209
19762TIP3   OH280700   2.544   1.857   6.124 -0.1649  0.4282  0.0873
19762TIP3    H180701   2.500   1.772   6.135 -0.3801  0.5066 -0.1533
19762TIP3    H280702   2.602   1.864   6.199 -0.4671  0.2594  0.3379
19763TIP3   OH280703   4.608   6.062  14.230  0.5504 -0.0872  0.3125
19763TIP3    H180704   4.602   6.158  14.238  1.4290 -0.1882  2.5597
19763TIP3    H280705   4.700   6.043  14.249  0.8867 -1.2152 -2.2981
19764TIP3   OH280706   1.955   3.337   4.999 -0.7869 -0.0993  0.1287
19764TIP3    H180707   1.919   3.423   5.017 -0.8968 -0.0667 -0.2292
19764TIP3    H280708   1.905   3.305   4.924 -0.0446 -0.0313 -0.4056
19765TIP3   OH280709   6.260   1.047  13.926 -0.3416 -0.2120  0.8068
19765TIP3    H180710   6.302   0.983  13.984 -0.5110 -1.0335  0.0354
19765TIP3    H280711   6.331   1.107  13.901  0.5324 -1.9230 -0.9436
19766TIP3   OH280712   3.663   4.796   3.477 -0.4035 -0.0986  0.1222
19766TIP3    H180713   3.613   4.874   3.454  0.7037  1.2122  2.0339
19766TIP3    H280714   3.744   4.805   3.426  0.6444  1.1408  1.9329
19767TIP3   OH280715   4.462   4.188  13.663 -0.3231 -0.3082 -0.0020
19767TIP3    H180716   4.504   4.243  13.729 -0.2656  1.3834 -1.4155
19767TIP3    H280717   4.532   4.164  13.603 -0.5463 -1.1023  0.0442
19768TIP3   OH280718   3.326   5.090   2.436  0.1803 -0.3266 -0.8039
19768TIP3    H180719   3.261   5.126   2.376  0.7726  0.1711 -1.1524
19768TIP3    H280720   3.388   5.045   2.378  0.2720 -0.6051 -0.4895
19769TIP3   OH280721   5.389   1.170  11.417  0.3623 -0.0389 -0.5185
19769TIP3    H180722   5.318   1.226  11.386  0.8065  0.5611 -0.4525
19769TIP3    H280723   5.439   1.150  11.338 -0.5469 -1.4192 -0.7547
19770TIP3   OH280724   1.531   4.562   0.354 -0.2479  0.3925 -0.3237
19770TIP3    H180725   1.596   4.516   0.407 -0.7093  0.3683  0.2283
19770TIP3    H280726   1.488   4.493   0.304  0.2212  0.4209 -0.7722
19771TIP3   OH280727   5.491   2.429  10.642 -0.0371  0.2066  0.4493
19771TIP3    H180728   5.452   2.350  10.603 -0.6300  0.5937  0.2410
19771TIP3    H280729   5.442   2.501  10.603 -0.9778  0.5945  2.2602
19772TIP3   OH280730   0.183   4.669  12.411 -0.1785 -0.4631 -0.1651
19772TIP3    H180731   0.226   4.585  12.399 -2.0356 -1.3731 -0.6777
19772TIP3    H280732   0.097   4.648  12.446 -1.2514  1.0931 -1.7348
19773TIP3   OH280733   5.225   0.032  11.246  0.6256 -0.0763 -0.1416
19773TIP3    H180734   5.198   0.101  11.306  0.5442 -0.5247  0.3359
19773TIP3    H280735   5.197  -0.049  11.288 -1.7293 -0.2791 -1.9442
19774TIP3   OH280736   3.711   5.369  12.613 -0.6503 -0.0752 -0.0013
19774TIP3    H180737   3.744   5.416  12.536 -2.1285 -0.6420 -1.0019
19774TIP3    H280738   3.775   5.389  12.682  1.0876 -0.1444 -1.5487
19775TIP3   OH280739   2.027   4.184  12.106 -0.0904  0.0939  0.3638
19775TIP3    H180740   1.950   4.183  12.049 -0.0611 -0.6729  0.3206
19775TIP3    H280741   2.090   4.240  12.060 -0.4335  0.2927  0.1340
19776TIP3   OH280742   0.929   2.105  16.811 -0.4111 -0.1672  0.0842
19776TIP3    H180743   0.896   2.123  16.899  1.5544 -0.2012  0.8533
19776TIP3    H280744   0.931   2.191  16.768  3.9557  0.8320  1.9996
19777TIP3   OH280745   6.335   3.656  14.561 -0.0121  0.3452  0.0869
19777TIP3    H180746   6.409   3.616  14.607 -1.6435 -0.3647  2.1613
19777TIP3    H280747   6.364   3.744  14.540  1.3342  0.1581  1.1212
19778TIP3   OH280748   3.343   5.331   4.479  0.3211 -0.1315 -0.1503
19778TIP3    H180749   3.250   5.309   4.484  0.3729 -0.6290 -1.1685
19778TIP3    H280750   3.350   5.416   4.523 -0.7690  0.3317 -0.8433
19779TIP3   OH280751   4.263   0.170  15.731  0.4575 -0.0746 -0.4086
19779TIP3    H180752   4.339   0.212  15.771 -0.0744 -0.5264  1.1391
19779TIP3    H280753   4.194   0.179  15.797 -0.8172  0.2642 -1.7566
19780TIP3   OH280754   0.397   4.427  14.926 -0.2168 -0.3250  0.5388
19780TIP3    H180755   0.479   4.408  14.881  0.7337  0.1786  2.0090
19780TIP3    H280756   0.371   4.513  14.893  0.1120 -0.2661  0.4316
19781TIP3   OH280757   1.720   0.994   1.245 -0.1390  0.2520  0.0500
19781TIP3    H180758   1.812   0.978   1.222  0.0452 -0.9341  1.5153
19781TIP3    H280759   1.671   0.933   1.190 -0.0563  0.8438 -0.6901
19782TIP3   OH280760   4.807   6.735  11.514 -0.1137 -0.0753 -0.6168
19782TIP3    H180761   4.780   6.703  11.600  1.0674  0.3818 -0.0679
19782TIP3    H280762   4.799   6.659  11.457 -0.2289 -0.5648  0.0455
19783TIP3   OH280763   4.866   4.674   1.946 -0.1897 -0.5293  0.0558
19783TIP3    H180764   4.873   4.579   1.940  0.8085 -0.6193  2.3627
19783TIP3    H280765   4.942   4.707   1.897  0.4163 -0.9643  0.6992
19784TIP3   OH280766   1.090   2.737   4.947  0.4256 -0.4117 -0.3241
19784TIP3    H180767   1.164   2.699   4.899 -0.7949 -1.2072 -1.6214
19784TIP3    H280768   1.019   2.674   4.935 -0.5373  0.4586  0.7037
19785TIP3   OH280769   3.875   2.025   2.079 -0.7972  0.4420 -0.2532
19785TIP3    H180770   3.828   1.988   2.153  1.4007  0.2069  1.0797
19785TIP3    H280771   3.930   1.953   2.047 -0.9010  0.8646 -1.4019
19786TIP3   OH280772   1.656   3.725  13.610  0.0878 -0.4999 -0.0306
19786TIP3    H180773   1.680   3.779  13.686 -1.8833 -0.1819  0.4065
19786TIP3    H280774   1.563   3.705  13.624  0.2722 -2.3067 -1.2402
19787TIP3   OH280775   2.519   5.467  16.208  0.0751 -0.1452 -0.7582
19787TIP3    H180776   2.440   5.456  16.156 -0.4584 -2.0760  0.4166
19787TIP3    H280777   2.489   5.502  16.292  0.3875 -1.4017 -0.1141
19788TIP3   OH280778   5.897   0.019   3.562 -0.0806  0.0140  0.2653
19788TIP3    H180779   5.946   0.017   3.480  0.2304  2.6126  0.3474
19788TIP3    H280780   5.953   0.067   3.622 -0.9475 -0.5810  1.5698
19789TIP3   OH280781   5.546   2.838  13.954  0.5410  0.5082 -0.2542
19789TIP3    H180782   5.567   2.759  14.005 -2.7509  0.8978  1.8860
19789TIP3    H280783   5.499   2.805  13.878  0.5516  0.2796 -0.1633
19790TIP3   OH280784   1.874   0.272   4.518 -0.5107 -0.2583 -0.1210
19790TIP3    H180785   1.961   0.310   4.531 -0.7210  0.4762 -0.8051
19790TIP3    H280786   1.877   0.239   4.428 -1.5563  1.4615 -0.8142
19791TIP3   OH280787   5.399   5.187   0.982 -0.6238 -0.4278 -0.1192
19791TIP3    H180788   5.346   5.233   1.047 -1.0039  0.1053 -0.8026
19791TIP3    H280789   5.486   5.226   0.992 -0.8172  0.0695 -0.3229
19792TIP3   OH280790   1.206   3.562   0.335 -0.0954  0.1726  0.6539
19792TIP3    H180791   1.219   3.597   0.248 -1.0805 -0.7496  0.1216
19792TIP3    H280792   1.186   3.638   0.389 -1.3076  0.5333 -0.2918
19793TIP3   OH280793   3.482   4.682  15.098  0.4221  0.0190 -0.6660
19793TIP3    H180794   3.390   4.657  15.106  0.5030 -0.2758 -0.6530
19793TIP3    H280795   3.529   4.599  15.094  0.7103  0.1712 -0.4083
19794TIP3   OH280796   5.450   2.100  16.175 -0.2166  0.7314  0.2939
19794TIP3    H180797   5.410   2.109  16.262  0.0556  0.4051  0.4512
19794TIP3    H280798   5.501   2.020  16.180 -1.1372  0.0876 -0.5366
19795TIP3   OH280799   1.046   0.278   6.264  0.1123 -0.2288 -0.4164
19795TIP3    H180800   1.112   0.347   6.253  1.0928 -1.0497  0.2380
19795TIP3    H280801   1.079   0.226   6.337 -0.8249 -1.1682 -0.6666
19796TIP3   OH280802   5.091   1.593   1.173  0.5809  0.8408  0.1735
19796TIP3    H180803   5.155   1.658   1.203 -1.2623  1.8622  2.0581
19796TIP3    H280804   5.006   1.636   1.185 -0.6433 -1.5974  0.6108
19797TIP3   OH280805   0.395   5.101  13.143 -0.2748  0.1776  0.2848
19797TIP3    H180806   0.342   5.174  13.110 -2.2227 -1.3298 -0.0008
19797TIP3    H280807   0.417   5.050  13.065 -0.7848 -0.7296  0.7270
19798TIP3   OH280808   2.764   2.161   6.169 -0.1121 -0.3792  0.2586
19798TIP3    H180809   2.758   2.167   6.265  0.8427 -0.4493  0.3277
19798TIP3    H280810   2.793   2.072   6.152 -0.8315 -0.5389 -0.1271
19799TIP3   OH280811   1.543   2.517   1.911 -0.0811  0.4723  0.0633
19799TIP3    H180812   1.472   2.484   1.855  0.7228 -2.4794  0.6818
19799TIP3    H280813   1.508   2.509   2.000  0.4172  0.6280  0.2710
19800TIP3   OH280814   3.048   2.868   1.093  0.2082  0.3613 -0.2311
19800TIP3    H180815   3.053   2.773   1.082 -0.1777  0.0200  2.2768
19800TIP3    H280816   2.955   2.885   1.109  0.0691  1.3440 -1.9177
19801TIP3   OH280817   3.213   3.846   4.465  0.2897 -0.3830  0.1756
19801TIP3    H180818   3.162   3.891   4.532 -0.2439 -0.1812 -0.3623
19801TIP3    H280819   3.197   3.753   4.482  0.6717 -0.3499  0.7258
19802TIP3   OH280820   1.740   0.498  17.041  0.4748 -0.6382 -0.3826
19802TIP3    H180821   1.836   0.495  17.046  0.4862  1.5318  1.5429
19802TIP3    H280822   1.719   0.462  16.955  3.1742  1.2173 -1.8770
19803TIP3   OH280823   1.291   1.900  11.341 -0.1372  0.0623  0.1948
19803TIP3    H180824   1.344   1.960  11.393  0.0770  0.9660 -1.0476
19803TIP3    H280825   1.313   1.921  11.250 -1.0364 -1.0054 -0.2820
19804TIP3   OH280826   6.564   3.791   5.765 -0.0306 -0.1836 -0.1962
19804TIP3    H180827   6.653   3.787   5.730  0.0042  0.5805 -0.2018
19804TIP3    H280828   6.574   3.830   5.852 -0.2655 -0.8899  0.1538
19805TIP3   OH280829   5.835   0.596   1.780  0.4919  0.4235 -0.3212
19805TIP3    H180830   5.911   0.542   1.757 -0.3104 -0.3356 -1.2074
19805TIP3    H280831   5.873   0.679   1.807  1.6041  0.4066 -1.7686
19806TIP3   OH280832   2.681   1.905   0.900  0.1245 -0.5454 -0.1524
19806TIP3    H180833   2.672   1.898   0.995 -1.8551 -1.7841 -0.3859
19806TIP3    H280834   2.744   1.975   0.887  1.9106 -1.6332  2.1063
19807TIP3   OH280835   6.216   5.789   4.197 -0.0846  0.7335 -0.1301
19807TIP3    H180836   6.230   5.695   4.207 -1.1416  0.4830 -0.9565
19807TIP3    H280837   6.251   5.809   4.110 -0.6565  0.9339 -0.3190
19808TIP3   OH280838   6.640   6.109  13.329  0.1382 -0.2450 -0.0796
19808TIP3    H180839   6.715   6.088  13.273  0.3180 -0.3029  0.1853
19808TIP3    H280840   6.567   6.119  13.267  0.5735  0.8401 -0.4393
19809TIP3   OH280841   4.296   3.612  15.231  0.0788  0.2552 -0.3195
19809TIP3    H180842   4.317   3.704  15.211 -4.4725  1.4967 -0.0099
19809TIP3    H280843   4.215   3.617  15.282  0.8976 -3.8776  1.5690
19810TIP3   OH280844   4.221   1.775  14.391 -0.1528 -0.8447  0.3569
19810TIP3    H180845   4.267   1.821  14.460  1.1667 -1.4748 -0.0918
19810TIP3    H280846   4.268   1.692  14.381 -1.6159 -1.6825  0.1666
19811TIP3   OH280847   5.302   3.542   2.965  0.2518 -0.2374 -0.2566
19811TIP3    H180848   5.364   3.526   3.037 -0.4388  2.1655  0.9271
19811TIP3    H280849   5.217   3.522   3.003 -0.1821  1.6840 -0.1730
19812TIP3   OH280850   5.869   2.135  10.341  0.1882  0.4483  0.4345
19812TIP3    H180851   5.824   2.175  10.415  0.5971 -0.7037  1.3334
19812TIP3    H280852   5.921   2.064  10.381 -0.4659 -0.9155 -1.0791
19813TIP3   OH280853   1.790   6.475  13.316 -0.5896  0.3962  0.3551
19813TIP3    H180854   1.817   6.567  13.314  0.0205  0.2021 -0.6916
19813TIP3    H280855   1.790   6.448  13.224 -2.1465 -0.2578  0.5338
19814TIP3   OH280856   1.668   4.451  14.288 -0.2189 -0.2129  0.3236
19814TIP3    H180857   1.577   4.431  14.310  0.3458 -2.2029  0.9773
19814TIP3    H280858   1.714   4.368  14.298  1.3150  0.3131 -2.0166
19815TIP3   OH280859   6.174   4.114  10.920 -0.0029 -0.2843  0.0873
19815TIP3    H180860   6.188   4.208  10.910  0.2507 -0.3548 -0.2439
19815TIP3    H280861   6.251   4.074  10.879 -0.0513 -0.6321  0.3365
19816TIP3   OH280862   2.463   4.482  11.961  0.1961  0.3131  0.2921
19816TIP3    H180863   2.529   4.551  11.964 -0.5529  1.0198  1.4424
19816TIP3    H280864   2.491   4.424  11.891  2.7304 -0.1156  1.5902
19817TIP3   OH280865   2.036   5.306  10.812 -0.3073  0.1741  0.2228
19817TIP3    H180866   2.023   5.221  10.769  1.9916 -0.1608  0.1296
19817TIP3    H280867   2.038   5.369  10.741  1.7799 -0.1796 -0.0746
19818TIP3   OH280868   3.185   1.001   2.793 -0.5863  0.9104  0.4424
19818TIP3    H180869   3.098   1.038   2.809 -0.7191  0.9821 -0.4302
19818TIP3    H280870   3.241   1.077   2.782 -0.5947  0.8562  0.0332
19819TIP3   OH280871   2.333   1.799  12.429 -0.0996  0.5909 -0.4562
19819TIP3    H180872   2.317   1.830  12.340  1.0313 -0.5916 -1.0855
19819TIP3    H280873   2.277   1.854  12.484 -0.7794  1.3564 -1.8876
19820TIP3   OH280874   2.345   0.533   0.893 -0.2398 -0.4299  0.4611
19820TIP3    H180875   2.269   0.529   0.951 -0.8877 -1.1212 -0.4273
19820TIP3    H280876   2.382   0.445   0.895 -1.1984 -0.9017 -1.3940
19821TIP3   OH280877   0.131   0.984   4.703  0.0731  0.1851  0.0188
19821TIP3    H180878   0.173   1.066   4.675  0.0027  1.0573  2.3928
19821TIP3    H280879   0.055   0.976   4.645 -0.8010  2.6312  0.7483
19822TIP3   OH280880   4.195   1.577  13.487  0.3751  0.4850 -0.1707
19822TIP3    H180881   4.155   1.640  13.428  0.3267  0.7638  0.1621
19822TIP3    H280882   4.284   1.565  13.453 -0.5713 -1.6343 -2.0992
19823TIP3   OH280883   2.145   6.135  16.835  0.5395 -0.1383  0.5698
19823TIP3    H180884   2.204   6.111  16.907  1.7565 -0.0402 -0.3671
19823TIP3    H280885   2.148   6.230  16.833  0.8815 -0.1606  0.0809
19824TIP3   OH280886   1.412   5.819  12.009  0.1340 -0.4298 -0.2006
19824TIP3    H180887   1.357   5.828  11.930 -0.3173  2.0676  0.3569
19824TIP3    H280888   1.406   5.726  12.031  0.1900 -1.1815 -3.0426
19825TIP3   OH280889   5.772   2.038   4.465  0.0434  0.2264  0.3357
19825TIP3    H180890   5.822   1.980   4.409 -0.3015  0.2424  0.0100
19825TIP3    H280891   5.738   1.982   4.535  1.0970  0.3434  0.9500
19826TIP3   OH280892   1.800   4.833  15.619  0.3507  0.4425  0.1538
19826TIP3    H180893   1.750   4.907  15.587  1.6207  1.5729  0.7211
19826TIP3    H280894   1.887   4.870  15.639  1.7268 -1.6254 -1.7006
19827TIP3   OH280895   6.509   3.031   1.439 -0.1172  0.1452 -0.4377
19827TIP3    H180896   6.505   3.076   1.354 -1.4209 -1.0198 -1.0121
19827TIP3    H280897   6.417   3.022   1.465  0.2389 -0.3517  0.6470
19828TIP3   OH280898   4.393   6.099  15.160 -0.5879 -0.4172 -0.4572
19828TIP3    H180899   4.357   6.133  15.243 -0.6357  0.2860 -0.7593
19828TIP3    H280900   4.465   6.159  15.140 -0.0847 -1.0400 -0.5366
19829TIP3   OH280901   3.551   0.069  13.862 -0.2135  0.3907  0.0186
19829TIP3    H180902   3.591   0.077  13.949 -1.7741  3.0859  0.5688
19829TIP3    H280903   3.468   0.024  13.878 -0.7163  1.3011  0.0309
19830TIP3   OH280904   2.500   5.178  15.441 -0.1650 -0.0038 -0.2280
19830TIP3    H180905   2.509   5.090  15.476 -2.0347 -0.2670 -0.3191
19830TIP3    H280906   2.405   5.195  15.443  0.0687  1.5825 -1.2096
19831TIP3   OH280907   6.649   6.565  12.255  0.6267 -0.0378 -0.2615
19831TIP3    H180908   6.585   6.628  12.288  0.0913  0.0828 -1.5023
19831TIP3    H280909   6.631   6.484  12.303 -0.3012  0.0637 -0.4385
19832TIP3   OH280910   0.266   6.054  14.204  0.1610 -0.3898  0.1274
19832TIP3    H180911   0.201   5.992  14.238  0.1055 -0.2472  0.2828
19832TIP3    H280912   0.275   6.119  14.274  0.5997 -0.5042  0.1791
19833TIP3   OH280913   1.062   3.560   4.719  0.0689  0.2226 -0.1293
19833TIP3    H180914   1.117   3.571   4.641  3.2932 -1.7628  1.7073
19833TIP3    H280915   1.063   3.646   4.761 -0.4150  0.9014 -1.4908
19834TIP3   OH280916   6.213   1.373   4.830 -1.0112  0.1167  0.9342
19834TIP3    H180917   6.306   1.394   4.823 -1.4678  1.2066 -2.6687
19834TIP3    H280918   6.176   1.446   4.879 -0.5308  1.4490 -0.6592
19835TIP3   OH280919   1.167   0.507   1.014 -0.2849  0.4150 -0.6892
19835TIP3    H180920   1.231   0.574   1.037 -0.1678  0.3962 -0.9587
19835TIP3    H280921   1.084   0.539   1.050  0.3504 -0.8626  2.1023
19836TIP3   OH280922   4.039   0.319  10.920  0.0568 -0.3778  0.0040
19836TIP3    H180923   4.125   0.355  10.937 -0.8475  2.5237 -1.3624
19836TIP3    H280924   4.036   0.305  10.825 -0.3194 -2.2886  0.2651
19837TIP3   OH280925   3.655   3.000  12.049 -0.2262 -0.0410 -0.3025
19837TIP3    H180926   3.612   3.084  12.069  0.0589  0.1234 -0.3799
19837TIP3    H280927   3.618   2.975  11.964 -1.0707 -0.4975  0.1953
19838TIP3   OH280928   6.502   1.102  14.855  0.1088  0.4886  0.4914
19838TIP3    H180929   6.561   1.113  14.930  1.6898 -3.3835 -0.0843
19838TIP3    H280930   6.447   1.027  14.878  0.9984 -1.1154 -2.3940
19839TIP3   OH280931   4.533   3.673   0.009  0.4616  0.1929  0.3619
19839TIP3    H180932   4.601   3.739   0.020  0.0122  0.8970 -0.9708
19839TIP3    H280933   4.575   3.605  -0.044 -0.2339  1.2272 -1.5657
19840TIP3   OH280934   3.284   1.991   2.276  0.3615  0.6071  0.1720
19840TIP3    H180935   3.315   2.049   2.346  1.1005  0.9472 -0.4358
19840TIP3    H280936   3.353   1.994   2.209 -0.2856  0.1911 -0.5223
19841TIP3   OH280937   4.066   3.830  13.770 -0.2070  0.1417  0.0618
19841TIP3    H180938   3.979   3.830  13.729 -0.6828 -1.6416  1.0347
19841TIP3    H280939   4.125   3.807  13.699 -0.7695 -0.6684 -0.1510
19842TIP3   OH280940   0.781   0.176   3.644  0.1030  0.5451 -0.3284
19842TIP3    H180941   0.764   0.103   3.704  0.8539  0.6015 -0.0446
19842TIP3    H280942   0.815   0.246   3.699 -2.3155  1.7788 -0.3126
19843TIP3   OH280943   0.462   4.346  11.497  0.0804  0.0967 -0.4243
19843TIP3    H180944   0.434   4.417  11.556 -0.6152 -1.6484  1.4284
19843TIP3    H280945   0.410   4.271  11.525  2.6998 -1.8224 -0.6063
19844TIP3   OH280946   0.177   6.368  14.700  0.5431  0.2894  0.4212
19844TIP3    H180947   0.227   6.448  14.687 -0.5217  0.8966  0.0094
19844TIP3    H280948   0.242   6.302  14.725  1.7073  0.8002 -1.1952
19845TIP3   OH280949   5.522   6.710   2.718 -0.0206 -0.3331 -0.3845
19845TIP3    H180950   5.570   6.682   2.796 -1.3085  1.9611  1.3081
19845TIP3    H280951   5.438   6.665   2.723  0.0751 -0.5486 -0.6979
19846TIP3   OH280952   3.800   1.732  17.171 -0.8098  0.0650 -0.2154
19846TIP3    H180953   3.879   1.781  17.146 -0.9298  0.0549 -0.6110
19846TIP3    H280954   3.805   1.727  17.267 -1.7300  2.4055 -0.0142
19847TIP3   OH280955   2.060   6.493  13.038  0.0983 -0.0786  0.4696
19847TIP3    H180956   2.036   6.463  12.951 -1.3076  0.4388  0.6593
19847TIP3    H280957   2.023   6.581  13.045  1.5725  0.5126  1.0143
19848TIP3   OH280958   0.721   3.985   5.365  0.2792 -0.2321 -0.1006
19848TIP3    H180959   0.674   4.053   5.318 -0.5141 -0.8430 -0.1896
19848TIP3    H280960   0.754   3.926   5.296  0.0121 -0.5523  0.0461
19849TIP3   OH280961   2.021   4.909   2.665  0.2863 -0.1881 -0.1882
19849TIP3    H180962   2.099   4.900   2.611  0.4480  0.2549 -0.0326
19849TIP3    H280963   1.963   4.839   2.636  0.2025  0.3063 -1.2191
19850TIP3   OH280964   5.077   2.355   2.119 -0.2500  0.1170  0.0540
19850TIP3    H180965   4.990   2.390   2.137 -0.0730  0.1551  0.8222
19850TIP3    H280966   5.100   2.305   2.197  0.4150  0.1040 -0.1479
19851TIP3   OH280967   1.503   1.609   4.125  0.7514 -0.6874  0.0915
19851TIP3    H180968   1.485   1.538   4.187 -1.3022 -0.5241 -0.2950
19851TIP3    H280969   1.487   1.571   4.039 -1.9586  0.6443 -0.0561
19852TIP3   OH280970   6.485   5.018   4.809  0.2983 -0.0072  0.2639
19852TIP3    H180971   6.398   5.026   4.849  0.2641 -0.4519  0.2814
19852TIP3    H280972   6.511   4.927   4.826  1.3169  0.4631  1.3756
19853TIP3   OH280973   4.313   4.309  16.278 -0.0938  0.0433 -0.0161
19853TIP3    H180974   4.302   4.383  16.218  1.0181  0.6299  0.4821
19853TIP3    H280975   4.226   4.298  16.318 -1.3649 -1.6211 -3.1089
19854TIP3   OH280976   1.994   3.424  11.590 -0.0273  0.1121 -0.8136
19854TIP3    H180977   2.052   3.364  11.638  1.0882  0.5570 -1.5803
19854TIP3    H280978   1.995   3.391  11.500 -0.4566  0.5021 -0.9597
19855TIP3   OH280979   0.961   5.738   3.170 -0.6721  0.4997  0.2078
19855TIP3    H180980   1.012   5.713   3.093  0.7304 -0.0957  1.3198
19855TIP3    H280981   0.978   5.832   3.180  1.0505  0.0979  1.1797
19856TIP3   OH280982   0.232   4.491  10.813  0.4725 -0.3740 -0.1602
19856TIP3    H180983   0.183   4.531  10.742  0.6436 -0.7272 -0.4770
19856TIP3    H280984   0.303   4.553  10.832  1.2067 -0.8942 -1.1836
19857TIP3   OH280985   0.234   6.734   3.153 -0.4604 -0.2718 -0.3984
19857TIP3    H180986   0.214   6.784   3.074 -0.0284  0.5624  0.0144
19857TIP3    H280987   0.157   6.680   3.168 -0.1071 -1.2302 -2.0008
19858TIP3   OH280988   5.301   2.143   4.511  0.1770  0.3648  0.2897
19858TIP3    H180989   5.316   2.055   4.475 -0.4346 -0.3429  1.7026
19858TIP3    H280990   5.384   2.167   4.551  0.4947  0.6379 -0.5390
19859TIP3   OH280991   5.786   6.137   5.598  0.1328 -0.2905 -0.8742
19859TIP3    H180992   5.706   6.091   5.574 -0.4060 -0.7204  1.6745
19859TIP3    H280993   5.764   6.185   5.678  1.9388  0.9276 -1.0696
19860TIP3   OH280994   6.068   1.884  12.105 -0.1896  0.7282 -0.4929
19860TIP3    H180995   6.086   1.796  12.139 -2.5420  0.1673 -0.5652
19860TIP3    H280996   6.104   1.943  12.170 -0.8467 -0.3200  0.8497
19861TIP3   OH280997   4.047   0.681  16.554  0.7522 -0.2812 -0.1477
19861TIP3    H180998   4.053   0.600  16.503  1.1728 -0.0557 -0.4566
19861TIP3    H280999   3.957   0.710  16.542 -0.1997 -2.1222  2.1547
19862TIP3   OH281000   0.471   1.323  15.564  0.4975 -0.0588  0.1940
19862TIP3    H181001   0.431   1.274  15.492  2.4506 -1.5019  0.0533
19862TIP3    H281002   0.544   1.369  15.523  0.8233  0.1704  1.0227
19863TIP3   OH281003   2.677   0.409   3.533 -0.7472 -0.1390  0.3920
19863TIP3    H181004   2.712   0.462   3.461 -2.0741 -0.8263 -0.7826
19863TIP3    H281005   2.755   0.371   3.575  0.3314  3.6915  2.0742
19864TIP3   OH281006   2.261   3.015   0.800  0.5080  1.0466  0.4311
19864TIP3    H181007   2.320   3.005   0.726 -0.3724  1.4204 -0.3252
19864TIP3    H281008   2.230   2.927   0.819  1.9249  0.7266  1.3575
19865TIP3   OH281009   4.351   1.131   2.256 -0.0031 -0.2237  0.4195
19865TIP3    H181010   4.335   1.091   2.170 -0.0367  1.1789 -0.2315
19865TIP3    H281011   4.318   1.220   2.248  2.9514  0.9491  0.8767
19866TIP3   OH281012   1.169   4.190  16.382 -0.5730  0.1833 -0.0321
19866TIP3    H181013   1.078   4.203  16.409 -0.6549  1.9195 -1.0618
19866TIP3    H281014   1.188   4.099  16.403 -2.3732 -0.0258  0.7274
19867TIP3   OH281015   0.227   3.075  16.314  0.1552  0.3194 -0.2047
19867TIP3    H181016   0.192   2.987  16.299 -0.0628  0.5678 -1.1496
19867TIP3    H281017   0.321   3.061  16.326 -0.1574 -0.2831  1.7558
19868TIP3   OH281018   5.294   6.449  16.905  0.3664 -0.4975  0.2155
19868TIP3    H181019   5.370   6.504  16.885  1.0500 -0.8459  1.7514
19868TIP3    H281020   5.250   6.495  16.977  1.6300 -2.5234  2.3554
19869TIP3   OH281021   6.264   4.518   0.883 -0.1065  0.3201 -0.0636
19869TIP3    H181022   6.226   4.576   0.949 -2.2486 -0.7481 -0.2853
19869TIP3    H281023   6.194   4.508   0.818  0.4271 -1.9965 -0.3278
19870TIP3   OH281024   2.083   3.198   1.009  0.1972 -0.3800  0.2832
19870TIP3    H181025   2.027   3.255   0.955  0.2186  1.3708  2.0397
19870TIP3    H281026   2.117   3.133   0.948  0.8755  2.0070 -1.9981
19871TIP3   OH281027   1.147   5.044   5.806  0.7808 -0.4929 -0.3675
19871TIP3    H181028   1.114   5.062   5.718 -0.0142 -1.7930 -0.3636
19871TIP3    H281029   1.240   5.026   5.794  0.6231 -0.9120 -0.9821
19872TIP3   OH281030   4.598   2.956   5.825 -0.2698  0.1616  0.2426
19872TIP3    H181031   4.552   3.001   5.896 -0.6303 -1.5042  1.0853
19872TIP3    H281032   4.686   2.994   5.827 -0.6918  1.1485  0.6365
19873TIP3   OH281033   1.145   2.943   2.470  0.6964  0.3054  0.0523
19873TIP3    H181034   1.225   2.981   2.433 -0.8385  1.7006 -1.9162
19873TIP3    H281035   1.085   3.017   2.479 -0.8914 -0.9608  0.1151
19874TIP3   OH281036   6.392   6.737  11.497  0.0315  0.3737  0.0438
19874TIP3    H181037   6.456   6.709  11.431  0.6670  0.5536  0.5808
19874TIP3    H281038   6.335   6.798  11.450  0.0466 -0.0369 -0.5217
19875TIP3   OH281039   6.645   4.287  15.678  0.7604 -0.2230  0.1502
19875TIP3    H181040   6.672   4.269  15.768  2.0000 -3.0210 -0.7090
19875TIP3    H281041   6.723   4.326  15.638  0.9182 -0.9166 -0.2324
19876TIP3   OH281042   1.493   1.414   3.253 -0.9058  0.2304 -0.3479
19876TIP3    H181043   1.461   1.445   3.338  0.0075  0.1314  0.0388
19876TIP3    H281044   1.575   1.463   3.239 -0.1459 -1.0239 -0.3513
19877TIP3   OH281045   4.518   3.927  15.678  0.7983 -0.4600 -0.2890
19877TIP3    H181046   4.430   3.890  15.689  0.2591  0.5727 -1.0937
19877TIP3    H281047   4.566   3.861  15.628  0.5966 -1.1808  0.4511
19878TIP3   OH281048   3.317   1.596  16.680  0.0093 -0.7083 -0.5652
19878TIP3    H181049   3.286   1.635  16.599  0.0998  0.2853 -0.1231
19878TIP3    H281050   3.244   1.603  16.740  0.4272 -0.1272 -0.1181
19879TIP3   OH281051   3.631   0.923  16.807  0.5856 -0.2983  0.1208
19879TIP3    H181052   3.702   0.960  16.754  0.9659 -1.5552 -0.2585
19879TIP3    H281053   3.629   0.977  16.886  0.8064  0.8381 -0.6403
19880TIP3   OH281054   2.955   3.494   4.087  0.5704 -0.6637 -0.2969
19880TIP3    H181055   2.933   3.458   4.002  0.0428 -0.6071 -0.1846
19880TIP3    H281056   3.017   3.565   4.069  1.0686 -1.1684 -0.5714
19881TIP3   OH281057   3.683   5.922   3.985  0.4712  0.0165 -0.0795
19881TIP3    H181058   3.635   5.848   4.022  0.1707 -0.3914 -1.2654
19881TIP3    H281059   3.615   5.979   3.949  0.8313 -0.1671 -1.0527
19882TIP3   OH281060   2.956   1.133  16.658 -0.3973  0.1441 -1.3377
19882TIP3    H181061   2.938   1.049  16.700 -0.7231  0.3863 -0.9853
19882TIP3    H281062   2.988   1.111  16.571  1.3218 -0.4137 -0.5879
19883TIP3   OH281063   3.440   4.830  13.889 -0.5616  0.8843  0.5200
19883TIP3    H181064   3.502   4.791  13.949 -0.1847 -0.9559 -1.0213
19883TIP3    H281065   3.355   4.819  13.931 -0.4220 -1.3043  0.2930
19884TIP3   OH281066   0.648   5.611   1.729 -0.1977 -0.1701  0.6114
19884TIP3    H181067   0.668   5.647   1.643  0.2654 -0.6430  0.5207
19884TIP3    H281068   0.710   5.654   1.788  0.8624 -1.3729  0.3848
19885TIP3   OH281069   0.867   4.503   1.430  0.2161 -0.0008 -0.0547
19885TIP3    H181070   0.872   4.589   1.388 -0.4728 -0.5458 -1.2779
19885TIP3    H281071   0.922   4.447   1.376  1.5631 -0.1044  1.3726
19886TIP3   OH281072   6.560   2.120   4.806  0.2274 -0.3575 -1.0636
19886TIP3    H181073   6.600   2.116   4.719 -0.5075  0.1984 -1.4335
19886TIP3    H281074   6.497   2.192   4.800  0.2590 -0.2366 -0.0353
19887TIP3   OH281075   2.040   5.187   4.108  0.0532 -0.3476 -0.1159
19887TIP3    H181076   2.118   5.136   4.088  0.2073 -0.9278  1.8022
19887TIP3    H281077   2.062   5.277   4.082  2.2003 -0.1087  2.3296
19888TIP3   OH281078   1.707   4.813   2.928  0.1929 -0.2139 -0.2599
19888TIP3    H181079   1.698   4.856   2.843 -2.3282  0.9866  0.5724
19888TIP3    H281080   1.740   4.881   2.986 -0.4876 -0.3552  0.2901
19889TIP3   OH281081   4.289   6.518  13.567 -0.3133  0.0591  0.0233
19889TIP3    H181082   4.243   6.552  13.644 -0.5840  0.3541 -0.2659
19889TIP3    H281083   4.382   6.535  13.584 -0.3002 -0.6875  0.6824
19890TIP3   OH281084   4.463   6.327   3.927 -0.2310  0.1062 -0.6687
19890TIP3    H181085   4.430   6.244   3.892 -2.3500 -0.0900  1.6454
19890TIP3    H281086   4.449   6.320   4.021 -0.3157  3.0429 -0.4263
19891TIP3   OH281087   6.674   3.548   5.211  0.1479  0.3797 -0.0476
19891TIP3    H181088   6.759   3.554   5.168 -1.6112  1.5071 -3.5644
19891TIP3    H281089   6.678   3.614   5.280  1.6288  1.4442 -1.1063
19892TIP3   OH281090   3.174   1.702  15.632 -0.7264 -0.2422  0.0008
19892TIP3    H181091   3.197   1.750  15.712  1.3883  0.5267 -1.0298
19892TIP3    H281092   3.094   1.744  15.601 -1.1500 -0.0564  1.2982
19893TIP3   OH281093   3.122   1.803   2.390  0.1822  0.3852  0.6571
19893TIP3    H181094   3.171   1.872   2.345 -0.4261 -0.4581 -1.3580
19893TIP3    H281095   3.148   1.722   2.346 -1.9605 -0.2360  0.4625
19894TIP3   OH281096   1.545   4.246  16.048  0.4427 -0.3055  0.0353
19894TIP3    H181097   1.597   4.175  16.084 -0.4167  0.1765  2.3280
19894TIP3    H281098   1.462   4.241  16.095 -0.5882  0.6044 -1.6319
19895TIP3   OH281099   6.568   2.757   0.867  0.2553 -0.7810 -0.0998
19895TIP3    H181100   6.539   2.679   0.914 -1.4713 -0.6445 -0.9132
19895TIP3    H281101   6.580   2.823   0.934 -1.4101 -0.8176  0.2409
19896TIP3   OH281102   5.105   3.836   3.273  0.1145 -0.2897  0.0920
19896TIP3    H181103   5.197   3.856   3.292  0.2258 -0.6430 -0.0839
19896TIP3    H281104   5.068   3.920   3.246  0.1693  0.0423  1.0313
19897TIP3   OH281105   5.895   4.784  13.538  0.3925  0.1325  0.0062
19897TIP3    H181106   5.862   4.864  13.498 -1.0417 -0.6719 -0.4327
19897TIP3    H281107   5.939   4.813  13.618  0.9087  1.4697 -0.7589
19898TIP3   OH281108   5.489   2.380  12.483 -0.4875  0.3031 -0.2290
19898TIP3    H181109   5.562   2.319  12.493 -1.0454 -0.2233  0.6557
19898TIP3    H281110   5.520   2.443  12.417  0.3194 -0.5789 -0.7173
19899TIP3   OH281111   2.017   2.782  12.113  0.1444 -0.1203 -0.8164
19899TIP3    H181112   2.085   2.825  12.164 -1.1938  1.4252 -0.2882
19899TIP3    H281113   1.986   2.710  12.168 -1.1106  1.3767  0.4647
19900TIP3   OH281114   6.706   0.987  14.720  0.5204  0.5888  0.6243
19900TIP3    H181115   6.738   1.041  14.649  0.8764 -0.1023  0.2541
19900TIP3    H281116   6.650   1.045  14.772  1.1236  1.3738  0.3905
19901TIP3   OH281117   1.029   4.087  14.881 -0.0082  0.2475 -0.2660
19901TIP3    H181118   0.968   4.113  14.813  1.0337  1.8616 -0.6015
19901TIP3    H281119   0.992   4.006  14.917 -1.6025  0.4658 -1.3788
19902TIP3   OH281120   6.230   5.110  15.500  0.5136  0.3810  0.3852
19902TIP3    H181121   6.259   5.110  15.591  2.0804  0.3543 -0.1102
19902TIP3    H281122   6.310   5.106  15.448 -0.4088 -1.2976 -0.9949
19903TIP3   OH281123   4.344   1.087   1.671 -0.0871  0.5600 -0.1186
19903TIP3    H181124   4.265   1.064   1.622 -0.6135 -0.7905  1.3223
19903TIP3    H281125   4.313   1.112   1.757  0.9478  1.5424 -0.0259
19904TIP3   OH281126   2.107   2.089   2.168 -0.6062 -0.5508  0.0172
19904TIP3    H181127   2.043   2.078   2.239 -0.6457  0.0763  0.0881
19904TIP3    H281128   2.092   2.179   2.137  0.7371 -0.1289  0.5419
19905TIP3   OH281129   0.575   3.498  11.980 -0.3391 -0.1227  0.3533
19905TIP3    H181130   0.498   3.445  12.003 -1.3900  0.3598 -1.8762
19905TIP3    H281131   0.650   3.446  12.009 -1.3888 -2.3099 -0.6970
19906TIP3   OH281132   2.436   3.298   0.176  0.0864 -0.3693  0.5277
19906TIP3    H181133   2.524   3.331   0.197  0.2243  0.8836 -1.8485
19906TIP3    H281134   2.448   3.250   0.094 -1.6999  0.9584 -0.5170
19907TIP3   OH281135   6.738   1.457  11.896  0.3294  0.6137  0.3953
19907TIP3    H181136   6.799   1.529  11.881 -0.4857  1.0075 -1.1740
19907TIP3    H281137   6.671   1.495  11.953  0.0482  1.0247 -0.2022
19908TIP3   OH281138   3.116   6.585   3.360 -0.4872 -0.6905  0.1702
19908TIP3    H181139   3.110   6.502   3.312  0.1101 -1.2898  1.1118
19908TIP3    H281140   3.136   6.559   3.450  2.0857  0.5668  0.0121
19909TIP3   OH281141   5.566   3.925  16.695  0.3421 -0.3248 -0.1053
19909TIP3    H181142   5.541   3.868  16.767  0.9901 -0.8420 -0.2865
19909TIP3    H281143   5.535   3.880  16.616 -0.7868  0.4626 -0.1336
19910TIP3   OH281144   2.441   2.292  14.986  0.2494  0.0794  0.4385
19910TIP3    H181145   2.474   2.239  15.058 -1.7006 -0.9310  0.6154
19910TIP3    H281146   2.369   2.342  15.025  0.6697  1.2580 -0.2643
19911TIP3   OH281147   1.261   4.053   5.327  0.4176  0.0629 -0.6359
19911TIP3    H181148   1.306   4.020   5.405  1.4510 -1.0296 -1.6749
19911TIP3    H281149   1.324   4.116   5.290 -1.1153  2.5373  0.7748
19912TIP3   OH281150   2.990   4.147   1.612 -0.1975 -0.2445 -0.6235
19912TIP3    H181151   3.078   4.113   1.595 -0.5673 -1.5193 -0.0462
19912TIP3    H281152   2.942   4.130   1.531 -0.3084 -0.8512 -0.4285
19913TIP3   OH281153   5.864   0.468   2.163 -0.0967  0.1508 -0.0755
19913TIP3    H181154   5.846   0.391   2.215 -0.1420 -0.5667 -1.1313
19913TIP3    H281155   5.960   0.471   2.156 -0.1802 -1.3676 -2.2957
19914TIP3   OH281156   5.132   0.967  11.017  0.0936  0.5472  0.2003
19914TIP3    H181157   5.070   1.024  11.063 -3.4141 -1.2021 -2.1613
19914TIP3    H281158   5.113   0.980  10.924  2.1772 -1.3140 -0.5340
19915TIP3   OH281159   0.810   2.216   1.704  0.2732 -0.3581  0.2022
19915TIP3    H181160   0.726   2.200   1.661  0.7169 -0.1641 -0.7438
19915TIP3    H281161   0.875   2.196   1.637  0.9785 -0.3329  0.8800
19916TIP3   OH281162   1.176   1.023   5.175 -0.6016 -0.4842 -0.6475
19916TIP3    H181163   1.101   1.083   5.171 -1.0355 -1.0309 -0.9950
19916TIP3    H281164   1.165   0.968   5.097  1.4732  0.9523 -2.0119
19917TIP3   OH281165   2.480   1.064  16.396 -0.2858 -0.3914 -0.2846
19917TIP3    H181166   2.428   0.994  16.358  0.2772  0.6496 -3.1298
19917TIP3    H281167   2.550   1.080  16.332 -0.0953  2.3768  0.5163
19918TIP3   OH281168   1.892   5.296  15.907 -0.0780  0.3754  0.0841
19918TIP3    H181169   1.834   5.368  15.932  2.1229  1.7025  1.5764
19918TIP3    H281170   1.972   5.340  15.876  1.3227 -1.4205  1.1087
19919TIP3   OH281171   3.642   2.175  17.162  0.5205 -0.0904 -0.0849
19919TIP3    H181172   3.702   2.207  17.095 -0.4656  1.7459 -0.1022
19919TIP3    H281173   3.600   2.253  17.197  0.2349 -1.1187  1.9451
19920TIP3   OH281174   5.075   3.332   0.929  0.2531 -0.3122  0.0526
19920TIP3    H181175   5.163   3.364   0.911  0.5660  0.3306  2.5446
19920TIP3    H281176   5.073   3.244   0.891  2.1817 -0.5802  0.5186
19921TIP3   OH281177   0.593   5.123  17.014  0.1834 -0.0186 -0.1039
19921TIP3    H181178   0.552   5.181  17.078 -0.3726 -1.4008  0.8223
19921TIP3    H281179   0.687   5.131  17.030  0.0915  0.3079  0.2729
19922TIP3   OH281180   1.821   2.235  16.567  0.4121 -0.1618  0.1822
19922TIP3    H181181   1.745   2.292  16.576  0.5372 -0.4180  3.2071
19922TIP3    H281182   1.867   2.269  16.490 -1.3387  1.6420 -0.1063
19923TIP3   OH281183   1.269   2.757   5.780 -0.0174  0.2200  0.2775
19923TIP3    H181184   1.332   2.802   5.724 -0.0264 -1.9142 -1.5269
19923TIP3    H281185   1.300   2.666   5.783 -2.9472 -0.8730 -0.6276
19924TIP3   OH281186   3.762   4.776   2.023 -0.2505 -0.1268 -0.0426
19924TIP3    H181187   3.679   4.814   1.995  0.1135 -0.0920 -1.0999
19924TIP3    H281188   3.782   4.820   2.106 -0.3975  1.1823 -0.6844
19925TIP3   OH281189   0.779   0.986  16.126 -0.5502  0.0495  0.3154
19925TIP3    H181190   0.741   0.920  16.184  0.8369  1.6475  3.1737
19925TIP3    H281191   0.831   0.936  16.063  0.5356 -1.6257  2.4736
19926TIP3   OH281192   0.717   1.827   5.742 -0.0171 -0.1199 -0.1096
19926TIP3    H181193   0.633   1.855   5.778  0.3619  1.2726 -0.2933
19926TIP3    H281194   0.718   1.864   5.654  1.1014  0.4848  0.1553
19927TIP3   OH281195   4.996   5.430   4.171 -0.1001  0.1624 -0.1083
19927TIP3    H181196   4.916   5.457   4.126 -0.5274  1.5484  1.4268
19927TIP3    H281197   5.041   5.373   4.108 -1.4131  0.8152 -1.6784
19928TIP3   OH281198   6.280   2.513  14.477  0.0832 -0.9433  0.2818
19928TIP3    H181199   6.337   2.541  14.405 -1.7688 -1.0775 -1.2739
19928TIP3    H281200   6.319   2.553  14.555  0.9167  0.9775 -1.0862
19929TIP3   OH281201   4.866   5.966  16.638  0.1747 -0.6699 -0.1044
19929TIP3    H181202   4.880   5.992  16.547 -0.7937  0.7182  0.1224
19929TIP3    H281203   4.774   5.986  16.655  0.3442 -0.9182  1.1846
19930TIP3   OH281204   3.405   0.921  13.542 -0.4724 -0.4175  0.0747
19930TIP3    H181205   3.401   1.017  13.548 -0.3963 -0.3790 -0.4423
19930TIP3    H281206   3.439   0.893  13.627  0.5494  0.0920 -0.1583
19931TIP3   OH281207   4.935   6.367  15.023  0.1117  0.3248  1.0129
19931TIP3    H181208   5.027   6.352  15.041 -0.1486  0.3477  2.3903
19931TIP3    H281209   4.895   6.280  15.027  0.0475  0.3335  0.5773
19932TIP3   OH281210   6.254   3.515  11.296 -0.2519 -0.2039 -0.0970
19932TIP3    H181211   6.169   3.480  11.272 -0.5743 -0.1086  0.8958
19932TIP3    H281212   6.287   3.555  11.216 -1.9897  1.4837 -0.0148
19933TIP3   OH281213   3.756   0.629   4.510  0.2160  0.4136  0.2086
19933TIP3    H181214   3.849   0.642   4.497  0.0478  0.6706 -0.7880
19933TIP3    H281215   3.746   0.614   4.604  1.1079  1.6675  0.5091
19934TIP3   OH281216   1.094   5.952  16.975  0.2299  0.9501 -0.5030
19934TIP3    H181217   1.063   5.876  16.925 -0.7566 -0.8051  2.6779
19934TIP3    H281218   1.188   5.938  16.983  0.3965  1.2419 -1.8341
19935TIP3   OH281219   1.157   6.013  13.395 -0.3239  0.2260  0.7635
19935TIP3    H181220   1.181   5.941  13.454  0.3960  0.8570  1.2563
19935TIP3    H281221   1.102   6.070  13.448 -0.5321  0.2622  0.5064
19936TIP3   OH281222   4.722   1.921  11.637  0.2999 -0.1720  0.5823
19936TIP3    H181223   4.743   1.965  11.555  1.2751  0.5352  1.2075
19936TIP3    H281224   4.749   1.982  11.705  0.4419 -1.1882  1.4454
19937TIP3   OH281225   4.307   5.695   3.538  0.2630  0.5194 -0.4765
19937TIP3    H181226   4.282   5.751   3.612 -0.4344  0.4438 -0.6492
19937TIP3    H281227   4.224   5.672   3.497  0.5880 -0.1773 -0.7475
19938TIP3   OH281228   0.522   4.533   5.944 -0.0733  0.3111  0.2667
19938TIP3    H181229   0.513   4.623   5.975  2.2888  1.0799 -1.1199
19938TIP3    H281230   0.514   4.540   5.849  4.2714 -0.2955 -0.2209
19939TIP3   OH281231   4.855   2.041  11.848 -0.1908  0.3051 -0.5177
19939TIP3    H181232   4.873   1.971  11.911  2.5411 -0.8246 -2.4358
19939TIP3    H281233   4.940   2.082  11.833 -1.5001  3.0854 -0.5472
19940TIP3   OH281234   4.201   4.121   4.648  0.0474 -0.2001 -0.2272
19940TIP3    H181235   4.270   4.134   4.583 -0.4300  1.2649 -0.4627
19940TIP3    H281236   4.119   4.137   4.601 -0.2111  2.9709  1.1906
19941TIP3   OH281237   2.911   6.366   4.087  0.4540  0.4827 -0.4088
19941TIP3    H181238   2.850   6.419   4.138 -0.5723 -1.6304  0.6357
19941TIP3    H281239   2.966   6.324   4.152 -1.5649 -3.0910 -0.8626
19942TIP3   OH281240   1.831   0.582  12.592 -0.5693 -0.0566 -0.3909
19942TIP3    H181241   1.827   0.489  12.572 -1.3473 -0.2111  0.4500
19942TIP3    H281242   1.914   0.594  12.639 -0.5961 -0.3695 -0.2668
19943TIP3   OH281243   5.807   1.825   5.757  0.2635  0.6133  0.1930
19943TIP3    H181244   5.786   1.743   5.803  0.3461 -0.6398 -1.9677
19943TIP3    H281245   5.894   1.848   5.790  1.4246 -1.6391 -1.1713
19944TIP3   OH281246   4.320   6.049   3.527 -0.5531  0.7457 -0.4770
19944TIP3    H181247   4.267   6.109   3.475 -0.0798  0.0346 -1.7836
19944TIP3    H281248   4.298   5.962   3.495  2.4896  0.4970 -2.1433
19945TIP3   OH281249   6.083   2.949  15.687  0.0007 -0.0611  0.6285
19945TIP3    H181250   6.029   2.991  15.620 -0.6642 -0.4095  0.9421
19945TIP3    H281251   6.079   3.009  15.761 -0.1119 -0.1830  0.7200
19946TIP3   OH281252   1.785   6.245  15.116 -0.1895 -0.2346  0.1105
19946TIP3    H181253   1.848   6.218  15.049 -0.1035  0.9981 -0.3113
19946TIP3    H281254   1.709   6.277  15.066  0.2595  1.5986  0.5748
19947TIP3   OH281255   2.152   2.578  16.159  0.0408  0.3989  0.7669
19947TIP3    H181256   2.246   2.568  16.145 -0.2130  1.2719 -1.7004
19947TIP3    H281257   2.118   2.489  16.154  0.2010  0.4627 -2.7157
19948TIP3   OH281258   3.934   5.092  11.386  0.0289 -0.5391  0.3536
19948TIP3    H181259   3.900   5.172  11.347  0.8388 -0.4862 -0.2571
19948TIP3    H281260   3.872   5.024  11.358  1.3322 -0.7317 -2.1973
19949TIP3   OH281261   6.017   4.152   1.584 -0.9082 -0.0142 -0.4558
19949TIP3    H181262   6.030   4.245   1.565  2.4384 -0.4547 -0.6340
19949TIP3    H281263   6.025   4.146   1.679  1.1464 -0.3981 -0.6323
19950CLA    CLA81264   5.519   3.704  15.296  0.0173 -0.1242  0.2062
19951LIG      S81265   3.365   3.454  16.289  0.1242 -0.2797 -0.0421
19951LIG     O181266   3.245   3.079  16.697 -0.3979  0.0193 -0.0025
19951LIG     O281267   3.234   3.136  16.282  0.2074 -0.0318 -0.2150
19951LIG     O381268   3.136   3.311  15.770  0.1547  0.4035  0.1217
19951LIG     O481269   3.039   3.518  15.907  0.0558 -0.1984  0.8875
19951LIG      N81270   3.124   3.537  16.782  0.2654  0.4555 -0.6008
19951LIG     C181271   3.165   3.290  16.593  0.0481  0.0568  1.0002
19951LIG     C281272   3.015   3.459  16.724 -0.6302 -0.1409  0.3056
19951LIG     C381273   3.236   3.517  16.685 -0.2464 -0.2053  0.1341
19951LIG     C481274   3.040   3.309  16.691  0.1679  0.0545 -0.0295
19951LIG     C581275   3.283   3.377  16.645 -0.1070  0.3211  1.1762
19951LIG     C681276   3.096   3.685  16.796 -0.1342 -0.0036 -0.0361
19951LIG     C781277   3.217   3.141  16.571 -0.4125 -0.1901 -0.1872
19951LIG     C881278   3.157   3.477  16.912  0.4894 -0.5080 -0.4726
19951LIG     C981279   3.343   3.131  16.490  0.3439 -0.0963  0.3177
19951LIG    C1081280   2.975   3.712  16.867  0.2643  0.3052  0.1394
19951LIG    C1181281   3.324   3.180  16.351 -0.3461 -0.3774 -0.0656
19951LIG    C1281282   3.433   3.282  16.300  0.1407  0.4933  0.2188
19951LIG    C1381283   2.855   3.715  16.797  0.2930 -0.2904  0.9864
19951LIG    C1481284   2.986   3.747  17.001 -1.1215  0.0534  0.3120
19951LIG    C1581285   3.471   3.241  16.158 -0.0779 -0.0393 -0.1913
19951LIG    C1681286   3.362   3.303  16.067  0.3781 -0.3551  0.4361
19951LIG    C1781287   2.738   3.734  16.874  0.1292  0.1833 -0.0273
19951LIG    C1881288   2.868   3.781  17.070 -1.0000 -0.0014 -0.2519
19951LIG    C1981289   3.305   3.424  16.124 -0.2369 -0.5287  0.0915
19951LIG    C2081290   2.745   3.762  17.014 -0.0195  0.5846  0.3021
19951LIG    C2181291   3.313   3.270  15.943 -0.4881  0.0681  0.1803
19951LIG    C2281292   3.210   3.499  16.072  0.3763 -0.3435  0.4341
19951LIG    C2381293   3.198   3.335  15.891  0.2686 -0.4273  0.4867
19951LIG    C2481294   3.146   3.445  15.962 -0.7465  0.0901 -0.9854
19951LIG    C2581295   3.204   3.209  15.684 -0.5362  0.4889 -0.4348
19951LIG    C2681296   2.942   3.575  15.992 -0.8827 -0.3237 -0.5501
19951LIG     H181297   3.124   3.330  16.498 -2.0388 -1.8916  1.0374
19951LIG     H281298   2.993   3.502  16.628  0.1559 -0.4761 -0.0246
19951LIG     H381299   2.930   3.468  16.790 -1.5679 -1.0051 -0.7609
19951LIG     H481300   3.330   3.560  16.716  0.1950 -2.1312  1.5469
19951LIG     H581301   3.205   3.570  16.596  0.7656 -0.9367 -0.6735
19951LIG     H681302   3.064   3.245  16.779 -1.3680  1.8068  1.7072
19951LIG     H781303   2.947   3.268  16.646  0.6581 -0.7452 -0.3186
19951LIG     H881304   3.367   3.389  16.573 -1.0606  1.9837  0.3151
19951LIG     H981305   3.327   3.324  16.733 -2.1977 -2.3873  0.6772
19951LIG    H1081306   3.073   3.719  16.696 -0.2559  1.6054  0.5289
19951LIG    H1181307   3.173   3.733  16.855  0.4763 -1.7395  0.6184
19951LIG    H1281308   3.137   3.087  16.516  1.0170 -2.0547 -0.4524
19951LIG    H1381309   3.164   3.370  16.904 -1.9087 -0.7891  0.8637
19951LIG    H1481310   3.078   3.504  16.980  0.0552  0.3507 -1.3115
19951LIG    H1581311   3.245   3.522  16.956  0.2656  0.7961 -1.3141
19951LIG    H1681312   3.379   3.026  16.489  0.5688 -0.0180 -1.0539
19951LIG    H1781313   3.423   3.184  16.547  1.8145 -0.3053 -1.4987
19951LIG    H1881314   3.169   3.021  16.699  1.0083 -1.8707  0.9611
19951LIG    H1981315   3.527   3.279  16.357  1.4503  4.6997 -1.4665
19951LIG    H2081316   2.853   3.702  16.690  1.3964 -3.0053  1.2574
19951LIG    H2181317   3.077   3.742  17.059  0.5169 -1.6117 -2.2585
19951LIG    H2281318   3.503   3.138  16.138 -0.1840 -0.3649  1.2873
19951LIG    H2381319   3.567   3.292  16.140 -1.4158  2.7273  0.1639
19951LIG    H2481320   2.643   3.723  16.824  0.4062  1.7516 -0.9276
19951LIG    H2581321   2.887   3.804  17.174 -2.7126 -1.6736  0.4534
19951LIG    H2681322   2.655   3.766  17.074 -0.2457 -1.8189  0.1908
19951LIG    H2781323   3.352   3.179  15.900  2.3328  2.2640 -2.1415
19951LIG    H2881324   3.180   3.580  16.137 -0.8882 -1.2903  1.0447
19951LIG    H2981325   3.150   3.189  15.590  0.0180  2.5902 -1.2405
19951LIG    H3081326   3.214   3.117  15.745  0.5006  0.6920 -0.2801
19951LIG    H3181327   3.309   3.240  15.662  0.2545  0.2031  2.6214
19951LIG    H3281328   2.994   3.662  16.036 -0.5064 -1.2488  0.8926
19951LIG    H3381329   2.916   3.519  16.085  1.8889 -1.2405 -0.2630
19951LIG    H3481330   2.849   3.610  15.943 -0.8000 -0.0071 -0.4812
   6.78697   6.78697  17.23950
